 Gaussian 16, Revision A.03,
 Gaussian 16:  EM64L-G16RevA.03 25-Dec-2016

 -------------
 #p 6-31g* mp2
 -------------

 ------------------------------------------------------
 Input file generated by CHIRIPA (05-May-2021 14:53:16)
 ------------------------------------------------------
 Symbolic Z-matrix:
 Charge =  0 Multiplicity = 1

                         Standard orientation:
 ---------------------------------------------------------------------
 Center     Atomic      Atomic             Coordinates (Angstroms)
 Number     Number       Type             X           Y           Z
 ---------------------------------------------------------------------
      1          6           0        4.185109   -0.588856   -0.044995
      2          6           0        5.583673   -1.000032   -0.506448
      3          6           0        5.653028   -2.460485   -0.953729
      4          1           0        3.871618   -1.242032    0.780856
      5          1           0        3.472209   -0.756677   -0.864144
      6          1           0        6.293951   -0.830186    0.312865
      7          1           0        5.893949   -0.345678   -1.331170
      8          1           0        4.966742   -2.641069   -1.787397
      9          1           0        5.369017   -3.128330   -0.134021
     10          1           0        6.661696   -2.733120   -1.279490
     11          6           0        4.099775    0.868446    0.405245
     12          6           0        2.701211    1.279621    0.866698
     13          6           0        2.631856    2.740075    1.313978
     14          1           0        4.812675    1.036267    1.224393
     15          1           0        4.413266    1.521621   -0.420607
     16          1           0        2.390935    0.625268    1.691420
     17          1           0        1.990933    1.109776    0.047385
     18          1           0        2.915868    3.407920    0.494270
     19          1           0        3.318142    2.920659    2.147646
     20          1           0        1.623189    3.012710    1.639740
     21          6           0       -2.221829    1.989694   -1.105806
     22          6           0       -3.611413    1.831938   -1.079521
     23          6           0       -4.184487    0.673169   -0.547175
     24          6           0       -3.334357   -0.312130   -0.047422
     25          6           0       -1.946256   -0.184367   -0.059457
     26          6           0       -1.395143    0.982814   -0.596588
     27          1           0       -1.785180    2.893121   -1.521204
     28          1           0       -4.255876    2.612241   -1.474284
     29          1           0       -5.257059    0.525085   -0.514337
     30          1           0       -1.329632   -0.979639    0.341462
     31          1           0       -0.315638    1.102609   -0.615692
     32          7           0       -3.929420   -1.543319    0.518682
     33          8           0       -3.158664   -2.396656    0.952717
     34          8           0       -5.155320   -1.631673    0.517639
 ---------------------------------------------------------------------

 SCF Done:  E(RHF) =  -669.535562343     A.U. after   15 cycles
 E2 =    -0.2091008460D+01 EUMP2 =    -0.67162657080272D+03

 The electronic state is 1-A.
 Alpha  occ. eigenvalues --  -20.60729 -20.60723 -15.85782 -11.31140 -11.27712
 Alpha  occ. eigenvalues --  -11.27696 -11.27451 -11.26729 -11.26687 -11.22554
 Alpha  occ. eigenvalues --  -11.22061 -11.22015 -11.21911 -11.21884 -11.21369
 Alpha  occ. eigenvalues --   -1.59804  -1.39358  -1.19312  -1.09067  -1.08709
 Alpha  occ. eigenvalues --   -1.04713  -1.04151  -0.96569  -0.95545  -0.87586
 Alpha  occ. eigenvalues --   -0.86115  -0.82379  -0.80249  -0.78861  -0.77422
 Alpha  occ. eigenvalues --   -0.72000  -0.71127  -0.70422  -0.65723  -0.64963
 Alpha  occ. eigenvalues --   -0.64720  -0.62107  -0.61512  -0.59956  -0.58182
 Alpha  occ. eigenvalues --   -0.55845  -0.55217  -0.53279  -0.53047  -0.52987
 Alpha  occ. eigenvalues --   -0.52815  -0.50507  -0.48771  -0.48755  -0.48527
 Alpha  occ. eigenvalues --   -0.47279  -0.46392  -0.46303  -0.44765  -0.44394
 Alpha  occ. eigenvalues --   -0.37297  -0.36316
 Alpha virt. eigenvalues --    0.05108   0.11323   0.16594   0.19685   0.22609
 Alpha virt. eigenvalues --    0.23722   0.25134   0.26389   0.27338   0.28397
 Alpha virt. eigenvalues --    0.28676   0.30049   0.31064   0.31278   0.32234

 Mulliken charges:
               1
     1  C   -0.299041
     2  C   -0.300139
     3  C   -0.476236
     4  H    0.152008
     5  H    0.147217
     6  H    0.153278
     7  H    0.152028
     8  H    0.155548
     9  H    0.156922
    10  H    0.161703
    11  C   -0.297542
    12  C   -0.305286
    13  C   -0.477100
    14  H    0.153086
    15  H    0.150148
    16  H    0.156475
    17  H    0.142626
    18  H    0.154900
    19  H    0.160422
    20  H    0.160087
    21  C   -0.173041
    22  C   -0.218502
    23  C   -0.171240
    24  C    0.158706
    25  C   -0.173916
    26  C   -0.226045
    27  H    0.225990
    28  H    0.223165
    29  H    0.275408
    30  H    0.276048
    31  H    0.235352
    32  N    0.488125
    33  O   -0.460447
    34  O   -0.460704
 Sum of Mulliken charges =  -0.00000

 Dipole moment (field-independent basis, Debye):
    X=              2.3005    Y=              4.3303    Z=             -1.9285  Tot=              5.2691
 Quadrupole moment (field-independent basis, Debye-Ang):
   XX=           -103.8458   YY=            -98.3222   ZZ=            -94.2772
   XY=            -16.9985   XZ=              8.1939   YZ=             -0.5898

 Normal termination of Gaussian 16 at Thu May  6 17:11:55 2021.
