 Gaussian 16, Revision A.03,
 Gaussian 16:  EM64L-G16RevA.03 25-Dec-2016

 -------------
 #p 6-31g* mp2
 -------------

 ------------------------------------------------------
 Input file generated by CHIRIPA (05-May-2021 14:53:14)
 ------------------------------------------------------
 Symbolic Z-matrix:
 Charge =  0 Multiplicity = 1

                         Standard orientation:
 ---------------------------------------------------------------------
 Center     Atomic      Atomic             Coordinates (Angstroms)
 Number     Number       Type             X           Y           Z
 ---------------------------------------------------------------------
      1          6           0       -2.590433   -0.163018    0.371693
      2          6           0       -3.499315   -1.157696   -0.351173
      3          6           0       -3.555901   -2.518991    0.342705
      4          1           0       -1.577895   -0.583817    0.439813
      5          1           0       -2.945855   -0.035160    1.403547
      6          1           0       -3.143105   -1.282587   -1.381771
      7          1           0       -4.509762   -0.734398   -0.417749
      8          1           0       -3.932361   -2.414721    1.365450
      9          1           0       -2.557939   -2.966025    0.395950
     10          1           0       -4.211210   -3.214585   -0.190754
     11          6           0       -2.523526    1.202491   -0.309949
     12          6           0       -1.614644    2.197169    0.412917
     13          6           0       -1.558059    3.558464   -0.280961
     14          1           0       -2.168105    1.074633   -1.341803
     15          1           0       -3.536064    1.623290   -0.378069
     16          1           0       -0.604198    1.773871    0.479493
     17          1           0       -1.970854    2.322060    1.443515
     18          1           0       -2.556020    4.005498   -0.334206
     19          1           0       -1.181598    3.454194   -1.303706
     20          1           0       -0.902749    4.254058    0.252498
     21          6           0        2.128632   -0.234085    2.489682
     22          6           0        2.965127    0.551379    1.689779
     23          6           0        2.901195    0.464354    0.295904
     24          6           0        1.984977   -0.422669   -0.267143
     25          6           0        1.138223   -1.218500    0.502889
     26          6           0        1.219453   -1.114965    1.894732
     27          1           0        2.185014   -0.160068    3.571689
     28          1           0        3.672167    1.236349    2.149076
     29          1           0        3.537018    1.060738   -0.347117
     30          1           0        0.443527   -1.892170    0.016079
     31          1           0        0.568586   -1.726191    2.513457
     32          7           0        1.908139   -0.523537   -1.741702
     33          8           0        1.092408   -1.312724   -2.213299
     34          8           0        2.665101    0.188499   -2.397943
 ---------------------------------------------------------------------

 SCF Done:  E(RHF) =  -669.534895559     A.U. after   15 cycles
 E2 =    -0.2094077522D+01 EUMP2 =    -0.67162897308136D+03

 The electronic state is 1-A.
 Alpha  occ. eigenvalues --  -20.60874 -20.60869 -15.85928 -11.31294 -11.27859
 Alpha  occ. eigenvalues --  -11.27853 -11.27581 -11.26863 -11.26849 -11.21592
 Alpha  occ. eigenvalues --  -11.21546 -11.21423 -11.21298 -11.21277 -11.20983
 Alpha  occ. eigenvalues --   -1.59950  -1.39503  -1.19473  -1.08854  -1.08430
 Alpha  occ. eigenvalues --   -1.04874  -1.03545  -0.96012  -0.95693  -0.87028
 Alpha  occ. eigenvalues --   -0.86263  -0.82526  -0.79605  -0.78274  -0.77559
 Alpha  occ. eigenvalues --   -0.72144  -0.71278  -0.70577  -0.65168  -0.65089
 Alpha  occ. eigenvalues --   -0.64802  -0.62226  -0.60927  -0.59377  -0.57623
 Alpha  occ. eigenvalues --   -0.55383  -0.55293  -0.53253  -0.52956  -0.52682
 Alpha  occ. eigenvalues --   -0.52439  -0.49956  -0.48903  -0.48899  -0.47929
 Alpha  occ. eigenvalues --   -0.46629  -0.45786  -0.45678  -0.44898  -0.43788
 Alpha  occ. eigenvalues --   -0.37432  -0.36380
 Alpha virt. eigenvalues --    0.04923   0.11135   0.16385   0.20102   0.22908
 Alpha virt. eigenvalues --    0.23784   0.25937   0.27153   0.27908   0.27943
 Alpha virt. eigenvalues --    0.28930   0.30613   0.31327   0.31679   0.32008

 Mulliken charges:
               1
     1  C   -0.302253
     2  C   -0.301476
     3  C   -0.474625
     4  H    0.148017
     5  H    0.145373
     6  H    0.160878
     7  H    0.152550
     8  H    0.152993
     9  H    0.147282
    10  H    0.163718
    11  C   -0.299810
    12  C   -0.302283
    13  C   -0.476163
    14  H    0.157078
    15  H    0.149486
    16  H    0.153784
    17  H    0.148213
    18  H    0.154899
    19  H    0.159524
    20  H    0.157798
    21  C   -0.170563
    22  C   -0.217978
    23  C   -0.171911
    24  C    0.158521
    25  C   -0.173335
    26  C   -0.215744
    27  H    0.226319
    28  H    0.224037
    29  H    0.276098
    30  H    0.277255
    31  H    0.225213
    32  N    0.487943
    33  O   -0.460997
    34  O   -0.459841
 Sum of Mulliken charges =  -0.00000

 Dipole moment (field-independent basis, Debye):
    X=              0.3316    Y=              0.3652    Z=              5.1055  Tot=              5.1293
 Quadrupole moment (field-independent basis, Debye-Ang):
   XX=            -90.6917   YY=            -94.2982   ZZ=            -97.8287
   XY=              3.1401   XZ=             10.0863   YZ=             -2.1057

 Normal termination of Gaussian 16 at Thu May  6 20:22:27 2021.
