 Gaussian 16, Revision A.03,
 Gaussian 16:  EM64L-G16RevA.03 25-Dec-2016

 -------------
 #p 6-31g* mp2
 -------------

 ------------------------------------------------------
 Input file generated by CHIRIPA (05-May-2021 14:53:16)
 ------------------------------------------------------
 Symbolic Z-matrix:
 Charge =  0 Multiplicity = 1

                         Standard orientation:
 ---------------------------------------------------------------------
 Center     Atomic      Atomic             Coordinates (Angstroms)
 Number     Number       Type             X           Y           Z
 ---------------------------------------------------------------------
      1          6           0        3.557378    0.396113    0.732535
      2          6           0        3.079820    1.811178    0.404644
      3          6           0        2.123111    2.371091    1.457734
      4          1           0        2.685517   -0.265647    0.826747
      5          1           0        4.052839    0.401879    1.713290
      6          1           0        2.586631    1.803012   -0.575822
      7          1           0        3.952931    2.469606    0.311013
      8          1           0        2.608539    2.408184    2.438338
      9          1           0        1.234475    1.737802    1.546464
     10          1           0        1.794180    3.383528    1.203498
     11          6           0        4.514459   -0.177298   -0.310981
     12          6           0        4.992017   -1.592364    0.016911
     13          6           0        5.948726   -2.152277   -1.036179
     14          1           0        4.018998   -0.183065   -1.291736
     15          1           0        5.386320    0.484462   -0.405192
     16          1           0        4.118906   -2.250792    0.110542
     17          1           0        5.485206   -1.584198    0.997377
     18          1           0        6.837362   -1.518988   -1.124909
     19          1           0        5.463298   -2.189369   -2.016784
     20          1           0        6.277657   -3.164714   -0.781943
     21          6           0       -5.054528   -1.508507    0.686993
     22          6           0       -3.771103   -1.662443    1.221451
     23          6           0       -2.710038   -0.879399    0.757195
     24          6           0       -2.969234    0.052099   -0.247006
     25          6           0       -4.236787    0.228957   -0.799566
     26          6           0       -5.282871   -0.564962   -0.320035
     27          1           0       -5.872969   -2.121018    1.053571
     28          1           0       -3.590838   -2.394418    2.003602
     29          1           0       -1.706611   -0.977846    1.153250
     30          1           0       -4.385599    0.966987   -1.578400
     31          1           0       -6.278563   -0.443240   -0.736958
     32          7           0       -1.853863    0.886829   -0.746578
     33          8           0       -2.108290    1.700421   -1.631999
     34          8           0       -0.746327    0.711692   -0.243262
 ---------------------------------------------------------------------

 SCF Done:  E(RHF) =  -669.536197979     A.U. after   15 cycles
 E2 =    -0.2091034884D+01 EUMP2 =    -0.67162723286266D+03

 The electronic state is 1-A.
 Alpha  occ. eigenvalues --  -20.60985 -20.60979 -15.86020 -11.31324 -11.27888
 Alpha  occ. eigenvalues --  -11.27881 -11.27619 -11.26890 -11.26880 -11.20981
 Alpha  occ. eigenvalues --  -11.20560 -11.20537 -11.20336 -11.20235 -11.19597
 Alpha  occ. eigenvalues --   -1.60044  -1.39602  -1.19491  -1.08897  -1.07473
 Alpha  occ. eigenvalues --   -1.04885  -1.02529  -0.95744  -0.94994  -0.86287
 Alpha  occ. eigenvalues --   -0.86024  -0.82579  -0.78650  -0.77636  -0.77248
 Alpha  occ. eigenvalues --   -0.72252  -0.71356  -0.70601  -0.65151  -0.64889
 Alpha  occ. eigenvalues --   -0.64087  -0.62234  -0.59893  -0.58423  -0.56601
 Alpha  occ. eigenvalues --   -0.55390  -0.54265  -0.53217  -0.52977  -0.51711
 Alpha  occ. eigenvalues --   -0.51435  -0.49062  -0.49001  -0.48866  -0.46958
 Alpha  occ. eigenvalues --   -0.45698  -0.45008  -0.44790  -0.44637  -0.42807
 Alpha  occ. eigenvalues --   -0.37468  -0.36486
 Alpha virt. eigenvalues --    0.04879   0.11169   0.16365   0.21233   0.23730
 Alpha virt. eigenvalues --    0.25215   0.27063   0.27455   0.28161   0.28527
 Alpha virt. eigenvalues --    0.29075   0.30803   0.31958   0.32599   0.32744

 Mulliken charges:
               1
     1  C   -0.298087
     2  C   -0.298216
     3  C   -0.478351
     4  H    0.152022
     5  H    0.143787
     6  H    0.164199
     7  H    0.144756
     8  H    0.143916
     9  H    0.170324
    10  H    0.158202
    11  C   -0.298158
    12  C   -0.298623
    13  C   -0.475171
    14  H    0.151970
    15  H    0.147428
    16  H    0.149960
    17  H    0.149687
    18  H    0.154470
    19  H    0.155190
    20  H    0.157342
    21  C   -0.170565
    22  C   -0.218491
    23  C   -0.170563
    24  C    0.157906
    25  C   -0.170683
    26  C   -0.218541
    27  H    0.226133
    28  H    0.224009
    29  H    0.275185
    30  H    0.275927
    31  H    0.223933
    32  N    0.492124
    33  O   -0.458650
    34  O   -0.464369
 Sum of Mulliken charges =  -0.00000

 Dipole moment (field-independent basis, Debye):
    X=             -4.2818    Y=             -2.9313    Z=              1.6425  Tot=              5.4429
 Quadrupole moment (field-independent basis, Debye-Ang):
   XX=            -70.7817   YY=            -95.1473   ZZ=            -94.5522
   XY=              7.8067   XZ=             -1.5462   YZ=             -1.4347

 Normal termination of Gaussian 16 at Thu May  6 05:55:48 2021.
