 Gaussian 16, Revision A.03,
 Gaussian 16:  EM64L-G16RevA.03 25-Dec-2016

 -------------
 #p 6-31g* mp2
 -------------

 ------------------------------------------------------
 Input file generated by CHIRIPA (05-May-2021 14:55:23)
 ------------------------------------------------------
 Symbolic Z-matrix:
 Charge =  0 Multiplicity = 1

                         Standard orientation:
 ---------------------------------------------------------------------
 Center     Atomic      Atomic             Coordinates (Angstroms)
 Number     Number       Type             X           Y           Z
 ---------------------------------------------------------------------
      1          6           0        1.452434    1.615986    1.150810
      2          6           0        0.991063    0.592675    0.316248
      3          6           0        1.886924   -0.316388   -0.254353
      4          6           0        3.243507   -0.172085    0.032262
      5          6           0        3.734006    0.836851    0.859758
      6          6           0        2.820022    1.734599    1.419427
      7          1           0        0.749469    2.317773    1.589820
      8          1           0       -0.070471    0.498142    0.105881
      9          1           0        1.556944   -1.117967   -0.903970
     10          1           0        4.798022    0.905625    1.050961
     11          1           0        3.181179    2.528334    2.067189
     12          7           0        4.201508   -1.128480   -0.566021
     13          8           0        5.391741   -0.979851   -0.297893
     14          8           0        3.744017   -2.008621   -1.291756
     15          6           0       -3.460586    0.448603   -0.566666
     16          6           0       -3.768797    1.944443   -0.492812
     17          6           0       -2.781805    2.791756   -1.296368
     18          1           0       -2.440224    0.272391   -0.199573
     19          1           0       -3.473817    0.130085   -1.618220
     20          1           0       -3.756352    2.259756    0.558396
     21          1           0       -4.788611    2.117091   -0.859944
     22          1           0       -2.799429    2.505451   -2.352928
     23          1           0       -1.761305    2.648927   -0.926530
     24          1           0       -3.020733    3.857743   -1.229701
     25          6           0       -4.438594   -0.411587    0.231647
     26          6           0       -4.130383   -1.907426    0.157794
     27          6           0       -5.117376   -2.754740    0.961350
     28          1           0       -4.425364   -0.093070    1.283201
     29          1           0       -5.458955   -0.235375   -0.135445
     30          1           0       -3.110568   -2.080075    0.524925
     31          1           0       -4.142828   -2.222740   -0.893414
     32          1           0       -6.137876   -2.611912    0.591512
     33          1           0       -5.099751   -2.468435    2.017910
     34          1           0       -4.878447   -3.820728    0.894682
 ---------------------------------------------------------------------

 SCF Done:  E(RHF) =  -669.535496709     A.U. after   15 cycles
 E2 =    -0.2091484698D+01 EUMP2 =    -0.67162698140630D+03

 The electronic state is 1-A.
 Alpha  occ. eigenvalues --  -20.60744 -20.60739 -15.85797 -11.31166 -11.27738
 Alpha  occ. eigenvalues --  -11.27729 -11.27486 -11.26754 -11.26728 -11.22502
 Alpha  occ. eigenvalues --  -11.22391 -11.22220 -11.22111 -11.21989 -11.21541
 Alpha  occ. eigenvalues --   -1.59820  -1.39373  -1.19340  -1.09255  -1.08736
 Alpha  occ. eigenvalues --   -1.04743  -1.04280  -0.96735  -0.95569  -0.87745
 Alpha  occ. eigenvalues --   -0.86146  -0.82402  -0.80351  -0.79073  -0.77445
 Alpha  occ. eigenvalues --   -0.72016  -0.71142  -0.70451  -0.65943  -0.64992
 Alpha  occ. eigenvalues --   -0.64729  -0.62121  -0.61646  -0.60103  -0.58339
 Alpha  occ. eigenvalues --   -0.56044  -0.55247  -0.53395  -0.53173  -0.53062
 Alpha  occ. eigenvalues --   -0.52847  -0.50682  -0.48793  -0.48770  -0.48642
 Alpha  occ. eigenvalues --   -0.47389  -0.46591  -0.46506  -0.44778  -0.44554
 Alpha  occ. eigenvalues --   -0.37323  -0.36343
 Alpha virt. eigenvalues --    0.05088   0.11248   0.16578   0.18738   0.22722
 Alpha virt. eigenvalues --    0.23722   0.24725   0.26388   0.26829   0.28283
 Alpha virt. eigenvalues --    0.29027   0.30504   0.31072   0.31280   0.31494

 Mulliken charges:
               1
     1  C   -0.174316
     2  C   -0.228769
     3  C   -0.174099
     4  C    0.158999
     5  C   -0.171143
     6  C   -0.218481
     7  H    0.225934
     8  H    0.238695
     9  H    0.276467
    10  H    0.275557
    11  H    0.223364
    12  N    0.488053
    13  O   -0.460604
    14  O   -0.460315
    15  C   -0.304780
    16  C   -0.300544
    17  C   -0.476648
    18  H    0.142635
    19  H    0.153975
    20  H    0.150783
    21  H    0.156766
    22  H    0.159639
    23  H    0.147584
    24  H    0.163685
    25  C   -0.297901
    26  C   -0.300234
    27  C   -0.476215
    28  H    0.149772
    29  H    0.153055
    30  H    0.149926
    31  H    0.153989
    32  H    0.156501
    33  H    0.155632
    34  H    0.163040
 Sum of Mulliken charges =  -0.00000

 Dipole moment (field-independent basis, Debye):
    X=             -3.5985    Y=              3.3513    Z=              2.0627  Tot=              5.3324
 Quadrupole moment (field-independent basis, Debye-Ang):
   XX=           -113.0471   YY=            -95.6651   ZZ=            -93.7239
   XY=             13.2672   XZ=              9.8127   YZ=              1.4191

 Normal termination of Gaussian 16 at Wed May  5 22:21:04 2021.
