 Gaussian 16, Revision A.03,
 Gaussian 16:  EM64L-G16RevA.03 25-Dec-2016

 -------------
 #p 6-31g* mp2
 -------------

 ------------------------------------------------------
 Input file generated by CHIRIPA (05-May-2021 14:53:16)
 ------------------------------------------------------
 Symbolic Z-matrix:
 Charge =  0 Multiplicity = 1

                         Standard orientation:
 ---------------------------------------------------------------------
 Center     Atomic      Atomic             Coordinates (Angstroms)
 Number     Number       Type             X           Y           Z
 ---------------------------------------------------------------------
      1          6           0        2.884848    0.830021   -0.138643
      2          6           0        3.489035    2.203187   -0.434208
      3          6           0        2.447273    3.322291   -0.422710
      4          1           0        2.103403    0.613102   -0.879748
      5          1           0        2.387414    0.859127    0.840697
      6          1           0        3.986372    2.171106   -1.412084
      7          1           0        4.269264    2.416779    0.307572
      8          1           0        1.958077    3.383192    0.554827
      9          1           0        1.673578    3.136123   -1.174600
     10          1           0        2.900818    4.295190   -0.636310
     11          6           0        3.913865   -0.299044   -0.146621
     12          6           0        3.309678   -1.672210    0.148943
     13          6           0        4.351440   -2.791314    0.137446
     14          1           0        4.411299   -0.328150   -1.125962
     15          1           0        4.695310   -0.082125    0.594483
     16          1           0        2.529449   -1.885802   -0.592836
     17          1           0        2.812341   -1.640129    1.126820
     18          1           0        5.125135   -2.605147    0.889336
     19          1           0        4.840636   -2.852215   -0.840091
     20          1           0        3.897895   -3.764213    0.351046
     21          6           0       -5.112768    0.102499   -0.371192
     22          6           0       -4.430169    1.037653    0.413709
     23          6           0       -3.068761    0.876054    0.687573
     24          6           0       -2.418212   -0.237374    0.158090
     25          6           0       -3.070631   -1.186454   -0.627331
     26          6           0       -4.432021   -1.004617   -0.888295
     27          1           0       -6.170336    0.235894   -0.578925
     28          1           0       -4.956286    1.898415    0.816619
     29          1           0       -2.515901    1.584698    1.292211
     30          1           0       -2.519181   -2.034388   -1.015054
     31          1           0       -4.959577   -1.732476   -1.498173
     32          7           0       -0.976960   -0.419163    0.441189
     33          8           0       -0.426612   -1.408636   -0.037038
     34          8           0       -0.424945    0.431263    1.135948
 ---------------------------------------------------------------------

 SCF Done:  E(RHF) =  -669.535988079     A.U. after   15 cycles
 E2 =    -0.2092624218D+01 EUMP2 =    -0.67162861229778D+03

 The electronic state is 1-A.
 Alpha  occ. eigenvalues --  -20.61036 -20.61030 -15.86045 -11.31349 -11.27907
 Alpha  occ. eigenvalues --  -11.27902 -11.27638 -11.26907 -11.26897 -11.20283
 Alpha  occ. eigenvalues --  -11.19986 -11.19790 -11.19724 -11.19666 -11.19463
 Alpha  occ. eigenvalues --   -1.60076  -1.39636  -1.19512  -1.08921  -1.06801
 Alpha  occ. eigenvalues --   -1.04904  -1.02063  -0.95766  -0.94548  -0.86306
 Alpha  occ. eigenvalues --   -0.85577  -0.82604  -0.78089  -0.77657  -0.76525
 Alpha  occ. eigenvalues --   -0.72265  -0.71383  -0.70620  -0.65169  -0.64905
 Alpha  occ. eigenvalues --   -0.63452  -0.62251  -0.59484  -0.57915  -0.56137
 Alpha  occ. eigenvalues --   -0.55407  -0.53863  -0.53238  -0.52995  -0.51322
 Alpha  occ. eigenvalues --   -0.50977  -0.49105  -0.49024  -0.48504  -0.46403
 Alpha  occ. eigenvalues --   -0.45106  -0.45063  -0.44023  -0.43881  -0.42264
 Alpha  occ. eigenvalues --   -0.37488  -0.36503
 Alpha virt. eigenvalues --    0.04854   0.11152   0.16355   0.21282   0.24376
 Alpha virt. eigenvalues --    0.25607   0.27209   0.28090   0.28233   0.29077
 Alpha virt. eigenvalues --    0.29525   0.30922   0.32370   0.32702   0.33147

 Mulliken charges:
               1
     1  C   -0.298193
     2  C   -0.299235
     3  C   -0.472948
     4  H    0.148574
     5  H    0.170331
     6  H    0.145728
     7  H    0.147331
     8  H    0.157812
     9  H    0.150878
    10  H    0.153242
    11  C   -0.299199
    12  C   -0.297761
    13  C   -0.475597
    14  H    0.141382
    15  H    0.142694
    16  H    0.164048
    17  H    0.158004
    18  H    0.149788
    19  H    0.149392
    20  H    0.156733
    21  C   -0.170484
    22  C   -0.218568
    23  C   -0.170509
    24  C    0.158104
    25  C   -0.170766
    26  C   -0.218580
    27  H    0.226204
    28  H    0.224075
    29  H    0.275963
    30  H    0.275770
    31  H    0.223986
    32  N    0.489527
    33  O   -0.459540
    34  O   -0.458186
 Sum of Mulliken charges =  -0.00000

 Dipole moment (field-independent basis, Debye):
    X=             -5.5730    Y=              0.5533    Z=             -0.8566  Tot=              5.6656
 Quadrupole moment (field-independent basis, Debye-Ang):
   XX=            -73.1679   YY=            -93.5406   ZZ=            -93.3389
   XY=              0.1876   XZ=              2.2528   YZ=              3.4724

 Normal termination of Gaussian 16 at Thu May  6 18:52:43 2021.
