 Gaussian 16, Revision A.03,
 Gaussian 16:  EM64L-G16RevA.03 25-Dec-2016

 -------------
 #p 6-31g* mp2
 -------------

 ------------------------------------------------------
 Input file generated by CHIRIPA (05-May-2021 14:53:17)
 ------------------------------------------------------
 Symbolic Z-matrix:
 Charge =  0 Multiplicity = 1

                         Standard orientation:
 ---------------------------------------------------------------------
 Center     Atomic      Atomic             Coordinates (Angstroms)
 Number     Number       Type             X           Y           Z
 ---------------------------------------------------------------------
      1          6           0        3.724667   -0.085308   -0.598646
      2          6           0        2.572546    0.734273   -0.016505
      3          6           0        1.320027    0.698790   -0.892707
      4          1           0        3.965926    0.293693   -1.601191
      5          1           0        3.396266   -1.125828   -0.728513
      6          1           0        2.903465    1.772639    0.113518
      7          1           0        2.334130    0.353400    0.984849
      8          1           0        0.962866   -0.329132   -1.012765
      9          1           0        1.535436    1.098171   -1.889047
     10          1           0        0.508947    1.291150   -0.457829
     11          6           0        4.983835   -0.059604    0.265972
     12          6           0        6.135956   -0.879185   -0.316169
     13          6           0        7.388475   -0.843702    0.560033
     14          1           0        5.312236    0.980916    0.395839
     15          1           0        4.742576   -0.438605    1.268518
     16          1           0        6.374373   -0.498312   -1.317523
     17          1           0        5.805037   -1.917550   -0.446192
     18          1           0        7.173066   -1.243083    1.556373
     19          1           0        7.745636    0.184220    0.680091
     20          1           0        8.199555   -1.436061    0.125155
     21          6           0       -1.989302    2.119855    0.467429
     22          6           0       -2.516420    1.831303   -0.795665
     23          6           0       -3.300382    0.690900   -0.994245
     24          6           0       -3.538310   -0.142861    0.097325
     25          6           0       -3.027205    0.117528    1.367860
     26          6           0       -2.245924    1.263557    1.543263
     27          1           0       -1.381343    3.007932    0.612689
     28          1           0       -2.318766    2.494521   -1.632992
     29          1           0       -3.720880    0.443597   -1.961426
     30          1           0       -3.241537   -0.562499    2.183362
     31          1           0       -1.837859    1.485144    2.525316
     32          7           0       -4.366836   -1.353132   -0.100635
     33          8           0       -4.561845   -2.071723    0.877239
     34          8           0       -4.805537   -1.560235   -1.229921
 ---------------------------------------------------------------------

 SCF Done:  E(RHF) =  -669.534792240     A.U. after   15 cycles
 E2 =    -0.2092124812D+01 EUMP2 =    -0.67162691705250D+03

 The electronic state is 1-A.
 Alpha  occ. eigenvalues --  -20.60788 -20.60783 -15.85842 -11.31223 -11.27796
 Alpha  occ. eigenvalues --  -11.27784 -11.27535 -11.26816 -11.26800 -11.22003
 Alpha  occ. eigenvalues --  -11.21815 -11.21692 -11.21626 -11.21361 -11.21262
 Alpha  occ. eigenvalues --   -1.59863  -1.39416  -1.19404  -1.08813  -1.08716
 Alpha  occ. eigenvalues --   -1.04802  -1.03821  -0.96268  -0.95631  -0.87282
 Alpha  occ. eigenvalues --   -0.86203  -0.82459  -0.79892  -0.78534  -0.77495
 Alpha  occ. eigenvalues --   -0.72061  -0.71186  -0.70531  -0.65351  -0.65057
 Alpha  occ. eigenvalues --   -0.64804  -0.62146  -0.61217  -0.59689  -0.57907
 Alpha  occ. eigenvalues --   -0.55543  -0.55322  -0.53558  -0.52896  -0.52750
 Alpha  occ. eigenvalues --   -0.52464  -0.50197  -0.48821  -0.48814  -0.48206
 Alpha  occ. eigenvalues --   -0.46926  -0.46075  -0.45997  -0.44819  -0.44094
 Alpha  occ. eigenvalues --   -0.37290  -0.36395
 Alpha virt. eigenvalues --    0.05000   0.11222   0.16418   0.21151   0.22640
 Alpha virt. eigenvalues --    0.24146   0.26354   0.27120   0.27220   0.27532
 Alpha virt. eigenvalues --    0.28540   0.30732   0.31140   0.31683   0.32431

 Mulliken charges:
               1
     1  C   -0.298493
     2  C   -0.299357
     3  C   -0.480408
     4  H    0.149819
     5  H    0.151616
     6  H    0.148397
     7  H    0.150741
     8  H    0.158982
     9  H    0.152265
    10  H    0.160747
    11  C   -0.298296
    12  C   -0.299908
    13  C   -0.475825
    14  H    0.148615
    15  H    0.149560
    16  H    0.152125
    17  H    0.153064
    18  H    0.155367
    19  H    0.154817
    20  H    0.161132
    21  C   -0.174710
    22  C   -0.214290
    23  C   -0.170719
    24  C    0.158873
    25  C   -0.170943
    26  C   -0.217211
    27  H    0.226716
    28  H    0.224424
    29  H    0.275917
    30  H    0.275742
    31  H    0.223864
    32  N    0.488014
    33  O   -0.460421
    34  O   -0.460217
 Sum of Mulliken charges =  -0.00000

 Dipole moment (field-independent basis, Debye):
    X=              2.8761    Y=              4.2360    Z=              0.6946  Tot=              5.1671
 Quadrupole moment (field-independent basis, Debye-Ang):
   XX=           -116.9333   YY=            -95.6960   ZZ=            -90.0240
   XY=            -15.6223   XZ=             -2.2315   YZ=             -1.3570

 Normal termination of Gaussian 16 at Thu May  6 15:36:48 2021.
