 Gaussian 16, Revision A.03,
 Gaussian 16:  EM64L-G16RevA.03 25-Dec-2016

 -------------
 #p 6-31g* mp2
 -------------

 ------------------------------------------------------
 Input file generated by CHIRIPA (05-May-2021 14:53:17)
 ------------------------------------------------------
 Symbolic Z-matrix:
 Charge =  0 Multiplicity = 1

                         Standard orientation:
 ---------------------------------------------------------------------
 Center     Atomic      Atomic             Coordinates (Angstroms)
 Number     Number       Type             X           Y           Z
 ---------------------------------------------------------------------
      1          6           0       -3.138957   -0.391173    0.142632
      2          6           0       -3.832865   -1.607521   -0.471350
      3          6           0       -4.085910   -2.720069    0.546491
      4          1           0       -2.185385   -0.706825    0.587615
      5          1           0       -3.754772   -0.003182    0.965815
      6          1           0       -3.216595   -1.992266   -1.294027
      7          1           0       -4.784806   -1.288903   -0.915091
      8          1           0       -4.719821   -2.358634    1.362654
      9          1           0       -3.142699   -3.065994    0.981565
     10          1           0       -4.582738   -3.579848    0.086270
     11          6           0       -2.879175    0.729537   -0.862480
     12          6           0       -2.185267    1.945885   -0.248498
     13          6           0       -1.932222    3.058432   -1.266339
     14          1           0       -2.263361    0.341546   -1.685663
     15          1           0       -3.832747    1.045189   -1.307463
     16          1           0       -1.233326    1.627266    0.195243
     17          1           0       -2.801538    2.330629    0.574180
     18          1           0       -2.875433    3.404358   -1.701413
     19          1           0       -1.298311    2.696998   -2.082502
     20          1           0       -1.435394    3.918211   -0.806118
     21          6           0        3.638779   -1.636028   -1.282631
     22          6           0        3.844997   -0.252900   -1.313498
     23          6           0        3.136949    0.589935   -0.451613
     24          6           0        2.226319    0.013214    0.432375
     25          6           0        1.998692   -1.361008    0.487061
     26          6           0        2.717908   -2.184700   -0.384035
     27          1           0        4.193145   -2.283327   -1.955743
     28          1           0        4.559524    0.175987   -2.010315
     29          1           0        3.277038    1.664079   -0.454391
     30          1           0        1.279736   -1.759243    1.192701
     31          1           0        2.555706   -3.258502   -0.357850
     32          7           0        1.470830    0.895352    1.349690
     33          8           0        0.674203    0.362524    2.119182
     34          8           0        1.689607    2.102898    1.281820
 ---------------------------------------------------------------------

 SCF Done:  E(RHF) =  -669.536036237     A.U. after   15 cycles
 E2 =    -0.2092051028D+01 EUMP2 =    -0.67162808726456D+03

 The electronic state is 1-A.
 Alpha  occ. eigenvalues --  -20.60974 -20.60969 -15.85987 -11.31318 -11.27884
 Alpha  occ. eigenvalues --  -11.27876 -11.27616 -11.26886 -11.26876 -11.21233
 Alpha  occ. eigenvalues --  -11.20806 -11.20785 -11.20725 -11.20658 -11.20316
 Alpha  occ. eigenvalues --   -1.60034  -1.39585  -1.19487  -1.08891  -1.07822
 Alpha  occ. eigenvalues --   -1.04882  -1.02941  -0.95731  -0.95412  -0.86437
 Alpha  occ. eigenvalues --   -0.86282  -0.82564  -0.79000  -0.77629  -0.77580
 Alpha  occ. eigenvalues --   -0.72207  -0.71368  -0.70593  -0.65140  -0.64882
 Alpha  occ. eigenvalues --   -0.64463  -0.62228  -0.60353  -0.58780  -0.56988
 Alpha  occ. eigenvalues --   -0.55384  -0.54726  -0.53215  -0.52972  -0.52112
 Alpha  occ. eigenvalues --   -0.51832  -0.49395  -0.48978  -0.48973  -0.47303
 Alpha  occ. eigenvalues --   -0.46036  -0.45268  -0.45115  -0.44777  -0.43183
 Alpha  occ. eigenvalues --   -0.37465  -0.36482
 Alpha virt. eigenvalues --    0.04867   0.11158   0.16344   0.21202   0.23282
 Alpha virt. eigenvalues --    0.24799   0.26560   0.27364   0.27746   0.28471
 Alpha virt. eigenvalues --    0.28714   0.31056   0.31675   0.32195   0.32476

 Mulliken charges:
               1
     1  C   -0.299284
     2  C   -0.299207
     3  C   -0.474310
     4  H    0.154663
     5  H    0.151630
     6  H    0.147562
     7  H    0.151062
     8  H    0.156935
     9  H    0.152276
    10  H    0.157547
    11  C   -0.298468
    12  C   -0.301589
    13  C   -0.475433
    14  H    0.143809
    15  H    0.146923
    16  H    0.162109
    17  H    0.154274
    18  H    0.151142
    19  H    0.148921
    20  H    0.165603
    21  C   -0.170520
    22  C   -0.218601
    23  C   -0.170762
    24  C    0.157644
    25  C   -0.171413
    26  C   -0.218538
    27  H    0.226178
    28  H    0.224026
    29  H    0.276137
    30  H    0.275826
    31  H    0.224036
    32  N    0.486768
    33  O   -0.458817
    34  O   -0.458132
 Sum of Mulliken charges =  -0.00000

 Dipole moment (field-independent basis, Debye):
    X=              2.8342    Y=             -3.0303    Z=             -3.0813  Tot=              5.1681
 Quadrupole moment (field-independent basis, Debye-Ang):
   XX=            -81.8166   YY=            -92.6090   ZZ=            -98.0138
   XY=             -5.6784   XZ=             -7.7952   YZ=             -2.2409

 Normal termination of Gaussian 16 at Wed May  5 22:03:04 2021.
