 Gaussian 16, Revision A.03,
 Gaussian 16:  EM64L-G16RevA.03 25-Dec-2016

 -------------
 #p 6-31g* mp2
 -------------

 ------------------------------------------------------
 Input file generated by CHIRIPA (05-May-2021 14:55:23)
 ------------------------------------------------------
 Symbolic Z-matrix:
 Charge =  0 Multiplicity = 1

                         Standard orientation:
 ---------------------------------------------------------------------
 Center     Atomic      Atomic             Coordinates (Angstroms)
 Number     Number       Type             X           Y           Z
 ---------------------------------------------------------------------
      1          6           0       -1.988422    2.132293    0.318881
      2          6           0       -2.701000    1.840100   -0.848756
      3          6           0       -3.348856    0.610012   -0.996114
      4          6           0       -3.263044   -0.308747    0.048782
      5          6           0       -2.560880   -0.047125    1.224287
      6          6           0       -1.920756    1.189410    1.349858
      7          1           0       -1.488156    3.090360    0.424890
      8          1           0       -2.755252    2.570444   -1.651065
      9          1           0       -3.907389    0.357777   -1.889331
     10          1           0       -2.524726   -0.795302    2.006810
     11          1           0       -1.368080    1.413604    2.257785
     12          7           0       -3.944807   -1.614399   -0.095687
     13          8           0       -3.854071   -2.406828    0.839439
     14          8           0       -4.557000   -1.820617   -1.141311
     15          6           0        3.796784    0.840993   -0.006246
     16          6           0        2.295732    1.019474   -0.236399
     17          6           0        1.838621    2.467754   -0.059398
     18          1           0        4.049653    1.185723    1.005764
     19          1           0        4.347039    1.487947   -0.703431
     20          1           0        1.748493    0.371341    0.460072
     21          1           0        2.046375    0.674101   -1.247911
     22          1           0        2.358479    3.124678   -0.764238
     23          1           0        2.058905    2.820198    0.953449
     24          1           0        0.762391    2.572576   -0.228517
     25          6           0        4.268958   -0.601481   -0.179592
     26          6           0        5.770011   -0.779961    0.050562
     27          6           0        6.227122   -2.228241   -0.126439
     28          1           0        3.718704   -1.248435    0.517593
     29          1           0        4.016089   -0.946210   -1.191601
     30          1           0        6.019368   -0.434588    1.062074
     31          1           0        6.317249   -0.131829   -0.645909
     32          1           0        6.006838   -2.580685   -1.139286
     33          1           0        5.707265   -2.885165    0.578401
     34          1           0        7.303352   -2.333063    0.042680
 ---------------------------------------------------------------------

 SCF Done:  E(RHF) =  -669.535045480     A.U. after   15 cycles
 E2 =    -0.2091943987D+01 EUMP2 =    -0.67162698946717D+03

 The electronic state is 1-A.
 Alpha  occ. eigenvalues --  -20.60787 -20.60782 -15.85842 -11.31222 -11.27797
 Alpha  occ. eigenvalues --  -11.27793 -11.27524 -11.26817 -11.26806 -11.22109
 Alpha  occ. eigenvalues --  -11.21836 -11.21799 -11.21789 -11.21654 -11.21232
 Alpha  occ. eigenvalues --   -1.59863  -1.39416  -1.19403  -1.08825  -1.08775
 Alpha  occ. eigenvalues --   -1.04804  -1.03930  -0.96407  -0.95625  -0.87425
 Alpha  occ. eigenvalues --   -0.86200  -0.82459  -0.79994  -0.78585  -0.77497
 Alpha  occ. eigenvalues --   -0.72060  -0.71186  -0.70545  -0.65432  -0.65054
 Alpha  occ. eigenvalues --   -0.64806  -0.62149  -0.61326  -0.59830  -0.58019
 Alpha  occ. eigenvalues --   -0.55687  -0.55342  -0.53351  -0.52957  -0.52894
 Alpha  occ. eigenvalues --   -0.52675  -0.50334  -0.48820  -0.48814  -0.48304
 Alpha  occ. eigenvalues --   -0.47017  -0.46135  -0.46047  -0.44818  -0.44188
 Alpha  occ. eigenvalues --   -0.37329  -0.36406
 Alpha virt. eigenvalues --    0.04994   0.11212   0.16377   0.20844   0.22638
 Alpha virt. eigenvalues --    0.24129   0.26260   0.26905   0.27138   0.27254
 Alpha virt. eigenvalues --    0.28622   0.30356   0.31039   0.31658   0.32364

 Mulliken charges:
               1
     1  C   -0.169767
     2  C   -0.220025
     3  C   -0.170564
     4  C    0.158899
     5  C   -0.171135
     6  C   -0.218061
     7  H    0.227514
     8  H    0.223923
     9  H    0.275805
    10  H    0.275697
    11  H    0.224242
    12  N    0.488076
    13  O   -0.460358
    14  O   -0.460312
    15  C   -0.298805
    16  C   -0.297732
    17  C   -0.481519
    18  H    0.148805
    19  H    0.150001
    20  H    0.152104
    21  H    0.154627
    22  H    0.156988
    23  H    0.152246
    24  H    0.155908
    25  C   -0.298653
    26  C   -0.299896
    27  C   -0.475969
    28  H    0.150334
    29  H    0.151092
    30  H    0.151637
    31  H    0.152008
    32  H    0.156064
    33  H    0.156010
    34  H    0.160815
 Sum of Mulliken charges =  -0.00000

 Dipole moment (field-independent basis, Debye):
    X=              2.4309    Y=              4.5356    Z=              0.4833  Tot=              5.1686
 Quadrupole moment (field-independent basis, Debye-Ang):
   XX=           -110.6110   YY=            -99.0191   ZZ=            -89.7058
   XY=            -16.0720   XZ=             -0.0656   YZ=             -1.6507

 Normal termination of Gaussian 16 at Thu May  6 03:08:38 2021.
