 Gaussian 16, Revision A.03,
 Gaussian 16:  EM64L-G16RevA.03 25-Dec-2016

 -------------
 #p 6-31g* mp2
 -------------

 ------------------------------------------------------
 Input file generated by CHIRIPA (05-May-2021 14:55:20)
 ------------------------------------------------------
 Symbolic Z-matrix:
 Charge =  0 Multiplicity = 1

                         Standard orientation:
 ---------------------------------------------------------------------
 Center     Atomic      Atomic             Coordinates (Angstroms)
 Number     Number       Type             X           Y           Z
 ---------------------------------------------------------------------
      1          6           0       -0.593487   -1.281319    0.958906
      2          6           0       -0.875065    0.087290    1.023273
      3          6           0       -2.102497    0.581629    0.572065
      4          6           0       -3.029453   -0.324994    0.060128
      5          6           0       -2.778481   -1.694053   -0.017199
      6          6           0       -1.544417   -2.166063    0.439791
      7          1           0        0.362588   -1.656660    1.311661
      8          1           0       -0.138455    0.776719    1.425937
      9          1           0       -2.346580    1.636325    0.610251
     10          1           0       -3.532731   -2.356819   -0.423731
     11          1           0       -1.328474   -3.229450    0.388582
     12          7           0       -4.332391    0.186521   -0.420606
     13          8           0       -5.132189   -0.632892   -0.867286
     14          8           0       -4.529164    1.397173   -0.341622
     15          6           0        4.178692    0.109934    0.105256
     16          6           0        4.585514   -1.058537   -0.793164
     17          6           0        5.738761   -1.877268   -0.212221
     18          1           0        5.048705    0.761444    0.265125
     19          1           0        3.893098   -0.278089    1.092813
     20          1           0        4.868934   -0.668551   -1.779166
     21          1           0        3.714383   -1.707238   -0.951070
     22          1           0        5.463091   -2.293697    0.762045
     23          1           0        6.624202   -1.249108   -0.070757
     24          1           0        6.013354   -2.707356   -0.870562
     25          6           0        3.026973    0.937868   -0.462014
     26          6           0        2.620151    2.106339    0.436405
     27          6           0        1.466904    2.925070   -0.144538
     28          1           0        3.312567    1.325891   -1.449571
     29          1           0        2.156960    0.286358   -0.621884
     30          1           0        3.491281    2.755040    0.594311
     31          1           0        2.336731    1.716353    1.422407
     32          1           0        0.581464    2.296910   -0.286003
     33          1           0        1.742574    3.341499   -1.118804
     34          1           0        1.192311    3.755158    0.513803
 ---------------------------------------------------------------------

 SCF Done:  E(RHF) =  -669.535033137     A.U. after   15 cycles
 E2 =    -0.2092960172D+01 EUMP2 =    -0.67162799330977D+03

 The electronic state is 1-A.
 Alpha  occ. eigenvalues --  -20.60791 -20.60785 -15.85844 -11.31241 -11.27810
 Alpha  occ. eigenvalues --  -11.27797 -11.27556 -11.26833 -11.26786 -11.22560
 Alpha  occ. eigenvalues --  -11.22331 -11.22221 -11.22163 -11.21862 -11.21716
 Alpha  occ. eigenvalues --   -1.59865  -1.39418  -1.19417  -1.09269  -1.08802
 Alpha  occ. eigenvalues --   -1.04834  -1.04333  -0.96769  -0.95634  -0.87780
 Alpha  occ. eigenvalues --   -0.86216  -0.82467  -0.80398  -0.79058  -0.77513
 Alpha  occ. eigenvalues --   -0.72062  -0.71188  -0.70520  -0.66038  -0.65068
 Alpha  occ. eigenvalues --   -0.64779  -0.62373  -0.61513  -0.60128  -0.58367
 Alpha  occ. eigenvalues --   -0.56109  -0.55280  -0.53447  -0.53233  -0.53105
 Alpha  occ. eigenvalues --   -0.52849  -0.50713  -0.48830  -0.48815  -0.48681
 Alpha  occ. eigenvalues --   -0.47464  -0.46586  -0.46543  -0.44816  -0.44583
 Alpha  occ. eigenvalues --   -0.37385  -0.36387
 Alpha virt. eigenvalues --    0.04982   0.11128   0.16338   0.19035   0.22751
 Alpha virt. eigenvalues --    0.23681   0.25450   0.26287   0.26520   0.28600
 Alpha virt. eigenvalues --    0.29278   0.30129   0.30906   0.31277   0.32008

 Mulliken charges:
               1
     1  C   -0.173880
     2  C   -0.222086
     3  C   -0.173109
     4  C    0.158869
     5  C   -0.170845
     6  C   -0.218573
     7  H    0.226060
     8  H    0.233344
     9  H    0.276970
    10  H    0.275915
    11  H    0.223738
    12  N    0.488064
    13  O   -0.460326
    14  O   -0.459915
    15  C   -0.298238
    16  C   -0.299668
    17  C   -0.475901
    18  H    0.152949
    19  H    0.144045
    20  H    0.155217
    21  H    0.149048
    22  H    0.153516
    23  H    0.157349
    24  H    0.162282
    25  C   -0.301836
    26  C   -0.302792
    27  C   -0.483910
    28  H    0.154435
    29  H    0.149486
    30  H    0.157874
    31  H    0.142618
    32  H    0.155337
    33  H    0.162076
    34  H    0.161891
 Sum of Mulliken charges =  -0.00000

 Dipole moment (field-independent basis, Debye):
    X=              4.6903    Y=             -1.7688    Z=              1.5903  Tot=              5.2590
 Quadrupole moment (field-independent basis, Debye-Ang):
   XX=           -122.3562   YY=            -89.1786   ZZ=            -94.9222
   XY=              6.6258   XZ=             -5.4109   YZ=              0.3916

 Normal termination of Gaussian 16 at Thu May  6 09:16:58 2021.
