 Gaussian 16, Revision A.03,
 Gaussian 16:  EM64L-G16RevA.03 25-Dec-2016

 -------------
 #p 6-31g* mp2
 -------------

 ------------------------------------------------------
 Input file generated by CHIRIPA (05-May-2021 14:51:11)
 ------------------------------------------------------
 Symbolic Z-matrix:
 Charge =  0 Multiplicity = 1

                         Standard orientation:
 ---------------------------------------------------------------------
 Center     Atomic      Atomic             Coordinates (Angstroms)
 Number     Number       Type             X           Y           Z
 ---------------------------------------------------------------------
      1          6           0        3.055318    0.585440    0.311078
      2          6           0        3.518300    1.985448   -0.093407
      3          6           0        3.766178    2.896561    1.109183
      4          1           0        2.135503    0.667997    0.906114
      5          1           0        3.811775    0.131700    0.966279
      6          1           0        2.761840    2.435875   -0.748769
      7          1           0        4.437015    1.899536   -0.687712
      8          1           0        4.536454    2.472528    1.761465
      9          1           0        2.851761    3.011914    1.700061
     10          1           0        4.096353    3.892295    0.797161
     11          6           0        2.803377   -0.337081   -0.880228
     12          6           0        2.340395   -1.737090   -0.475743
     13          6           0        2.092518   -2.648203   -1.678333
     14          1           0        2.046921    0.116658   -1.535430
     15          1           0        3.723193   -0.419639   -1.475265
     16          1           0        1.421680   -1.651178    0.118562
     17          1           0        3.096856   -2.187517    0.179619
     18          1           0        3.006935   -2.763556   -2.269211
     19          1           0        1.322241   -2.224170   -2.330615
     20          1           0        1.762342   -3.643937   -1.366311
     21          6           0       -3.002635    0.519161   -0.120610
     22          6           0       -4.457514    0.935961   -0.338757
     23          6           0       -4.587783    2.224790   -1.151002
     24          1           0       -2.467721    1.331660    0.389936
     25          1           0       -2.515414    0.389220   -1.096892
     26          1           0       -4.942229    1.063731    0.637636
     27          1           0       -4.989075    0.122297   -0.848671
     28          1           0       -4.129532    2.105997   -2.138168
     29          1           0       -4.082420    3.052780   -0.643416
     30          1           0       -5.636101    2.504336   -1.295027
     31          6           0       -2.856061   -0.767519    0.689760
     32          6           0       -1.401182   -1.184319    0.907907
     33          6           0       -1.270912   -2.473149    1.720152
     34          1           0       -3.343281   -0.637579    1.666042
     35          1           0       -3.390974   -1.580019    0.179215
     36          1           0       -0.869620   -0.370656    1.417822
     37          1           0       -0.916466   -1.312090   -0.068485
     38          1           0       -1.776275   -3.301139    1.212567
     39          1           0       -1.729163   -2.354355    2.707318
     40          1           0       -0.222594   -2.752695    1.864177
 ---------------------------------------------------------------------

 SCF Done:  E(RHF) =  -470.732911879     A.U. after   11 cycles
 E2 =    -0.1583670113D+01 EUMP2 =    -0.47231658199279D+03

 The electronic state is 1-A.
 Alpha  occ. eigenvalues --  -11.21681 -11.21646 -11.21578 -11.21491 -11.21466
 Alpha  occ. eigenvalues --  -11.21407 -11.21367 -11.21306 -11.21120 -11.21108
 Alpha  occ. eigenvalues --  -11.21060 -11.21058  -1.08503  -1.08384  -1.03619
 Alpha  occ. eigenvalues --   -1.03474  -0.96042  -0.95948  -0.87049  -0.86969
 Alpha  occ. eigenvalues --   -0.79713  -0.79527  -0.78365  -0.78152  -0.65173
 Alpha  occ. eigenvalues --   -0.64996  -0.61140  -0.60807  -0.59479  -0.59234
 Alpha  occ. eigenvalues --   -0.57709  -0.57492  -0.55343  -0.55211  -0.52735
 Alpha  occ. eigenvalues --   -0.52640  -0.52467  -0.52373  -0.49984  -0.49884
 Alpha  occ. eigenvalues --   -0.48020  -0.47861  -0.46802  -0.46486  -0.45991
 Alpha  occ. eigenvalues --   -0.45769  -0.45709  -0.45458  -0.43843  -0.43748
 Alpha virt. eigenvalues --    0.20781   0.23181   0.23537   0.24308   0.25858
 Alpha virt. eigenvalues --    0.26443   0.26827   0.27754   0.28144   0.29211
 Alpha virt. eigenvalues --    0.30703   0.30876   0.31550   0.31771   0.32516

 Mulliken charges:
               1
     1  C   -0.299453
     2  C   -0.299664
     3  C   -0.475626
     4  H    0.150553
     5  H    0.149320
     6  H    0.152058
     7  H    0.151912
     8  H    0.155134
     9  H    0.154867
    10  H    0.160200
    11  C   -0.297341
    12  C   -0.311825
    13  C   -0.475778
    14  H    0.149165
    15  H    0.149388
    16  H    0.166204
    17  H    0.151176
    18  H    0.155310
    19  H    0.154154
    20  H    0.160203
    21  C   -0.298361
    22  C   -0.299708
    23  C   -0.475755
    24  H    0.149403
    25  H    0.149249
    26  H    0.152106
    27  H    0.152135
    28  H    0.155188
    29  H    0.155192
    30  H    0.160472
    31  C   -0.297620
    32  C   -0.304590
    33  C   -0.478739
    34  H    0.149774
    35  H    0.150088
    36  H    0.152299
    37  H    0.154479
    38  H    0.155687
    39  H    0.155801
    40  H    0.162941
 Sum of Mulliken charges =  -0.00000

 Dipole moment (field-independent basis, Debye):
    X=             -0.0428    Y=             -0.0097    Z=              0.0175  Tot=              0.0473
 Quadrupole moment (field-independent basis, Debye-Ang):
   XX=            -83.9985   YY=            -85.8492   ZZ=            -84.9700
   XY=             -0.1891   XZ=             -0.2428   YZ=              0.3506

 Normal termination of Gaussian 16 at Wed May  5 18:15:24 2021.
