 Gaussian 16, Revision A.03,
 Gaussian 16:  EM64L-G16RevA.03 25-Dec-2016

 -------------
 #p 6-31g* mp2
 -------------

 ------------------------------------------------------
 Input file generated by CHIRIPA (05-May-2021 14:55:24)
 ------------------------------------------------------
 Symbolic Z-matrix:
 Charge =  0 Multiplicity = 1

                         Standard orientation:
 ---------------------------------------------------------------------
 Center     Atomic      Atomic             Coordinates (Angstroms)
 Number     Number       Type             X           Y           Z
 ---------------------------------------------------------------------
      1          6           0       -3.703226    2.338010    0.900725
      2          6           0       -4.581493    1.648708    0.058092
      3          6           0       -4.210654    0.424106   -0.505270
      4          6           0       -2.948270   -0.084291   -0.203262
      5          6           0       -2.050949    0.578631    0.632585
      6          6           0       -2.442979    1.801717    1.184782
      7          1           0       -3.999534    3.288721    1.334021
      8          1           0       -5.560844    2.062802   -0.164267
      9          1           0       -4.870918   -0.130570   -1.160864
     10          1           0       -1.081281    0.140575    0.835731
     11          1           0       -1.758845    2.334832    1.838841
     12          7           0       -2.544462   -1.379920   -0.793758
     13          8           0       -1.426730   -1.806487   -0.512061
     14          8           0       -3.353336   -1.944334   -1.527105
     15          6           0        3.328687   -0.711876    0.075368
     16          6           0        3.047509   -1.432022    1.394578
     17          6           0        1.984432   -2.522430    1.257930
     18          1           0        2.395295   -0.270917   -0.300504
     19          1           0        3.650985   -1.447566   -0.674485
     20          1           0        2.727165   -0.695001    2.142106
     21          1           0        3.981716   -1.871155    1.767450
     22          1           0        2.299843   -3.279192    0.532376
     23          1           0        1.038164   -2.096357    0.909160
     24          1           0        1.799062   -3.024298    2.212720
     25          6           0        4.389258    0.381011    0.195842
     26          6           0        4.670435    1.101157   -1.123367
     27          6           0        5.733512    2.191565   -0.986719
     28          1           0        4.066959    1.116701    0.945695
     29          1           0        5.322649   -0.059948    0.571715
     30          1           0        3.736229    1.540290   -1.496240
     31          1           0        4.990779    0.364137   -1.870895
     32          1           0        6.679780    1.765492   -0.637950
     33          1           0        5.418101    2.948328   -0.261166
     34          1           0        5.918883    2.693434   -1.941509
 ---------------------------------------------------------------------

 SCF Done:  E(RHF) =  -669.535884404     A.U. after   15 cycles
 E2 =    -0.2091160985D+01 EUMP2 =    -0.67162704538959D+03

 The electronic state is 1-A.
 Alpha  occ. eigenvalues --  -20.60897 -20.60890 -15.85941 -11.31281 -11.27855
 Alpha  occ. eigenvalues --  -11.27841 -11.27585 -11.26859 -11.26849 -11.21452
 Alpha  occ. eigenvalues --  -11.21196 -11.21184 -11.21016 -11.20990 -11.20217
 Alpha  occ. eigenvalues --   -1.59963  -1.39519  -1.19451  -1.08850  -1.08145
 Alpha  occ. eigenvalues --   -1.04852  -1.03189  -0.95699  -0.95601  -0.86616
 Alpha  occ. eigenvalues --   -0.86251  -0.82526  -0.79258  -0.77945  -0.77570
 Alpha  occ. eigenvalues --   -0.72167  -0.71279  -0.70561  -0.65110  -0.64866
 Alpha  occ. eigenvalues --   -0.64781  -0.62204  -0.60593  -0.59011  -0.57215
 Alpha  occ. eigenvalues --   -0.55353  -0.54892  -0.53181  -0.52945  -0.52301
 Alpha  occ. eigenvalues --   -0.52005  -0.49562  -0.48913  -0.48897  -0.47541
 Alpha  occ. eigenvalues --   -0.46301  -0.45465  -0.45413  -0.44926  -0.43456
 Alpha  occ. eigenvalues --   -0.37430  -0.36454
 Alpha virt. eigenvalues --    0.04959   0.11199   0.16458   0.20426   0.22801
 Alpha virt. eigenvalues --    0.24024   0.26240   0.27388   0.27555   0.28122
 Alpha virt. eigenvalues --    0.29065   0.30437   0.31552   0.32026   0.32211

 Mulliken charges:
               1
     1  C   -0.170512
     2  C   -0.218592
     3  C   -0.170754
     4  C    0.157708
     5  C   -0.171124
     6  C   -0.219239
     7  H    0.225973
     8  H    0.223812
     9  H    0.275866
    10  H    0.277141
    11  H    0.223930
    12  N    0.494693
    13  O   -0.467348
    14  O   -0.459232
    15  C   -0.297489
    16  C   -0.299843
    17  C   -0.485380
    18  H    0.148942
    19  H    0.152610
    20  H    0.143622
    21  H    0.150311
    22  H    0.157711
    23  H    0.176013
    24  H    0.155776
    25  C   -0.297577
    26  C   -0.299217
    27  C   -0.475357
    28  H    0.145164
    29  H    0.149664
    30  H    0.150784
    31  H    0.153577
    32  H    0.155366
    33  H    0.153088
    34  H    0.159913
 Sum of Mulliken charges =  -0.00000

 Dipole moment (field-independent basis, Debye):
    X=             -1.5953    Y=              4.4870    Z=              1.9790  Tot=              5.1570
 Quadrupole moment (field-independent basis, Debye-Ang):
   XX=            -82.8871   YY=            -96.2837   ZZ=            -95.3893
   XY=            -14.5778   XZ=             -3.9414   YZ=             -0.4613

 Normal termination of Gaussian 16 at Thu May  6 20:54:57 2021.
