 Gaussian 16, Revision A.03,
 Gaussian 16:  EM64L-G16RevA.03 25-Dec-2016

 -------------
 #p 6-31g* mp2
 -------------

 ------------------------------------------------------
 Input file generated by CHIRIPA (05-May-2021 14:53:18)
 ------------------------------------------------------
 Symbolic Z-matrix:
 Charge =  0 Multiplicity = 1

                         Standard orientation:
 ---------------------------------------------------------------------
 Center     Atomic      Atomic             Coordinates (Angstroms)
 Number     Number       Type             X           Y           Z
 ---------------------------------------------------------------------
      1          6           0       -2.494688    0.911319   -0.528926
      2          6           0       -1.943584    2.266449   -0.084075
      3          6           0       -0.663961    2.656185   -0.824659
      4          1           0       -1.728032    0.140706   -0.369740
      5          1           0       -2.689710    0.939603   -1.609927
      6          1           0       -1.750960    2.236063    0.996012
      7          1           0       -2.711709    3.033894   -0.244160
      8          1           0       -0.845301    2.714244   -1.902781
      9          1           0        0.120906    1.911880   -0.655562
     10          1           0       -0.287289    3.628172   -0.491162
     11          6           0       -3.773782    0.507858    0.202419
     12          6           0       -4.324886   -0.847272   -0.242433
     13          6           0       -5.604509   -1.237009    0.498151
     14          1           0       -3.578760    0.479573    1.283419
     15          1           0       -4.540437    1.278471    0.043233
     16          1           0       -3.556761   -1.614718   -0.082347
     17          1           0       -4.517509   -0.816887   -1.322520
     18          1           0       -6.389376   -0.492703    0.329054
     19          1           0       -5.423168   -1.295067    1.576273
     20          1           0       -5.981181   -2.208995    0.164654
     21          6           0        0.247101   -1.784517    0.050340
     22          6           0        0.489245   -0.845402    1.058284
     23          6           0        1.705422   -0.157869    1.110836
     24          6           0        2.661456   -0.435440    0.135005
     25          6           0        2.450013   -1.365364   -0.881765
     26          6           0        1.226530   -2.041048   -0.914766
     27          1           0       -0.700492   -2.314006    0.017111
     28          1           0       -0.269561   -0.644143    1.809119
     29          1           0        1.919188    0.574225    1.880095
     30          1           0        3.225723   -1.544567   -1.616325
     31          1           0        1.041235   -2.769846   -1.698707
     32          7           0        3.952835    0.286149    0.180291
     33          8           0        4.778813    0.023524   -0.691159
     34          8           0        4.114586    1.100692    1.086378
 ---------------------------------------------------------------------

 SCF Done:  E(RHF) =  -669.534038024     A.U. after   15 cycles
 E2 =    -0.2095003172D+01 EUMP2 =    -0.67162904119526D+03

 The electronic state is 1-A.
 Alpha  occ. eigenvalues --  -20.60838 -20.60832 -15.85895 -11.31319 -11.27880
 Alpha  occ. eigenvalues --  -11.27875 -11.27613 -11.26903 -11.26886 -11.22478
 Alpha  occ. eigenvalues --  -11.22081 -11.22011 -11.21807 -11.21787 -11.21192
 Alpha  occ. eigenvalues --   -1.59913  -1.39464  -1.19503  -1.09079  -1.08859
 Alpha  occ. eigenvalues --   -1.04908  -1.04078  -0.96501  -0.95706  -0.87514
 Alpha  occ. eigenvalues --   -0.86299  -0.82532  -0.80176  -0.78858  -0.77569
 Alpha  occ. eigenvalues --   -0.72111  -0.71237  -0.70606  -0.65801  -0.65137
 Alpha  occ. eigenvalues --   -0.64838  -0.62245  -0.61507  -0.59885  -0.58111
 Alpha  occ. eigenvalues --   -0.55798  -0.55400  -0.53306  -0.53164  -0.52983
 Alpha  occ. eigenvalues --   -0.52916  -0.50464  -0.48874  -0.48862  -0.48461
 Alpha  occ. eigenvalues --   -0.47239  -0.46362  -0.46312  -0.44857  -0.44329
 Alpha  occ. eigenvalues --   -0.37369  -0.36449
 Alpha virt. eigenvalues --    0.04921   0.11046   0.16319   0.19040   0.23042
 Alpha virt. eigenvalues --    0.23372   0.25262   0.25651   0.27117   0.28115
 Alpha virt. eigenvalues --    0.29793   0.30470   0.31173   0.31331   0.32274

 Mulliken charges:
               1
     1  C   -0.307786
     2  C   -0.298068
     3  C   -0.480609
     4  H    0.154267
     5  H    0.150550
     6  H    0.145811
     7  H    0.153727
     8  H    0.155348
     9  H    0.160222
    10  H    0.162879
    11  C   -0.298449
    12  C   -0.298882
    13  C   -0.475709
    14  H    0.144895
    15  H    0.153514
    16  H    0.140349
    17  H    0.155092
    18  H    0.158675
    19  H    0.154863
    20  H    0.161161
    21  C   -0.173092
    22  C   -0.217594
    23  C   -0.172739
    24  C    0.159273
    25  C   -0.170558
    26  C   -0.218904
    27  H    0.230256
    28  H    0.225608
    29  H    0.276625
    30  H    0.276336
    31  H    0.224617
    32  N    0.488153
    33  O   -0.459938
    34  O   -0.459893
 Sum of Mulliken charges =  -0.00000

 Dipole moment (field-independent basis, Debye):
    X=             -4.4897    Y=             -2.5425    Z=             -0.2126  Tot=              5.1640
 Quadrupole moment (field-independent basis, Debye-Ang):
   XX=           -119.3605   YY=            -91.7940   ZZ=            -91.4171
   XY=             -6.4246   XZ=             -1.5353   YZ=              1.9146

 Normal termination of Gaussian 16 at Thu May  6 01:16:23 2021.
