 Gaussian 16, Revision A.03,
 Gaussian 16:  EM64L-G16RevA.03 25-Dec-2016

 -------------
 #p 6-31g* mp2
 -------------

 ------------------------------------------------------
 Input file generated by CHIRIPA (05-May-2021 14:51:13)
 ------------------------------------------------------
 Symbolic Z-matrix:
 Charge =  0 Multiplicity = 1

                         Standard orientation:
 ---------------------------------------------------------------------
 Center     Atomic      Atomic             Coordinates (Angstroms)
 Number     Number       Type             X           Y           Z
 ---------------------------------------------------------------------
      1          6           0        5.270289   -0.567793    0.201266
      2          6           0        6.688526   -0.356142   -0.329575
      3          6           0        7.673902   -1.407917    0.180913
      4          1           0        5.290389   -0.550993    1.299564
      5          1           0        4.922934   -1.568825   -0.089722
      6          1           0        7.032580    0.644721   -0.038856
      7          1           0        6.665019   -0.373257   -1.426740
      8          1           0        7.357290   -2.411356   -0.121525
      9          1           0        7.726940   -1.387595    1.274245
     10          1           0        8.681564   -1.237633   -0.210852
     11          6           0        4.273697    0.475774   -0.300231
     12          6           0        2.855460    0.264123    0.230610
     13          6           0        1.870085    1.315898   -0.279878
     14          1           0        4.621052    1.476807   -0.009243
     15          1           0        4.253598    0.458974   -1.398529
     16          1           0        2.878968    0.281238    1.327775
     17          1           0        2.511407   -0.736739   -0.060109
     18          1           0        1.817047    1.295576   -1.373210
     19          1           0        2.186697    2.319337    0.022559
     20          1           0        0.862422    1.145614    0.111887
     21          6           0       -5.376880   -0.176135   -0.360634
     22          6           0       -6.359794   -1.041617    0.428547
     23          6           0       -7.564639   -1.478164   -0.405461
     24          1           0       -5.902308    0.710712   -0.740598
     25          1           0       -5.031296   -0.735726   -1.240875
     26          1           0       -6.702362   -0.481080    1.307787
     27          1           0       -5.831919   -1.926411    0.806839
     28          1           0       -7.241054   -2.059650   -1.274810
     29          1           0       -8.116442   -0.606107   -0.771016
     30          1           0       -8.254337   -2.095829    0.178207
     31          6           0       -4.167107    0.268154    0.459599
     32          6           0       -3.184193    1.133636   -0.329582
     33          6           0       -1.979347    1.570183    0.504426
     34          1           0       -4.512691    0.827745    1.339840
     35          1           0       -3.641678   -0.618692    0.839563
     36          1           0       -3.712068    2.018430   -0.707873
     37          1           0       -2.841625    0.573099   -1.208821
     38          1           0       -1.427544    0.698126    0.869981
     39          1           0       -2.302933    2.151669    1.373775
     40          1           0       -1.289650    2.187848   -0.079242
 ---------------------------------------------------------------------

 SCF Done:  E(RHF) =  -470.732565127     A.U. after   11 cycles
 E2 =    -0.1582567438D+01 EUMP2 =    -0.47231513256550D+03

 The electronic state is 1-A.
 Alpha  occ. eigenvalues --  -11.21612 -11.21607 -11.21572 -11.21527 -11.21414
 Alpha  occ. eigenvalues --  -11.21357 -11.21354 -11.21295 -11.21076 -11.21076
 Alpha  occ. eigenvalues --  -11.21049 -11.20877  -1.08442  -1.08376  -1.03556
 Alpha  occ. eigenvalues --   -1.03458  -0.96045  -0.95875  -0.87108  -0.86853
 Alpha  occ. eigenvalues --   -0.79662  -0.79489  -0.78253  -0.78193  -0.65075
 Alpha  occ. eigenvalues --   -0.65009  -0.60977  -0.60865  -0.59591  -0.59109
 Alpha  occ. eigenvalues --   -0.57620  -0.57523  -0.55299  -0.55199  -0.53052
 Alpha  occ. eigenvalues --   -0.52452  -0.52357  -0.52179  -0.49915  -0.49856
 Alpha  occ. eigenvalues --   -0.47933  -0.47836  -0.46629  -0.46572  -0.45796
 Alpha  occ. eigenvalues --   -0.45735  -0.45715  -0.45663  -0.43978  -0.43478
 Alpha virt. eigenvalues --    0.22513   0.22998   0.23705   0.24819   0.26589
 Alpha virt. eigenvalues --    0.26698   0.27149   0.27374   0.27609   0.28918
 Alpha virt. eigenvalues --    0.30378   0.31166   0.31462   0.31741   0.32233

 Mulliken charges:
               1
     1  C   -0.298159
     2  C   -0.299567
     3  C   -0.475660
     4  H    0.149521
     5  H    0.149276
     6  H    0.151882
     7  H    0.151843
     8  H    0.155085
     9  H    0.155129
    10  H    0.160143
    11  C   -0.298297
    12  C   -0.299198
    13  C   -0.485093
    14  H    0.149398
    15  H    0.149387
    16  H    0.151550
    17  H    0.150998
    18  H    0.153602
    19  H    0.154052
    20  H    0.172430
    21  C   -0.298308
    22  C   -0.299655
    23  C   -0.475710
    24  H    0.149707
    25  H    0.149548
    26  H    0.151943
    27  H    0.151936
    28  H    0.155185
    29  H    0.155198
    30  H    0.160272
    31  C   -0.298736
    32  C   -0.299581
    33  C   -0.480802
    34  H    0.149579
    35  H    0.149785
    36  H    0.152145
    37  H    0.152338
    38  H    0.155580
    39  H    0.155522
    40  H    0.165731
 Sum of Mulliken charges =  -0.00000

 Dipole moment (field-independent basis, Debye):
    X=             -0.0648    Y=              0.0178    Z=              0.0090  Tot=              0.0678
 Quadrupole moment (field-independent basis, Debye-Ang):
   XX=            -86.2645   YY=            -84.3269   ZZ=            -84.3681
   XY=             -0.1552   XZ=             -0.6104   YZ=              0.7650

 Normal termination of Gaussian 16 at Thu May  6 05:32:25 2021.
