 Gaussian 16, Revision A.03,
 Gaussian 16:  EM64L-G16RevA.03 25-Dec-2016

 -------------
 #p 6-31g* mp2
 -------------

 ------------------------------------------------------
 Input file generated by CHIRIPA (05-May-2021 14:51:08)
 ------------------------------------------------------
 Symbolic Z-matrix:
 Charge =  0 Multiplicity = 1

                         Standard orientation:
 ---------------------------------------------------------------------
 Center     Atomic      Atomic             Coordinates (Angstroms)
 Number     Number       Type             X           Y           Z
 ---------------------------------------------------------------------
      1          6           0       -1.995832   -0.864110    0.178372
      2          6           0       -2.251298   -1.672498    1.450862
      3          6           0       -1.352101   -2.904373    1.559139
      4          1           0       -2.150308   -1.510619   -0.696333
      5          1           0       -0.942153   -0.553278    0.155126
      6          1           0       -3.304514   -1.980538    1.472379
      7          1           0       -2.096383   -1.023938    2.322634
      8          1           0       -0.297050   -2.612052    1.563049
      9          1           0       -1.512046   -3.574087    0.707963
     10          1           0       -1.551489   -3.467606    2.476130
     11          6           0       -2.887140    0.370505    0.055803
     12          6           0       -2.631673    1.178892   -1.216688
     13          6           0       -3.530870    2.410767   -1.324965
     14          1           0       -3.940818    0.059672    0.079048
     15          1           0       -2.732664    1.017014    0.930507
     16          1           0       -2.786589    0.530332   -2.088460
     17          1           0       -1.578457    1.486932   -1.238205
     18          1           0       -3.370925    3.080482   -0.473788
     19          1           0       -4.585922    2.118446   -1.328874
     20          1           0       -3.331482    2.974001   -2.241955
     21          6           0        2.129901    0.736847    0.379102
     22          6           0        2.904052    2.049688    0.502083
     23          6           0        2.268364    3.019708    1.498454
     24          1           0        1.097455    0.954640    0.073217
     25          1           0        2.069236    0.261047    1.367702
     26          1           0        2.964432    2.522188   -0.486710
     27          1           0        3.934828    1.828730    0.807525
     28          1           0        2.222437    2.571796    2.496385
     29          1           0        1.246528    3.269195    1.194796
     30          1           0        2.837886    3.951525    1.570708
     31          6           0        2.753070   -0.243241   -0.613277
     32          6           0        1.978920   -1.556082   -0.736258
     33          6           0        2.614608   -2.526103   -1.732628
     34          1           0        2.813735    0.232558   -1.601876
     35          1           0        3.785517   -0.461034   -0.307391
     36          1           0        0.948144   -1.335125   -1.041700
     37          1           0        1.918540   -2.028583    0.252536
     38          1           0        3.636444   -2.775589   -1.428970
     39          1           0        2.660534   -2.078191   -2.730559
     40          1           0        2.045085   -3.457920   -1.804881
 ---------------------------------------------------------------------

 SCF Done:  E(RHF) =  -470.732476835     A.U. after   11 cycles
 E2 =    -0.1584864671D+01 EUMP2 =    -0.47231734150641D+03

 The electronic state is 1-A.
 Alpha  occ. eigenvalues --  -11.21666 -11.21651 -11.21560 -11.21556 -11.21476
 Alpha  occ. eigenvalues --  -11.21392 -11.21378 -11.21280 -11.21133 -11.21102
 Alpha  occ. eigenvalues --  -11.21053 -11.21001  -1.08509  -1.08393  -1.03575
 Alpha  occ. eigenvalues --   -1.03504  -0.96019  -0.95960  -0.87031  -0.86983
 Alpha  occ. eigenvalues --   -0.79716  -0.79525  -0.78534  -0.78011  -0.65240
 Alpha  occ. eigenvalues --   -0.64936  -0.60966  -0.60925  -0.59445  -0.59271
 Alpha  occ. eigenvalues --   -0.57674  -0.57535  -0.55312  -0.55250  -0.52714
 Alpha  occ. eigenvalues --   -0.52658  -0.52442  -0.52403  -0.49999  -0.49882
 Alpha  occ. eigenvalues --   -0.48173  -0.47750  -0.46705  -0.46664  -0.46500
 Alpha  occ. eigenvalues --   -0.45739  -0.45724  -0.44846  -0.43813  -0.43762
 Alpha virt. eigenvalues --    0.20357   0.22643   0.23573   0.24589   0.24824
 Alpha virt. eigenvalues --    0.25791   0.26971   0.27622   0.28564   0.30427
 Alpha virt. eigenvalues --    0.30556   0.31252   0.31706   0.31863   0.32063

 Mulliken charges:
               1
     1  C   -0.309555
     2  C   -0.298747
     3  C   -0.479365
     4  H    0.148468
     5  H    0.162505
     6  H    0.151477
     7  H    0.151630
     8  H    0.159608
     9  H    0.154660
    10  H    0.159556
    11  C   -0.297185
    12  C   -0.301778
    13  C   -0.475598
    14  H    0.149530
    15  H    0.149543
    16  H    0.152053
    17  H    0.151645
    18  H    0.155287
    19  H    0.155589
    20  H    0.160184
    21  C   -0.304561
    22  C   -0.299270
    23  C   -0.475748
    24  H    0.153921
    25  H    0.149063
    26  H    0.152231
    27  H    0.152449
    28  H    0.155230
    29  H    0.154728
    30  H    0.160677
    31  C   -0.297812
    32  C   -0.307928
    33  C   -0.475281
    34  H    0.149507
    35  H    0.149706
    36  H    0.159385
    37  H    0.153710
    38  H    0.154831
    39  H    0.154989
    40  H    0.160666
 Sum of Mulliken charges =  -0.00000

 Dipole moment (field-independent basis, Debye):
    X=              0.0268    Y=              0.0052    Z=             -0.0074  Tot=              0.0282
 Quadrupole moment (field-independent basis, Debye-Ang):
   XX=            -84.4774   YY=            -85.8703   ZZ=            -84.5078
   XY=              0.9587   XZ=              0.9224   YZ=             -0.3371

 Normal termination of Gaussian 16 at Wed May  5 22:56:17 2021.
