 Gaussian 16, Revision A.03,
 Gaussian 16:  EM64L-G16RevA.03 25-Dec-2016

 -------------
 #p 6-31g* mp2
 -------------

 ------------------------------------------------------
 Input file generated by CHIRIPA (05-May-2021 14:51:11)
 ------------------------------------------------------
 Symbolic Z-matrix:
 Charge =  0 Multiplicity = 1

                         Standard orientation:
 ---------------------------------------------------------------------
 Center     Atomic      Atomic             Coordinates (Angstroms)
 Number     Number       Type             X           Y           Z
 ---------------------------------------------------------------------
      1          6           0       -3.854797   -0.170588    0.270251
      2          6           0       -4.291048   -0.985642   -0.947681
      3          6           0       -5.777941   -0.824195   -1.265291
      4          1           0       -4.452254   -0.475149    1.140442
      5          1           0       -4.079650    0.890189    0.092520
      6          1           0       -4.064173   -2.044394   -0.768273
      7          1           0       -3.692351   -0.679240   -1.815031
      8          1           0       -6.016408    0.224454   -1.470401
      9          1           0       -6.390343   -1.148457   -0.417695
     10          1           0       -6.068243   -1.415377   -2.139413
     11          6           0       -2.370905   -0.321622    0.600374
     12          6           0       -1.934654    0.493431    1.818306
     13          6           0       -0.447760    0.331985    2.135916
     14          1           0       -2.146052   -1.382399    0.778105
     15          1           0       -1.773448   -0.017062   -0.269818
     16          1           0       -2.533351    0.187029    2.685656
     17          1           0       -2.161529    1.552183    1.638898
     18          1           0        0.164641    0.656246    1.288319
     19          1           0       -0.209293   -0.716664    2.341025
     20          1           0       -0.157458    0.923166    3.010038
     21          6           0        3.697541   -0.091345   -0.077966
     22          6           0        3.966610   -1.515034   -0.566535
     23          6           0        5.139234   -2.176891    0.157819
     24          1           0        4.603966    0.514053   -0.215199
     25          1           0        3.497073   -0.113564    1.002180
     26          1           0        4.165147   -1.490304   -1.645696
     27          1           0        3.059379   -2.117063   -0.428300
     28          1           0        4.946196   -2.230922    1.234117
     29          1           0        6.058247   -1.600602    0.009805
     30          1           0        5.314042   -3.193862   -0.206974
     31          6           0        2.528160    0.583556   -0.792658
     32          6           0        2.259092    2.007244   -0.304089
     33          6           0        1.086467    2.669102   -1.028443
     34          1           0        2.728628    0.605775   -1.872804
     35          1           0        1.621736   -0.021842   -0.655426
     36          1           0        3.166323    2.609273   -0.442324
     37          1           0        2.060555    1.982515    0.775071
     38          1           0        0.167455    2.092813   -0.880430
     39          1           0        1.279505    2.723133   -2.104741
     40          1           0        0.911659    3.686072   -0.663649
 ---------------------------------------------------------------------

 SCF Done:  E(RHF) =  -470.732580246     A.U. after   11 cycles
 E2 =    -0.1584202642D+01 EUMP2 =    -0.47231678288773D+03

 The electronic state is 1-A.
 Alpha  occ. eigenvalues --  -11.21638 -11.21617 -11.21588 -11.21574 -11.21452
 Alpha  occ. eigenvalues --  -11.21386 -11.21385 -11.21324 -11.21128 -11.21080
 Alpha  occ. eigenvalues --  -11.21074 -11.21048  -1.08485  -1.08410  -1.03610
 Alpha  occ. eigenvalues --   -1.03490  -0.96021  -0.95977  -0.87063  -0.86975
 Alpha  occ. eigenvalues --   -0.79640  -0.79581  -0.78293  -0.78223  -0.65324
 Alpha  occ. eigenvalues --   -0.64920  -0.61321  -0.60618  -0.59409  -0.59318
 Alpha  occ. eigenvalues --   -0.57608  -0.57589  -0.55383  -0.55167  -0.52711
 Alpha  occ. eigenvalues --   -0.52671  -0.52443  -0.52400  -0.50103  -0.49781
 Alpha  occ. eigenvalues --   -0.48046  -0.47821  -0.46691  -0.46591  -0.45971
 Alpha  occ. eigenvalues --   -0.45764  -0.45700  -0.45506  -0.43814  -0.43778
 Alpha virt. eigenvalues --    0.19896   0.22828   0.23806   0.25115   0.25807
 Alpha virt. eigenvalues --    0.26273   0.27059   0.27765   0.28598   0.29387
 Alpha virt. eigenvalues --    0.30790   0.31346   0.31496   0.31863   0.31967

 Mulliken charges:
               1
     1  C   -0.298210
     2  C   -0.299782
     3  C   -0.475754
     4  H    0.149890
     5  H    0.149872
     6  H    0.151902
     7  H    0.152215
     8  H    0.155330
     9  H    0.155169
    10  H    0.160357
    11  C   -0.301529
    12  C   -0.299131
    13  C   -0.486658
    14  H    0.149651
    15  H    0.150990
    16  H    0.152177
    17  H    0.152474
    18  H    0.168288
    19  H    0.154552
    20  H    0.159977
    21  C   -0.298370
    22  C   -0.299740
    23  C   -0.475742
    24  H    0.149545
    25  H    0.150684
    26  H    0.151707
    27  H    0.152314
    28  H    0.155323
    29  H    0.155072
    30  H    0.160127
    31  C   -0.301248
    32  C   -0.305437
    33  C   -0.478994
    34  H    0.149785
    35  H    0.151335
    36  H    0.153753
    37  H    0.155212
    38  H    0.156328
    39  H    0.155795
    40  H    0.160772
 Sum of Mulliken charges =  -0.00000

 Dipole moment (field-independent basis, Debye):
    X=             -0.0000    Y=              0.0070    Z=              0.0041  Tot=              0.0081
 Quadrupole moment (field-independent basis, Debye-Ang):
   XX=            -86.0684   YY=            -84.3886   ZZ=            -84.2621
   XY=              0.9487   XZ=             -1.2845   YZ=             -0.4644

 Normal termination of Gaussian 16 at Thu May  6 03:51:44 2021.
