 Gaussian 16, Revision A.03,
 Gaussian 16:  EM64L-G16RevA.03 25-Dec-2016

 -------------
 #p 6-31g* mp2
 -------------

 ------------------------------------------------------
 Input file generated by CHIRIPA (05-May-2021 14:51:12)
 ------------------------------------------------------
 Symbolic Z-matrix:
 Charge =  0 Multiplicity = 1

                         Standard orientation:
 ---------------------------------------------------------------------
 Center     Atomic      Atomic             Coordinates (Angstroms)
 Number     Number       Type             X           Y           Z
 ---------------------------------------------------------------------
      1          6           0        3.078655    0.540183   -0.139242
      2          6           0        2.610449    1.332278   -1.360452
      3          6           0        1.511714    2.341241   -1.024941
      4          1           0        2.219543    0.015951    0.301272
      5          1           0        3.443309    1.240088    0.625320
      6          1           0        2.248072    0.631008   -2.123026
      7          1           0        3.470812    1.854532   -1.798223
      8          1           0        1.865622    3.063402   -0.282085
      9          1           0        0.635935    1.832927   -0.608734
     10          1           0        1.191894    2.896412   -1.912274
     11          6           0        4.176878   -0.472545   -0.458643
     12          6           0        4.645084   -1.264640    0.762567
     13          6           0        5.743819   -2.273604    0.427056
     14          1           0        3.812223   -1.172451   -1.223205
     15          1           0        5.035990    0.051686   -0.899157
     16          1           0        3.784721   -1.786894    1.200338
     17          1           0        5.007461   -0.563370    1.525141
     18          1           0        6.619598   -1.765289    0.010849
     19          1           0        5.389911   -2.995765   -0.315799
     20          1           0        6.063638   -2.828775    1.314389
     21          6           0       -3.377618    0.645382    0.542958
     22          6           0       -1.902738    0.639199    0.946290
     23          6           0       -1.417044    2.005118    1.432253
     24          1           0       -3.532076    1.393310   -0.246784
     25          1           0       -3.983866    0.967134    1.401057
     26          1           0       -1.299572    0.316224    0.088097
     27          1           0       -1.751738   -0.108936    1.735029
     28          1           0       -1.993641    2.331257    2.303901
     29          1           0       -1.538906    2.758833    0.647611
     30          1           0       -0.360187    1.977972    1.715406
     31          6           0       -3.877915   -0.713020    0.054927
     32          6           0       -5.352795   -0.706836   -0.348406
     33          6           0       -5.838489   -2.072756   -0.834369
     34          1           0       -3.271667   -1.034771   -0.803173
     35          1           0       -3.723457   -1.460947    0.844669
     36          1           0       -5.503796    0.041298   -1.137145
     37          1           0       -5.955960   -0.383862    0.509787
     38          1           0       -5.716626   -2.826471   -0.049726
     39          1           0       -5.261893   -2.398895   -1.706016
     40          1           0       -6.895346   -2.045611   -1.117522
 ---------------------------------------------------------------------

 SCF Done:  E(RHF) =  -470.732746951     A.U. after   11 cycles
 E2 =    -0.1583171238D+01 EUMP2 =    -0.47231591818891D+03

 The electronic state is 1-A.
 Alpha  occ. eigenvalues --  -11.21645 -11.21616 -11.21594 -11.21567 -11.21427
 Alpha  occ. eigenvalues --  -11.21396 -11.21367 -11.21337 -11.21085 -11.21065
 Alpha  occ. eigenvalues --  -11.21016 -11.20958  -1.08459  -1.08409  -1.03584
 Alpha  occ. eigenvalues --   -1.03473  -0.96055  -0.95893  -0.87074  -0.86902
 Alpha  occ. eigenvalues --   -0.79630  -0.79552  -0.78272  -0.78226  -0.65151
 Alpha  occ. eigenvalues --   -0.64997  -0.61153  -0.60752  -0.59454  -0.59252
 Alpha  occ. eigenvalues --   -0.57723  -0.57445  -0.55472  -0.55045  -0.52756
 Alpha  occ. eigenvalues --   -0.52647  -0.52439  -0.52242  -0.49995  -0.49803
 Alpha  occ. eigenvalues --   -0.47932  -0.47844  -0.46682  -0.46567  -0.45841
 Alpha  occ. eigenvalues --   -0.45760  -0.45738  -0.45633  -0.43792  -0.43762
 Alpha virt. eigenvalues --    0.21133   0.23089   0.23519   0.25054   0.26274
 Alpha virt. eigenvalues --    0.26737   0.27053   0.27495   0.27914   0.29250
 Alpha virt. eigenvalues --    0.30283   0.31232   0.31472   0.31760   0.32271

 Mulliken charges:
               1
     1  C   -0.299205
     2  C   -0.299255
     3  C   -0.484727
     4  H    0.149987
     5  H    0.149328
     6  H    0.151159
     7  H    0.151630
     8  H    0.154812
     9  H    0.168065
    10  H    0.159024
    11  C   -0.298155
    12  C   -0.299690
    13  C   -0.475701
    14  H    0.149486
    15  H    0.149729
    16  H    0.152016
    17  H    0.151876
    18  H    0.155165
    19  H    0.155177
    20  H    0.160226
    21  C   -0.297852
    22  C   -0.304404
    23  C   -0.479801
    24  H    0.150012
    25  H    0.149894
    26  H    0.153015
    27  H    0.152276
    28  H    0.156099
    29  H    0.157021
    30  H    0.162865
    31  C   -0.298386
    32  C   -0.299689
    33  C   -0.475723
    34  H    0.149371
    35  H    0.149621
    36  H    0.152056
    37  H    0.152017
    38  H    0.155172
    39  H    0.155150
    40  H    0.160337
 Sum of Mulliken charges =  -0.00000

 Dipole moment (field-independent basis, Debye):
    X=             -0.0283    Y=              0.0094    Z=              0.0174  Tot=              0.0345
 Quadrupole moment (field-independent basis, Debye-Ang):
   XX=            -85.1357   YY=            -85.6661   ZZ=            -84.0185
   XY=              0.6888   XZ=             -0.1962   YZ=             -0.4762

 Normal termination of Gaussian 16 at Thu May  6 00:44:21 2021.
