 Gaussian 16, Revision A.03,
 Gaussian 16:  EM64L-G16RevA.03 25-Dec-2016

 -------------
 #p 6-31g* mp2
 -------------

 ------------------------------------------------------
 Input file generated by CHIRIPA (05-May-2021 14:57:25)
 ------------------------------------------------------
 Symbolic Z-matrix:
 Charge =  0 Multiplicity = 1

                         Standard orientation:
 ---------------------------------------------------------------------
 Center     Atomic      Atomic             Coordinates (Angstroms)
 Number     Number       Type             X           Y           Z
 ---------------------------------------------------------------------
      1          6           0        5.148533    0.039428    0.599627
      2          6           0        4.633074    1.065870   -0.198646
      3          6           0        3.330105    0.989473   -0.699629
      4          6           0        2.566925   -0.132766   -0.381157
      5          6           0        3.052097   -1.171740    0.411579
      6          6           0        4.357794   -1.074138    0.901659
      7          1           0        6.161770    0.107011    0.984568
      8          1           0        5.244892    1.931860   -0.434831
      9          1           0        2.906001    1.769724   -1.319922
     10          1           0        2.418180   -2.022561    0.629917
     11          1           0        4.755480   -1.872794    1.521368
     12          7           0        1.186087   -0.224869   -0.905755
     13          8           0        0.534008   -1.224067   -0.610741
     14          8           0        0.782010    0.703884   -1.602015
     15          6           0       -2.381946    2.574505    0.693790
     16          6           0       -1.707116    1.617975    1.459410
     17          6           0       -1.927886    0.253910    1.246963
     18          6           0       -2.834388   -0.119938    0.256115
     19          6           0       -3.522110    0.809127   -0.523093
     20          6           0       -3.285696    2.167745   -0.293279
     21          1           0       -2.204370    3.632028    0.865570
     22          1           0       -1.004690    1.930964    2.226666
     23          1           0       -1.419017   -0.507734    1.825209
     24          1           0       -4.216403    0.466507   -1.280712
     25          1           0       -3.811200    2.908384   -0.889387
     26          7           0       -3.076389   -1.561130    0.022012
     27          8           0       -3.880015   -1.864642   -0.857021
     28          8           0       -2.457859   -2.359935    0.721991
 ---------------------------------------------------------------------

 SCF Done:  E(RHF) =  -868.337780566     A.U. after   16 cycles
 E2 =    -0.2601718785D+01 EUMP2 =    -0.87093949935109D+03

 The electronic state is 1-A.
 Alpha  occ. eigenvalues --  -20.60954 -20.60921 -20.59389 -20.59344 -15.85945
 Alpha  occ. eigenvalues --  -15.84423 -11.31373 -11.29820 -11.27964 -11.27905
 Alpha  occ. eigenvalues --  -11.27689 -11.26977 -11.26938 -11.26474 -11.26470
 Alpha  occ. eigenvalues --  -11.26324 -11.25586 -11.25528  -1.60000  -1.58412
 Alpha  occ. eigenvalues --   -1.39551  -1.37976  -1.19550  -1.18036  -1.08937
 Alpha  occ. eigenvalues --   -1.07439  -1.04951  -1.03509  -0.95760  -0.94275
 Alpha  occ. eigenvalues --   -0.86346  -0.84910  -0.82583  -0.81147  -0.77626
 Alpha  occ. eigenvalues --   -0.76153  -0.72184  -0.71346  -0.70685  -0.70642
 Alpha  occ. eigenvalues --   -0.69653  -0.69241  -0.65192  -0.64946  -0.63748
 Alpha  occ. eigenvalues --   -0.63580  -0.62289  -0.60888  -0.55449  -0.54075
 Alpha  occ. eigenvalues --   -0.53297  -0.53035  -0.51778  -0.51659  -0.48943
 Alpha  occ. eigenvalues --   -0.48927  -0.47436  -0.47408  -0.44953  -0.43361
 Alpha  occ. eigenvalues --   -0.37543  -0.36564  -0.35981  -0.35072
 Alpha virt. eigenvalues --    0.04868   0.06458   0.11089   0.12587   0.16371
 Alpha virt. eigenvalues --    0.17900   0.21259   0.22427   0.27168   0.28078
 Alpha virt. eigenvalues --    0.28333   0.29342   0.30819   0.31828   0.32459

 Mulliken charges:
               1
     1  C   -0.171059
     2  C   -0.218882
     3  C   -0.172152
     4  C    0.156954
     5  C   -0.173050
     6  C   -0.218833
     7  H    0.226049
     8  H    0.223134
     9  H    0.274458
    10  H    0.280229
    11  H    0.224982
    12  N    0.487611
    13  O   -0.456453
    14  O   -0.460960
    15  C   -0.167535
    16  C   -0.221581
    17  C   -0.162851
    18  C    0.170812
    19  C   -0.167049
    20  C   -0.216490
    21  H    0.219119
    22  H    0.214752
    23  H    0.271502
    24  H    0.272792
    25  H    0.218534
    26  N    0.492133
    27  O   -0.465978
    28  O   -0.460186
 Sum of Mulliken charges =  -0.00000

 Dipole moment (field-independent basis, Debye):
    X=              5.8758    Y=              5.1602    Z=              2.5347  Tot=              8.2206
 Quadrupole moment (field-independent basis, Debye-Ang):
   XX=            -84.0451   YY=           -103.1273   ZZ=           -103.5192
   XY=            -14.5483   XZ=              3.6383   YZ=             -2.6989

 Normal termination of Gaussian 16 at Thu May  6 13:05:03 2021.
