 Gaussian 16, Revision A.03,
 Gaussian 16:  EM64L-G16RevA.03 25-Dec-2016

 -------------
 #p 6-31g* mp2
 -------------

 ------------------------------------------------------
 Input file generated by CHIRIPA (05-May-2021 14:55:19)
 ------------------------------------------------------
 Symbolic Z-matrix:
 Charge =  0 Multiplicity = 1

                         Standard orientation:
 ---------------------------------------------------------------------
 Center     Atomic      Atomic             Coordinates (Angstroms)
 Number     Number       Type             X           Y           Z
 ---------------------------------------------------------------------
      1          6           0        4.383416    1.131242   -0.887490
      2          6           0        4.729647   -0.175322   -0.527580
      3          6           0        3.760819   -1.058239   -0.041393
      4          6           0        2.449470   -0.599237    0.072502
      5          6           0        2.073293    0.696549   -0.277813
      6          6           0        3.058680    1.562247   -0.761680
      7          1           0        5.142457    1.810425   -1.264270
      8          1           0        5.757667   -0.512783   -0.624226
      9          1           0        4.001313   -2.075010    0.244537
     10          1           0        1.040209    1.004118   -0.170309
     11          1           0        2.786905    2.576389   -1.040426
     12          7           0        1.415050   -1.524827    0.585978
     13          8           0        0.266760   -1.096107    0.676897
     14          8           0        1.772148   -2.661498    0.887800
     15          6           0       -2.972614    0.925886    0.574913
     16          6           0       -1.983253    1.974457    0.065357
     17          6           0       -1.228857    2.674258    1.196267
     18          1           0       -3.690195    1.407221    1.253397
     19          1           0       -2.430221    0.179647    1.171848
     20          1           0       -2.527137    2.717734   -0.531590
     21          1           0       -1.268061    1.490608   -0.612143
     22          1           0       -0.661304    1.948462    1.787626
     23          1           0       -1.927534    3.182560    1.868637
     24          1           0       -0.527024    3.419749    0.809570
     25          6           0       -3.734470    0.217636   -0.543874
     26          6           0       -4.723832   -0.830935   -0.034317
     27          6           0       -5.478228   -1.530736   -1.165228
     28          1           0       -4.276864    0.963875   -1.140808
     29          1           0       -3.016890   -0.263698   -1.222358
     30          1           0       -5.439024   -0.347085    0.643183
     31          1           0       -4.179948   -1.574211    0.562630
     32          1           0       -4.779550   -2.039038   -1.837597
     33          1           0       -6.045781   -0.804939   -1.756586
     34          1           0       -6.180061   -2.276226   -0.778530
 ---------------------------------------------------------------------

 SCF Done:  E(RHF) =  -669.536058284     A.U. after   15 cycles
 E2 =    -0.2092680139D+01 EUMP2 =    -0.67162873842243D+03

 The electronic state is 1-A.
 Alpha  occ. eigenvalues --  -20.60956 -20.60939 -15.85986 -11.31246 -11.27818
 Alpha  occ. eigenvalues --  -11.27765 -11.27548 -11.26816 -11.26794 -11.21364
 Alpha  occ. eigenvalues --  -11.21004 -11.20860 -11.20668 -11.20584 -11.20451
 Alpha  occ. eigenvalues --   -1.60012  -1.39570  -1.19417  -1.08834  -1.07812
 Alpha  occ. eigenvalues --   -1.04806  -1.03068  -0.95686  -0.95501  -0.86530
 Alpha  occ. eigenvalues --   -0.86210  -0.82520  -0.79135  -0.77598  -0.77581
 Alpha  occ. eigenvalues --   -0.72224  -0.71324  -0.70539  -0.65089  -0.64883
 Alpha  occ. eigenvalues --   -0.64351  -0.62205  -0.60387  -0.58912  -0.57119
 Alpha  occ. eigenvalues --   -0.55333  -0.54747  -0.53142  -0.52868  -0.52270
 Alpha  occ. eigenvalues --   -0.51941  -0.49444  -0.48967  -0.48954  -0.47447
 Alpha  occ. eigenvalues --   -0.46142  -0.45167  -0.45077  -0.44878  -0.43261
 Alpha  occ. eigenvalues --   -0.37400  -0.36400
 Alpha virt. eigenvalues --    0.04921   0.11218   0.16443   0.20251   0.23354
 Alpha virt. eigenvalues --    0.24369   0.26853   0.27289   0.28097   0.28356
 Alpha virt. eigenvalues --    0.29599   0.30410   0.31614   0.31991   0.32331

 Mulliken charges:
               1
     1  C   -0.170032
     2  C   -0.219264
     3  C   -0.169455
     4  C    0.154402
     5  C   -0.179879
     6  C   -0.223579
     7  H    0.225905
     8  H    0.223618
     9  H    0.275579
    10  H    0.296298
    11  H    0.224393
    12  N    0.491311
    13  O   -0.468016
    14  O   -0.458684
    15  C   -0.303147
    16  C   -0.301484
    17  C   -0.484533
    18  H    0.145137
    19  H    0.173184
    20  H    0.149454
    21  H    0.147891
    22  H    0.164127
    23  H    0.159006
    24  H    0.148969
    25  C   -0.298103
    26  C   -0.300875
    27  C   -0.475548
    28  H    0.143863
    29  H    0.153738
    30  H    0.148883
    31  H    0.159750
    32  H    0.156027
    33  H    0.152043
    34  H    0.159017
 Sum of Mulliken charges =  -0.00000

 Dipole moment (field-independent basis, Debye):
    X=              3.7257    Y=              3.0565    Z=             -1.6965  Tot=              5.1089
 Quadrupole moment (field-independent basis, Debye-Ang):
   XX=            -75.0507   YY=            -96.7704   ZZ=            -96.3011
   XY=              2.5029   XZ=             -4.7679   YZ=              0.4685

 Normal termination of Gaussian 16 at Thu May  6 15:43:40 2021.
