 Gaussian 16, Revision A.03,
 Gaussian 16:  EM64L-G16RevA.03 25-Dec-2016

 -------------
 #p 6-31g* mp2
 -------------

 ------------------------------------------------------
 Input file generated by CHIRIPA (05-May-2021 14:55:20)
 ------------------------------------------------------
 Symbolic Z-matrix:
 Charge =  0 Multiplicity = 1

                         Standard orientation:
 ---------------------------------------------------------------------
 Center     Atomic      Atomic             Coordinates (Angstroms)
 Number     Number       Type             X           Y           Z
 ---------------------------------------------------------------------
      1          6           0       -2.514489    2.424707   -0.499468
      2          6           0       -1.325875    1.711772   -0.687727
      3          6           0       -1.274866    0.337438   -0.436427
      4          6           0       -2.436453   -0.294964    0.004110
      5          6           0       -3.635775    0.387748    0.201139
      6          6           0       -3.663620    1.761589   -0.056417
      7          1           0       -2.545117    3.492131   -0.697114
      8          1           0       -0.431903    2.224143   -1.031725
      9          1           0       -0.367984   -0.238848   -0.573823
     10          1           0       -4.510675   -0.150569    0.544916
     11          1           0       -4.588107    2.312710    0.090663
     12          7           0       -2.394713   -1.749649    0.273461
     13          8           0       -3.431797   -2.283527    0.660847
     14          8           0       -1.325704   -2.328407    0.092094
     15          6           0        3.383954   -0.621267    0.248697
     16          6           0        2.884258   -1.737374   -0.669234
     17          6           0        3.405923   -3.115716   -0.262009
     18          1           0        4.482536   -0.615301    0.243624
     19          1           0        3.077332   -0.840115    1.280919
     20          1           0        3.190542   -1.515782   -1.699624
     21          1           0        1.786736   -1.740560   -0.662126
     22          1           0        3.088467   -3.362343    0.756321
     23          1           0        4.500249   -3.136288   -0.287072
     24          1           0        3.036461   -3.898703   -0.931554
     25          6           0        2.870977    0.762616   -0.145573
     26          6           0        3.370671    1.878722    0.772357
     27          6           0        2.849007    3.257064    0.365132
     28          1           0        3.177599    0.981465   -1.177796
     29          1           0        1.772394    0.756650   -0.140502
     30          1           0        4.468194    1.881908    0.765248
     31          1           0        3.064388    1.657131    1.802747
     32          1           0        1.754681    3.277637    0.390195
     33          1           0        3.166464    3.503692   -0.653199
     34          1           0        3.218469    4.040051    1.034676
 ---------------------------------------------------------------------

 SCF Done:  E(RHF) =  -669.535463300     A.U. after   15 cycles
 E2 =    -0.2093191213D+01 EUMP2 =    -0.67162865451272D+03

 The electronic state is 1-A.
 Alpha  occ. eigenvalues --  -20.60831 -20.60826 -15.85876 -11.31203 -11.27779
 Alpha  occ. eigenvalues --  -11.27744 -11.27510 -11.26786 -11.26752 -11.22098
 Alpha  occ. eigenvalues --  -11.21940 -11.21763 -11.21523 -11.21454 -11.20723
 Alpha  occ. eigenvalues --   -1.59900  -1.39455  -1.19378  -1.08779  -1.08726
 Alpha  occ. eigenvalues --   -1.04778  -1.03719  -0.96202  -0.95620  -0.87215
 Alpha  occ. eigenvalues --   -0.86176  -0.82459  -0.79845  -0.78553  -0.77475
 Alpha  occ. eigenvalues --   -0.72097  -0.71219  -0.70499  -0.65397  -0.65025
 Alpha  occ. eigenvalues --   -0.64781  -0.62113  -0.61094  -0.59606  -0.57793
 Alpha  occ. eigenvalues --   -0.55514  -0.55277  -0.53107  -0.52918  -0.52819
 Alpha  occ. eigenvalues --   -0.52611  -0.50147  -0.48863  -0.48847  -0.48132
 Alpha  occ. eigenvalues --   -0.46883  -0.46028  -0.45892  -0.44866  -0.43998
 Alpha  occ. eigenvalues --   -0.37357  -0.36365
 Alpha virt. eigenvalues --    0.05003   0.11225   0.16411   0.19566   0.22852
 Alpha virt. eigenvalues --    0.23216   0.24848   0.26597   0.26852   0.28536
 Alpha virt. eigenvalues --    0.29248   0.30976   0.31433   0.31818   0.32550

 Mulliken charges:
               1
     1  C   -0.170677
     2  C   -0.225933
     3  C   -0.179106
     4  C    0.157371
     5  C   -0.169929
     6  C   -0.219022
     7  H    0.226053
     8  H    0.229305
     9  H    0.288180
    10  H    0.275602
    11  H    0.223588
    12  N    0.488645
    13  O   -0.459704
    14  O   -0.463927
    15  C   -0.298645
    16  C   -0.310538
    17  C   -0.474493
    18  H    0.150775
    19  H    0.153547
    20  H    0.149002
    21  H    0.165464
    22  H    0.159911
    23  H    0.151959
    24  H    0.164523
    25  C   -0.303895
    26  C   -0.298939
    27  C   -0.478501
    28  H    0.149533
    29  H    0.141369
    30  H    0.155431
    31  H    0.155450
    32  H    0.148800
    33  H    0.154993
    34  H    0.163807
 Sum of Mulliken charges =  -0.00000

 Dipole moment (field-independent basis, Debye):
    X=             -0.0833    Y=              4.9974    Z=             -0.8777  Tot=              5.0746
 Quadrupole moment (field-independent basis, Debye-Ang):
   XX=            -88.3979   YY=            -99.1829   ZZ=            -94.8936
   XY=            -12.4648   XZ=              0.5996   YZ=              0.4402

 Normal termination of Gaussian 16 at Thu May  6 20:39:40 2021.
