 Gaussian 16, Revision A.03,
 Gaussian 16:  EM64L-G16RevA.03 25-Dec-2016

 -------------
 #p 6-31g* mp2
 -------------

 ------------------------------------------------------
 Input file generated by CHIRIPA (05-May-2021 14:55:21)
 ------------------------------------------------------
 Symbolic Z-matrix:
 Charge =  0 Multiplicity = 1

                         Standard orientation:
 ---------------------------------------------------------------------
 Center     Atomic      Atomic             Coordinates (Angstroms)
 Number     Number       Type             X           Y           Z
 ---------------------------------------------------------------------
      1          6           0       -1.931978    1.654057    0.665733
      2          6           0       -1.789347    0.262605    0.671830
      3          6           0       -2.843466   -0.560966    0.265491
      4          6           0       -4.031565    0.043298   -0.142645
      5          6           0       -4.204396    1.426454   -0.159885
      6          6           0       -3.136923    2.230525    0.250627
      7          1           0       -1.107926    2.286253    0.983008
      8          1           0       -0.854719   -0.187854    0.993703
      9          1           0       -2.760155   -1.640990    0.260359
     10          1           0       -5.148181    1.846340   -0.486050
     11          1           0       -3.250534    3.310851    0.244860
     12          7           0       -5.154583   -0.818258   -0.575026
     13          8           0       -6.191083   -0.261287   -0.930115
     14          8           0       -4.977040   -2.034203   -0.550650
     15          6           0        5.679673   -0.135627    0.127586
     16          6           0        6.312810    0.193010   -1.224864
     17          6           0        7.826012    0.393354   -1.136132
     18          1           0        5.902895    0.673740    0.836135
     19          1           0        6.147553   -1.043579    0.532686
     20          1           0        5.842909    1.099291   -1.627934
     21          1           0        6.087892   -0.617142   -1.930330
     22          1           0        8.312849   -0.511295   -0.757710
     23          1           0        8.066474    1.214890   -0.453595
     24          1           0        8.258037    0.627317   -2.114128
     25          6           0        4.167313   -0.338722    0.055155
     26          6           0        3.534176   -0.667359    1.407605
     27          6           0        2.020973   -0.867702    1.318873
     28          1           0        3.699432    0.569231   -0.349945
     29          1           0        3.944090   -1.148088   -0.653395
     30          1           0        3.759093    0.142793    2.113071
     31          1           0        4.004075   -1.573640    1.810674
     32          1           0        1.780511   -1.689239    0.636336
     33          1           0        1.534136    0.036946    0.940450
     34          1           0        1.588948   -1.101665    2.296869
 ---------------------------------------------------------------------

 SCF Done:  E(RHF) =  -669.535478474     A.U. after   15 cycles
 E2 =    -0.2090977940D+01 EUMP2 =    -0.67162645641378D+03

 The electronic state is 1-A.
 Alpha  occ. eigenvalues --  -20.60696 -20.60691 -15.85747 -11.31095 -11.27662
 Alpha  occ. eigenvalues --  -11.27635 -11.27395 -11.26686 -11.26581 -11.22491
 Alpha  occ. eigenvalues --  -11.22304 -11.22093 -11.22064 -11.21928 -11.21455
 Alpha  occ. eigenvalues --   -1.59771  -1.39325  -1.19259  -1.09105  -1.08661
 Alpha  occ. eigenvalues --   -1.04657  -1.04248  -0.96730  -0.95501  -0.87770
 Alpha  occ. eigenvalues --   -0.86053  -0.82330  -0.80335  -0.78876  -0.77376
 Alpha  occ. eigenvalues --   -0.71967  -0.71094  -0.70379  -0.65739  -0.64910
 Alpha  occ. eigenvalues --   -0.64673  -0.62048  -0.61613  -0.60107  -0.58302
 Alpha  occ. eigenvalues --   -0.56025  -0.55171  -0.53506  -0.53208  -0.52986
 Alpha  occ. eigenvalues --   -0.52613  -0.50659  -0.48746  -0.48723  -0.48597
 Alpha  occ. eigenvalues --   -0.47333  -0.46426  -0.46324  -0.44735  -0.44483
 Alpha  occ. eigenvalues --   -0.37247  -0.36256
 Alpha virt. eigenvalues --    0.05147   0.11368   0.16645   0.20537   0.22291
 Alpha virt. eigenvalues --    0.23740   0.25642   0.25931   0.26908   0.27773
 Alpha virt. eigenvalues --    0.28756   0.29894   0.30825   0.31332   0.31893

 Mulliken charges:
               1
     1  C   -0.174269
     2  C   -0.227751
     3  C   -0.173733
     4  C    0.159060
     5  C   -0.171661
     6  C   -0.218300
     7  H    0.224698
     8  H    0.240861
     9  H    0.275701
    10  H    0.275163
    11  H    0.222842
    12  N    0.488019
    13  O   -0.460796
    14  O   -0.460591
    15  C   -0.298929
    16  C   -0.300079
    17  C   -0.476067
    18  H    0.149935
    19  H    0.151125
    20  H    0.151854
    21  H    0.153181
    22  H    0.156084
    23  H    0.155367
    24  H    0.161688
    25  C   -0.299033
    26  C   -0.299872
    27  C   -0.482864
    28  H    0.148527
    29  H    0.151824
    30  H    0.153296
    31  H    0.156267
    32  H    0.159729
    33  H    0.147002
    34  H    0.161721
 Sum of Mulliken charges =  -0.00000

 Dipole moment (field-independent basis, Debye):
    X=              4.2283    Y=              2.9798    Z=              1.5256  Tot=              5.3930
 Quadrupole moment (field-independent basis, Debye-Ang):
   XX=           -126.0396   YY=            -90.3811   ZZ=            -95.8538
   XY=            -15.2205   XZ=             -6.0879   YZ=             -1.0199

 Normal termination of Gaussian 16 at Thu May  6 02:58:25 2021.
