 Gaussian 16, Revision A.03,
 Gaussian 16:  EM64L-G16RevA.03 25-Dec-2016

 -------------
 #p 6-31g* mp2
 -------------

 ------------------------------------------------------
 Input file generated by CHIRIPA (05-May-2021 14:55:23)
 ------------------------------------------------------
 Symbolic Z-matrix:
 Charge =  0 Multiplicity = 1

                         Standard orientation:
 ---------------------------------------------------------------------
 Center     Atomic      Atomic             Coordinates (Angstroms)
 Number     Number       Type             X           Y           Z
 ---------------------------------------------------------------------
      1          6           0        3.678181    1.994349   -1.011609
      2          6           0        3.002641    2.302658    0.173765
      3          6           0        2.345614    1.302892    0.897183
      4          6           0        2.384588   -0.000387    0.403996
      5          6           0        3.049087   -0.339100   -0.773716
      6          6           0        3.699211    0.676777   -1.480739
      7          1           0        4.185894    2.777248   -1.567209
      8          1           0        2.984642    3.325027    0.540483
      9          1           0        1.815082    1.513747    1.817777
     10          1           0        3.049466   -1.367458   -1.114153
     11          1           0        4.223052    0.434423   -2.401011
     12          7           0        1.692677   -1.067322    1.161167
     13          8           0        1.741841   -2.207738    0.705456
     14          8           0        1.114295   -0.742968    2.196013
     15          6           0       -3.643207    0.137879    0.146657
     16          6           0       -4.465225    1.268426   -0.473130
     17          6           0       -5.350375    1.984031    0.547759
     18          1           0       -4.322953   -0.586292    0.616195
     19          1           0       -3.018035    0.547491    0.952121
     20          1           0       -5.087636    0.857043   -1.278106
     21          1           0       -3.783453    1.989891   -0.941414
     22          1           0       -4.741800    2.421109    1.346007
     23          1           0       -6.053393    1.281824    1.007403
     24          1           0       -5.929207    2.788448    0.083298
     25          6           0       -2.753269   -0.587048   -0.861420
     26          6           0       -1.931251   -1.717595   -0.241633
     27          6           0       -1.046102   -2.433199   -1.262523
     28          1           0       -3.378441   -0.996660   -1.666885
     29          1           0       -2.073523    0.137124   -1.330958
     30          1           0       -2.613023   -2.439060    0.226650
     31          1           0       -1.308841   -1.306212    0.563342
     32          1           0       -0.343083   -1.730993   -1.722167
     33          1           0       -1.654676   -2.870278   -2.060771
     34          1           0       -0.467269   -3.237617   -0.798061
 ---------------------------------------------------------------------

 SCF Done:  E(RHF) =  -669.536036749     A.U. after   15 cycles
 E2 =    -0.2092879513D+01 EUMP2 =    -0.67162891626199D+03

 The electronic state is 1-A.
 Alpha  occ. eigenvalues --  -20.61011 -20.60982 -15.86000 -11.31323 -11.27881
 Alpha  occ. eigenvalues --  -11.27874 -11.27614 -11.26884 -11.26873 -11.21216
 Alpha  occ. eigenvalues --  -11.20809 -11.20759 -11.20701 -11.20534 -11.19968
 Alpha  occ. eigenvalues --   -1.60047  -1.39603  -1.19487  -1.08893  -1.07783
 Alpha  occ. eigenvalues --   -1.04879  -1.02835  -0.95742  -0.95291  -0.86322
 Alpha  occ. eigenvalues --   -0.86279  -0.82572  -0.78921  -0.77636  -0.77549
 Alpha  occ. eigenvalues --   -0.72236  -0.71392  -0.70592  -0.65142  -0.64880
 Alpha  occ. eigenvalues --   -0.64422  -0.62225  -0.60240  -0.58668  -0.56859
 Alpha  occ. eigenvalues --   -0.55383  -0.54618  -0.53212  -0.52969  -0.51951
 Alpha  occ. eigenvalues --   -0.51725  -0.49324  -0.48990  -0.48983  -0.47235
 Alpha  occ. eigenvalues --   -0.46031  -0.45203  -0.45112  -0.44692  -0.43053
 Alpha  occ. eigenvalues --   -0.37460  -0.36477
 Alpha virt. eigenvalues --    0.04849   0.11137   0.16312   0.21274   0.23407
 Alpha virt. eigenvalues --    0.24880   0.27091   0.27252   0.28003   0.28209
 Alpha virt. eigenvalues --    0.28781   0.30897   0.31840   0.32250   0.32675

 Mulliken charges:
               1
     1  C   -0.170481
     2  C   -0.218570
     3  C   -0.171068
     4  C    0.158414
     5  C   -0.171024
     6  C   -0.218676
     7  H    0.226187
     8  H    0.223956
     9  H    0.275755
    10  H    0.276788
    11  H    0.224159
    12  N    0.488151
    13  O   -0.456628
    14  O   -0.459776
    15  C   -0.298051
    16  C   -0.298780
    17  C   -0.475166
    18  H    0.150216
    19  H    0.151458
    20  H    0.150900
    21  H    0.148713
    22  H    0.154442
    23  H    0.155703
    24  H    0.157968
    25  C   -0.297083
    26  C   -0.306360
    27  C   -0.475661
    28  H    0.146713
    29  H    0.143745
    30  H    0.151692
    31  H    0.164475
    32  H    0.142259
    33  H    0.146349
    34  H    0.179282
 Sum of Mulliken charges =  -0.00000

 Dipole moment (field-independent basis, Debye):
    X=              2.6837    Y=              3.6503    Z=             -2.5029  Tot=              5.1760
 Quadrupole moment (field-independent basis, Debye-Ang):
   XX=            -83.7104   YY=            -92.5010   ZZ=            -95.6340
   XY=              9.1261   XZ=             -6.4823   YZ=              3.6595

 Normal termination of Gaussian 16 at Thu May  6 14:17:12 2021.
