 Gaussian 16, Revision A.03,
 Gaussian 16:  EM64L-G16RevA.03 25-Dec-2016

 -------------
 #p 6-31g* mp2
 -------------

 ------------------------------------------------------
 Input file generated by CHIRIPA (05-May-2021 14:53:16)
 ------------------------------------------------------
 Symbolic Z-matrix:
 Charge =  0 Multiplicity = 1

                         Standard orientation:
 ---------------------------------------------------------------------
 Center     Atomic      Atomic             Coordinates (Angstroms)
 Number     Number       Type             X           Y           Z
 ---------------------------------------------------------------------
      1          6           0        4.703980    0.187491   -0.325012
      2          6           0        5.103549   -1.268608   -0.083965
      3          6           0        6.617553   -1.479469   -0.117505
      4          1           0        5.099603    0.513586   -1.296655
      5          1           0        5.180397    0.821830    0.435275
      6          1           0        4.625410   -1.900177   -0.843648
      7          1           0        4.706766   -1.591334    0.887131
      8          1           0        7.108008   -0.873640    0.651277
      9          1           0        7.026190   -1.184238   -1.089336
     10          1           0        6.880919   -2.527330    0.057098
     11          6           0        3.193555    0.414232   -0.294474
     12          6           0        2.793986    1.870332   -0.535522
     13          6           0        1.279982    2.081192   -0.501982
     14          1           0        2.717138   -0.220106   -1.054762
     15          1           0        2.797932    0.088137    0.677168
     16          1           0        3.190769    2.193057   -1.506618
     17          1           0        3.272125    2.501901    0.224162
     18          1           0        0.871345    1.785962    0.469849
     19          1           0        0.789527    1.475363   -1.270764
     20          1           0        1.016616    3.129053   -0.676585
     21          6           0       -1.043524    0.152180    1.673231
     22          6           0       -1.358754   -1.139318    1.238278
     23          6           0       -2.487403   -1.365609    0.444871
     24          6           0       -3.282335   -0.272484    0.103619
     25          6           0       -2.994676    1.025989    0.521364
     26          6           0       -1.861050    1.228813    1.314019
     27          1           0       -0.164831    0.318852    2.289276
     28          1           0       -0.725666   -1.977338    1.515708
     29          1           0       -2.754749   -2.355099    0.094370
     30          1           0       -3.644861    1.841441    0.228591
     31          1           0       -1.618681    2.232891    1.650366
     32          7           0       -4.479818   -0.499626   -0.735927
     33          8           0       -5.164036    0.480243   -1.022878
     34          8           0       -4.711514   -1.653227   -1.091115
 ---------------------------------------------------------------------

 SCF Done:  E(RHF) =  -669.534010035     A.U. after   15 cycles
 E2 =    -0.2092731214D+01 EUMP2 =    -0.67162674124856D+03

 The electronic state is 1-A.
 Alpha  occ. eigenvalues --  -20.60744 -20.60738 -15.85797 -11.31158 -11.27735
 Alpha  occ. eigenvalues --  -11.27718 -11.27479 -11.26747 -11.26728 -11.22186
 Alpha  occ. eigenvalues --  -11.22125 -11.22049 -11.21914 -11.21629 -11.21501
 Alpha  occ. eigenvalues --   -1.59819  -1.39373  -1.19340  -1.09016  -1.08742
 Alpha  occ. eigenvalues --   -1.04741  -1.04080  -0.96539  -0.95576  -0.87558
 Alpha  occ. eigenvalues --   -0.86140  -0.82406  -0.80151  -0.78833  -0.77443
 Alpha  occ. eigenvalues --   -0.72017  -0.71143  -0.70487  -0.65653  -0.64999
 Alpha  occ. eigenvalues --   -0.64750  -0.62095  -0.61477  -0.59904  -0.58161
 Alpha  occ. eigenvalues --   -0.55863  -0.55255  -0.53423  -0.53198  -0.52830
 Alpha  occ. eigenvalues --   -0.52644  -0.50468  -0.48775  -0.48771  -0.48445
 Alpha  occ. eigenvalues --   -0.47188  -0.46377  -0.46291  -0.44780  -0.44348
 Alpha  occ. eigenvalues --   -0.37222  -0.36318
 Alpha virt. eigenvalues --    0.05056   0.11246   0.16453   0.20236   0.22601
 Alpha virt. eigenvalues --    0.23988   0.25652   0.26606   0.26723   0.28022
 Alpha virt. eigenvalues --    0.28852   0.30466   0.31183   0.31529   0.31769

 Mulliken charges:
               1
     1  C   -0.298512
     2  C   -0.299699
     3  C   -0.475949
     4  H    0.152178
     5  H    0.149646
     6  H    0.152867
     7  H    0.149175
     8  H    0.155490
     9  H    0.156716
    10  H    0.161224
    11  C   -0.296528
    12  C   -0.300949
    13  C   -0.474710
    14  H    0.152132
    15  H    0.140538
    16  H    0.154970
    17  H    0.150663
    18  H    0.147662
    19  H    0.160773
    20  H    0.159342
    21  C   -0.169620
    22  C   -0.219320
    23  C   -0.171337
    24  C    0.158262
    25  C   -0.172113
    26  C   -0.213443
    27  H    0.224947
    28  H    0.223519
    29  H    0.275481
    30  H    0.275561
    31  H    0.224063
    32  N    0.488081
    33  O   -0.460471
    34  O   -0.460641
 Sum of Mulliken charges =  -0.00000

 Dipole moment (field-independent basis, Debye):
    X=              4.2809    Y=              0.7977    Z=              2.8773  Tot=              5.2193
 Quadrupole moment (field-independent basis, Debye-Ang):
   XX=           -123.8953   YY=            -90.5569   ZZ=            -93.8807
   XY=             -4.7528   XZ=             -9.5576   YZ=             -0.4031

 Normal termination of Gaussian 16 at Thu May  6 05:56:31 2021.
