 Gaussian 16, Revision A.03,
 Gaussian 16:  EM64L-G16RevA.03 25-Dec-2016

 -------------
 #p 6-31g* mp2
 -------------

 ------------------------------------------------------
 Input file generated by CHIRIPA (05-May-2021 14:57:25)
 ------------------------------------------------------
 Symbolic Z-matrix:
 Charge =  0 Multiplicity = 1

                         Standard orientation:
 ---------------------------------------------------------------------
 Center     Atomic      Atomic             Coordinates (Angstroms)
 Number     Number       Type             X           Y           Z
 ---------------------------------------------------------------------
      1          6           0        4.247074    1.729594    0.705120
      2          6           0        4.611436    0.395997    0.917913
      3          6           0        3.803816   -0.644238    0.448647
      4          6           0        2.633436   -0.313278   -0.232503
      5          6           0        2.243340    1.005525   -0.460259
      6          6           0        3.066270    2.029573    0.017925
      7          1           0        4.880399    2.531386    1.073121
      8          1           0        5.527900    0.160062    1.451272
      9          1           0        4.062005   -1.685393    0.599490
     10          1           0        1.323834    1.209449   -0.995369
     11          1           0        2.780798    3.064347   -0.148789
     12          7           0        1.770341   -1.405960   -0.734014
     13          8           0        0.744239   -1.087986   -1.331212
     14          8           0        2.136291   -2.559688   -0.520405
     15          6           0       -2.660652   -2.289443    0.845214
     16          6           0       -2.833431   -1.291660    1.810148
     17          6           0       -2.898565    0.053912    1.436330
     18          6           0       -2.786805    0.367403    0.082622
     19          6           0       -2.614044   -0.603842   -0.902329
     20          6           0       -2.551702   -1.942959   -0.505564
     21          1           0       -2.611140   -3.332210    1.144518
     22          1           0       -2.918340   -1.557811    2.859910
     23          1           0       -3.031780    0.846543    2.162558
     24          1           0       -2.532530   -0.307617   -1.941090
     25          1           0       -2.417462   -2.715736   -1.257124
     26          7           0       -2.854281    1.788483   -0.325269
     27          8           0       -2.753181    2.038570   -1.524382
     28          8           0       -3.006993    2.625331    0.561862
 ---------------------------------------------------------------------

 SCF Done:  E(RHF) =  -868.339672668     A.U. after   16 cycles
 E2 =    -0.2599905347D+01 EUMP2 =    -0.87093957801546D+03

 The electronic state is 1-A.
 Alpha  occ. eigenvalues --  -20.61107 -20.61070 -20.60313 -20.60304 -15.86112
 Alpha  occ. eigenvalues --  -15.85346 -11.31257 -11.30330 -11.27828 -11.27745
 Alpha  occ. eigenvalues --  -11.27504 -11.26936 -11.26799 -11.26773 -11.26711
 Alpha  occ. eigenvalues --  -11.26533 -11.25901 -11.25669  -1.60156  -1.59399
 Alpha  occ. eigenvalues --   -1.39717  -1.38958  -1.19409  -1.18472  -1.08850
 Alpha  occ. eigenvalues --   -1.07947  -1.04771  -1.03803  -0.95724  -0.94841
 Alpha  occ. eigenvalues --   -0.86182  -0.85240  -0.82565  -0.81679  -0.77631
 Alpha  occ. eigenvalues --   -0.76769  -0.72374  -0.71575  -0.71462  -0.70721
 Alpha  occ. eigenvalues --   -0.70515  -0.69599  -0.65065  -0.64767  -0.64127
 Alpha  occ. eigenvalues --   -0.63823  -0.62113  -0.61173  -0.55290  -0.54355
 Alpha  occ. eigenvalues --   -0.53127  -0.52854  -0.52163  -0.51910  -0.49123
 Alpha  occ. eigenvalues --   -0.49093  -0.48345  -0.48299  -0.45167  -0.44445
 Alpha  occ. eigenvalues --   -0.37391  -0.36456  -0.36363  -0.35283
 Alpha virt. eigenvalues --    0.04846   0.05763   0.11287   0.12282   0.16396
 Alpha virt. eigenvalues --    0.17343   0.21457   0.22338   0.27394   0.28144
 Alpha virt. eigenvalues --    0.28396   0.29183   0.31001   0.31844   0.32469

 Mulliken charges:
               1
     1  C   -0.170451
     2  C   -0.218850
     3  C   -0.171624
     4  C    0.157667
     5  C   -0.171549
     6  C   -0.218784
     7  H    0.226641
     8  H    0.223090
     9  H    0.273934
    10  H    0.279623
    11  H    0.228638
    12  N    0.490431
    13  O   -0.464344
    14  O   -0.463605
    15  C   -0.171889
    16  C   -0.220199
    17  C   -0.174618
    18  C    0.151984
    19  C   -0.157031
    20  C   -0.204825
    21  H    0.224771
    22  H    0.218970
    23  H    0.270258
    24  H    0.275543
    25  H    0.228244
    26  N    0.486760
    27  O   -0.463142
    28  O   -0.465644
 Sum of Mulliken charges =  -0.00000

 Dipole moment (field-independent basis, Debye):
    X=              3.4541    Y=             -1.2888    Z=              2.9959  Tot=              4.7505
 Quadrupole moment (field-independent basis, Debye-Ang):
   XX=            -89.7533   YY=           -109.0645   ZZ=           -101.1324
   XY=             21.8029   XZ=              1.3780   YZ=             -1.1220

 Normal termination of Gaussian 16 at Wed May  5 17:59:35 2021.
