 Gaussian 16, Revision A.03,
 Gaussian 16:  EM64L-G16RevA.03 25-Dec-2016

 -------------
 #p 6-31g* mp2
 -------------

 ------------------------------------------------------
 Input file generated by CHIRIPA (05-May-2021 14:51:13)
 ------------------------------------------------------
 Symbolic Z-matrix:
 Charge =  0 Multiplicity = 1

                         Standard orientation:
 ---------------------------------------------------------------------
 Center     Atomic      Atomic             Coordinates (Angstroms)
 Number     Number       Type             X           Y           Z
 ---------------------------------------------------------------------
      1          6           0        2.627099    0.693728    0.118201
      2          6           0        2.381220    2.174605   -0.172539
      3          6           0        2.862185    3.086520    0.956565
      4          1           0        2.119135    0.420935    1.053349
      5          1           0        3.700935    0.533870    0.287662
      6          1           0        1.308345    2.331383   -0.342766
      7          1           0        2.889669    2.443858   -1.107204
      8          1           0        3.936753    2.959422    1.123151
      9          1           0        2.346445    2.846308    1.891932
     10          1           0        2.676664    4.140631    0.727891
     11          6           0        2.151631   -0.230537   -1.001349
     12          6           0        2.397511   -1.711414   -0.710609
     13          6           0        1.916545   -2.623330   -1.839714
     14          1           0        1.077795   -0.070679   -1.170810
     15          1           0        2.659595    0.042256   -1.936497
     16          1           0        1.889061   -1.980667    0.224056
     17          1           0        3.470385   -1.868192   -0.540382
     18          1           0        2.432286   -2.383117   -2.775080
     19          1           0        0.841977   -2.496232   -2.006299
     20          1           0        2.102066   -3.677441   -1.611040
     21          6           0       -2.145606   -0.906130    0.704283
     22          6           0       -0.972693   -0.789564    1.678282
     23          6           0       -0.496295   -2.147397    2.195125
     24          1           0       -2.977438   -1.422947    1.202179
     25          1           0       -1.847592   -1.538254   -0.143658
     26          1           0       -1.272378   -0.156715    2.523449
     27          1           0       -0.143625   -0.272794    1.178071
     28          1           0       -0.170958   -2.782957    1.365172
     29          1           0       -1.306124   -2.666220    2.718196
     30          1           0        0.342684   -2.040686    2.889809
     31          6           0       -2.633124    0.442940    0.178865
     32          6           0       -3.806037    0.326373   -0.795134
     33          6           0       -4.282435    1.684207   -1.311977
     34          1           0       -2.931138    1.075063    1.026805
     35          1           0       -1.801292    0.959757   -0.319031
     36          1           0       -4.635105   -0.190397   -0.294923
     37          1           0       -3.506353   -0.306475   -1.640302
     38          1           0       -3.472606    2.203029   -1.835048
     39          1           0       -4.607772    2.319767   -0.482025
     40          1           0       -5.121414    1.577495   -2.006661
 ---------------------------------------------------------------------

 SCF Done:  E(RHF) =  -470.732543797     A.U. after   11 cycles
 E2 =    -0.1585335433D+01 EUMP2 =    -0.47231787922988D+03

 The electronic state is 1-A.
 Alpha  occ. eigenvalues --  -11.21650 -11.21645 -11.21631 -11.21585 -11.21480
 Alpha  occ. eigenvalues --  -11.21436 -11.21420 -11.21371 -11.21140 -11.21118
 Alpha  occ. eigenvalues --  -11.21104 -11.21079  -1.08555  -1.08417  -1.03618
 Alpha  occ. eigenvalues --   -1.03531  -0.96047  -0.96013  -0.87067  -0.87017
 Alpha  occ. eigenvalues --   -0.79711  -0.79570  -0.78328  -0.78273  -0.65630
 Alpha  occ. eigenvalues --   -0.64713  -0.61204  -0.60704  -0.59419  -0.59366
 Alpha  occ. eigenvalues --   -0.57700  -0.57578  -0.55365  -0.55303  -0.52733
 Alpha  occ. eigenvalues --   -0.52694  -0.52469  -0.52431  -0.50082  -0.49881
 Alpha  occ. eigenvalues --   -0.47991  -0.47934  -0.46874  -0.46433  -0.46086
 Alpha  occ. eigenvalues --   -0.45796  -0.45713  -0.45482  -0.43847  -0.43807
 Alpha virt. eigenvalues --    0.18711   0.22431   0.23071   0.24800   0.25290
 Alpha virt. eigenvalues --    0.26365   0.26544   0.28300   0.29183   0.30585
 Alpha virt. eigenvalues --    0.30657   0.31013   0.31689   0.31798   0.32419

 Mulliken charges:
               1
     1  C   -0.302943
     2  C   -0.300552
     3  C   -0.475739
     4  H    0.153102
     5  H    0.150522
     6  H    0.152063
     7  H    0.152205
     8  H    0.155201
     9  H    0.155653
    10  H    0.160367
    11  C   -0.301184
    12  C   -0.306877
    13  C   -0.476297
    14  H    0.149915
    15  H    0.150613
    16  H    0.160566
    17  H    0.152184
    18  H    0.155564
    19  H    0.154413
    20  H    0.160491
    21  C   -0.298170
    22  C   -0.310080
    23  C   -0.478744
    24  H    0.150252
    25  H    0.149521
    26  H    0.152148
    27  H    0.162197
    28  H    0.157435
    29  H    0.156242
    30  H    0.160225
    31  C   -0.300252
    32  C   -0.299640
    33  C   -0.475817
    34  H    0.149984
    35  H    0.150022
    36  H    0.152253
    37  H    0.152045
    38  H    0.155338
    39  H    0.155267
    40  H    0.160508
 Sum of Mulliken charges =  -0.00000

 Dipole moment (field-independent basis, Debye):
    X=              0.0001    Y=             -0.0049    Z=              0.0230  Tot=              0.0235
 Quadrupole moment (field-independent basis, Debye-Ang):
   XX=            -83.7075   YY=            -86.1886   ZZ=            -84.7230
   XY=              0.1829   XZ=             -1.3361   YZ=             -0.1580

 Normal termination of Gaussian 16 at Wed May  5 19:59:10 2021.
