 Gaussian 16, Revision A.03,
 Gaussian 16:  EM64L-G16RevA.03 25-Dec-2016

 -------------
 #p 6-31g* mp2
 -------------

 ------------------------------------------------------
 Input file generated by CHIRIPA (05-May-2021 14:55:24)
 ------------------------------------------------------
 Symbolic Z-matrix:
 Charge =  0 Multiplicity = 1

                         Standard orientation:
 ---------------------------------------------------------------------
 Center     Atomic      Atomic             Coordinates (Angstroms)
 Number     Number       Type             X           Y           Z
 ---------------------------------------------------------------------
      1          6           0        0.411807   -2.128964    0.565670
      2          6           0        1.149548   -2.175967   -0.621786
      3          6           0        2.143297   -1.226652   -0.878321
      4          6           0        2.373958   -0.239729    0.078795
      5          6           0        1.655808   -0.166357    1.271341
      6          6           0        0.666842   -1.126077    1.506784
      7          1           0       -0.358303   -2.870456    0.756760
      8          1           0        0.953653   -2.953687   -1.354467
      9          1           0        2.729326   -1.239622   -1.789265
     10          1           0        1.873928    0.620878    1.982750
     11          1           0        0.095464   -1.087119    2.429852
     12          7           0        3.423463    0.770776   -0.181623
     13          8           0        3.607391    1.630154    0.677608
     14          8           0        4.042265    0.684298   -1.240038
     15          6           0       -2.753767    1.176648    0.229239
     16          6           0       -2.507533    2.386852   -0.672295
     17          6           0       -2.382742    3.693057    0.112593
     18          1           0       -3.668565    1.343355    0.814302
     19          1           0       -1.930861    1.093622    0.952652
     20          1           0       -3.329955    2.466760   -1.394687
     21          1           0       -1.593320    2.217161   -1.255420
     22          1           0       -1.550592    3.638275    0.821908
     23          1           0       -3.297095    3.889291    0.681848
     24          1           0       -2.207023    4.545184   -0.551382
     25          6           0       -2.880758   -0.136592   -0.540827
     26          6           0       -3.126992   -1.346794    0.360706
     27          6           0       -3.251783   -2.652999   -0.424182
     28          1           0       -3.703664   -0.053565   -1.264242
     29          1           0       -1.965960   -0.303297   -1.125891
     30          1           0       -4.041206   -1.177105    0.943831
     31          1           0       -2.304569   -1.426703    1.083099
     32          1           0       -2.337429   -2.849234   -0.993437
     33          1           0       -4.083934   -2.598217   -1.133496
     34          1           0       -3.427502   -3.505126    0.239793
 ---------------------------------------------------------------------

 SCF Done:  E(RHF) =  -669.534521222     A.U. after   15 cycles
 E2 =    -0.2094603336D+01 EUMP2 =    -0.67162912455803D+03

 The electronic state is 1-A.
 Alpha  occ. eigenvalues --  -20.60840 -20.60835 -15.85897 -11.31287 -11.27884
 Alpha  occ. eigenvalues --  -11.27880 -11.27579 -11.26883 -11.26873 -11.22406
 Alpha  occ. eigenvalues --  -11.22082 -11.21877 -11.21810 -11.21730 -11.21182
 Alpha  occ. eigenvalues --   -1.59916  -1.39469  -1.19481  -1.09002  -1.08791
 Alpha  occ. eigenvalues --   -1.04887  -1.04063  -0.96510  -0.95688  -0.87525
 Alpha  occ. eigenvalues --   -0.86284  -0.82524  -0.80147  -0.78694  -0.77563
 Alpha  occ. eigenvalues --   -0.72114  -0.71242  -0.70642  -0.65627  -0.65127
 Alpha  occ. eigenvalues --   -0.64841  -0.62232  -0.61475  -0.59913  -0.58095
 Alpha  occ. eigenvalues --   -0.55975  -0.55135  -0.53235  -0.53169  -0.52971
 Alpha  occ. eigenvalues --   -0.52925  -0.50467  -0.48875  -0.48867  -0.48444
 Alpha  occ. eigenvalues --   -0.47193  -0.46237  -0.46134  -0.44869  -0.44274
 Alpha  occ. eigenvalues --   -0.37383  -0.36469
 Alpha virt. eigenvalues --    0.04945   0.10987   0.16338   0.19891   0.22968
 Alpha virt. eigenvalues --    0.23894   0.25130   0.26321   0.26839   0.28353
 Alpha virt. eigenvalues --    0.29132   0.30268   0.30872   0.31530   0.32000

 Mulliken charges:
               1
     1  C   -0.169299
     2  C   -0.222585
     3  C   -0.170485
     4  C    0.157952
     5  C   -0.171953
     6  C   -0.218652
     7  H    0.232727
     8  H    0.224307
     9  H    0.276201
    10  H    0.276107
    11  H    0.224574
    12  N    0.488135
    13  O   -0.460182
    14  O   -0.460149
    15  C   -0.298993
    16  C   -0.300478
    17  C   -0.475938
    18  H    0.149068
    19  H    0.147500
    20  H    0.152055
    21  H    0.154796
    22  H    0.156079
    23  H    0.154242
    24  H    0.163056
    25  C   -0.298702
    26  C   -0.301304
    27  C   -0.480414
    28  H    0.150916
    29  H    0.153490
    30  H    0.155204
    31  H    0.143360
    32  H    0.148741
    33  H    0.162330
    34  H    0.158294
 Sum of Mulliken charges =  -0.00000

 Dipole moment (field-independent basis, Debye):
    X=             -3.6802    Y=             -3.4863    Z=              0.8572  Tot=              5.1413
 Quadrupole moment (field-independent basis, Debye-Ang):
   XX=           -111.7965   YY=            -93.6430   ZZ=            -91.1017
   XY=             -8.5176   XZ=              1.1133   YZ=              1.2318

 Normal termination of Gaussian 16 at Thu May  6 07:58:18 2021.
