 Gaussian 16, Revision A.03,
 Gaussian 16:  EM64L-G16RevA.03 25-Dec-2016

 -------------
 #p 6-31g* mp2
 -------------

 ------------------------------------------------------
 Input file generated by CHIRIPA (05-May-2021 14:53:17)
 ------------------------------------------------------
 Symbolic Z-matrix:
 Charge =  0 Multiplicity = 1

                         Standard orientation:
 ---------------------------------------------------------------------
 Center     Atomic      Atomic             Coordinates (Angstroms)
 Number     Number       Type             X           Y           Z
 ---------------------------------------------------------------------
      1          6           0        2.886227   -0.897784    0.014112
      2          6           0        2.066671   -1.539555   -1.105908
      3          6           0        1.106544   -2.614080   -0.594688
      4          1           0        3.453475   -1.678906    0.538539
      5          1           0        2.202585   -0.458183    0.753557
      6          1           0        2.751674   -1.976607   -1.843724
      7          1           0        1.501456   -0.756789   -1.627853
      8          1           0        0.400246   -2.188516    0.125479
      9          1           0        1.657567   -3.415265   -0.091619
     10          1           0        0.530734   -3.059622   -1.411875
     11          6           0        3.850706    0.178390   -0.481223
     12          6           0        4.670262    0.820160    0.638796
     13          6           0        5.630389    1.894686    0.127576
     14          1           0        4.534348   -0.261211   -1.220668
     15          1           0        3.283458    0.959512   -1.005651
     16          1           0        5.235477    0.037395    1.160741
     17          1           0        3.985259    1.257213    1.376613
     18          1           0        5.079366    2.695870   -0.375492
     19          1           0        6.336687    1.469122   -0.592590
     20          1           0        6.206199    2.340228    0.944763
     21          6           0       -2.293197   -2.128335    0.850627
     22          6           0       -1.716111   -1.104063    1.608492
     23          6           0       -1.896974    0.234447    1.247621
     24          6           0       -2.664331    0.513940    0.117870
     25          6           0       -3.252224   -0.484255   -0.657552
     26          6           0       -3.058063   -1.815713   -0.277987
     27          1           0       -2.147534   -3.165382    1.138221
     28          1           0       -1.121616   -1.343892    2.485478
     29          1           0       -1.461621    1.047092    1.816386
     30          1           0       -3.839680   -0.214016   -1.526623
     31          1           0       -3.507431   -2.609112   -0.868437
     32          7           0       -2.862842    1.927228   -0.274064
     33          8           0       -3.543246    2.147149   -1.273724
     34          8           0       -2.334271    2.788281    0.425821
 ---------------------------------------------------------------------

 SCF Done:  E(RHF) =  -669.534338915     A.U. after   15 cycles
 E2 =    -0.2093028002D+01 EUMP2 =    -0.67162736691685D+03

 The electronic state is 1-A.
 Alpha  occ. eigenvalues --  -20.60831 -20.60826 -15.85887 -11.31266 -11.27860
 Alpha  occ. eigenvalues --  -11.27854 -11.27570 -11.26838 -11.26828 -11.21806
 Alpha  occ. eigenvalues --  -11.21692 -11.21620 -11.21472 -11.21288 -11.21083
 Alpha  occ. eigenvalues --   -1.59908  -1.39461  -1.19458  -1.08854  -1.08585
 Alpha  occ. eigenvalues --   -1.04863  -1.03680  -0.96152  -0.95667  -0.87172
 Alpha  occ. eigenvalues --   -0.86255  -0.82502  -0.79761  -0.78408  -0.77546
 Alpha  occ. eigenvalues --   -0.72105  -0.71233  -0.70553  -0.65227  -0.65104
 Alpha  occ. eigenvalues --   -0.64854  -0.62203  -0.61100  -0.59515  -0.57766
 Alpha  occ. eigenvalues --   -0.55552  -0.55345  -0.53304  -0.52944  -0.52809
 Alpha  occ. eigenvalues --   -0.52473  -0.50035  -0.48864  -0.48858  -0.48072
 Alpha  occ. eigenvalues --   -0.46781  -0.45951  -0.45868  -0.44864  -0.43948
 Alpha  occ. eigenvalues --   -0.37308  -0.36444
 Alpha virt. eigenvalues --    0.04974   0.11093   0.16412   0.21115   0.22788
 Alpha virt. eigenvalues --    0.24248   0.26263   0.27023   0.27499   0.27864
 Alpha virt. eigenvalues --    0.28589   0.30804   0.31412   0.31720   0.31933

 Mulliken charges:
               1
     1  C   -0.297568
     2  C   -0.298371
     3  C   -0.483972
     4  H    0.148143
     5  H    0.145553
     6  H    0.152161
     7  H    0.154853
     8  H    0.162171
     9  H    0.150734
    10  H    0.156834
    11  C   -0.298988
    12  C   -0.299612
    13  C   -0.476066
    14  H    0.149896
    15  H    0.152981
    16  H    0.150707
    17  H    0.151520
    18  H    0.157554
    19  H    0.155065
    20  H    0.160430
    21  C   -0.167456
    22  C   -0.222799
    23  C   -0.170576
    24  C    0.158185
    25  C   -0.170500
    26  C   -0.217367
    27  H    0.227968
    28  H    0.225129
    29  H    0.275891
    30  H    0.276064
    31  H    0.224024
    32  N    0.488076
    33  O   -0.460195
    34  O   -0.460469
 Sum of Mulliken charges =  -0.00000

 Dipole moment (field-independent basis, Debye):
    X=              0.6172    Y=             -4.9232    Z=              1.3656  Tot=              5.1462
 Quadrupole moment (field-independent basis, Debye-Ang):
   XX=            -97.4105   YY=           -100.3934   ZZ=            -91.7351
   XY=             14.0171   XZ=             -1.1399   YZ=              1.5746

 Normal termination of Gaussian 16 at Thu May  6 13:57:08 2021.
