 Gaussian 16, Revision A.03,
 Gaussian 16:  EM64L-G16RevA.03 25-Dec-2016

 -------------
 #p 6-31g* mp2
 -------------

 ------------------------------------------------------
 Input file generated by CHIRIPA (05-May-2021 14:53:11)
 ------------------------------------------------------
 Symbolic Z-matrix:
 Charge =  0 Multiplicity = 1

                         Standard orientation:
 ---------------------------------------------------------------------
 Center     Atomic      Atomic             Coordinates (Angstroms)
 Number     Number       Type             X           Y           Z
 ---------------------------------------------------------------------
      1          6           0        4.159324   -0.375079   -0.012155
      2          6           0        5.561955   -0.842212    0.378230
      3          6           0        5.743755   -2.353315    0.232257
      4          1           0        3.419532   -0.896669    0.610419
      5          1           0        3.957801   -0.670909   -1.051033
      6          1           0        5.761300   -0.544374    1.415616
      7          1           0        6.298504   -0.319307   -0.245214
      8          1           0        5.571506   -2.663791   -0.803376
      9          1           0        5.031250   -2.890137    0.866891
     10          1           0        6.753491   -2.665513    0.516554
     11          6           0        3.962111    1.133252    0.128456
     12          6           0        2.559480    1.600385   -0.261928
     13          6           0        2.377680    3.111489   -0.115956
     14          1           0        4.163634    1.429082    1.167335
     15          1           0        4.701902    1.654842   -0.494117
     16          1           0        1.822931    1.077481    0.361516
     17          1           0        2.360135    1.302547   -1.299314
     18          1           0        3.090185    3.648310   -0.750589
     19          1           0        2.549929    3.421964    0.919677
     20          1           0        1.367943    3.423686   -0.400253
     21          6           0       -0.730479   -0.752181   -0.486817
     22          6           0       -1.644988   -1.810002   -0.452033
     23          6           0       -3.000388   -1.569064   -0.208336
     24          6           0       -3.408515   -0.252075   -0.002759
     25          6           0       -2.521661    0.823085   -0.031251
     26          6           0       -1.170959    0.558676   -0.276686
     27          1           0        0.320603   -0.948463   -0.676802
     28          1           0       -1.305749   -2.829043   -0.614874
     29          1           0       -3.729806   -2.369265   -0.175967
     30          1           0       -2.889783    1.828243    0.134763
     31          1           0       -0.462987    1.382157   -0.303130
     32          7           0       -4.840930    0.015419    0.256152
     33          8           0       -5.175203    1.184698    0.434154
     34          8           0       -5.602260   -0.949263    0.276183
 ---------------------------------------------------------------------

 SCF Done:  E(RHF) =  -669.535317073     A.U. after   15 cycles
 E2 =    -0.2092237421D+01 EUMP2 =    -0.67162755449396D+03

 The electronic state is 1-A.
 Alpha  occ. eigenvalues --  -20.60700 -20.60695 -15.85752 -11.31099 -11.27668
 Alpha  occ. eigenvalues --  -11.27653 -11.27358 -11.26672 -11.26604 -11.22945
 Alpha  occ. eigenvalues --  -11.22470 -11.22424 -11.22380 -11.22255 -11.21794
 Alpha  occ. eigenvalues --   -1.59776  -1.39330  -1.19264  -1.09497  -1.08656
 Alpha  occ. eigenvalues --   -1.04687  -1.04547  -0.96985  -0.95498  -0.87997
 Alpha  occ. eigenvalues --   -0.86069  -0.82330  -0.80679  -0.79321  -0.77383
 Alpha  occ. eigenvalues --   -0.71970  -0.71099  -0.70359  -0.66126  -0.64912
 Alpha  occ. eigenvalues --   -0.64706  -0.62144  -0.61861  -0.60330  -0.58598
 Alpha  occ. eigenvalues --   -0.56237  -0.55146  -0.53686  -0.53422  -0.52998
 Alpha  occ. eigenvalues --   -0.52719  -0.50905  -0.48965  -0.48727  -0.48719
 Alpha  occ. eigenvalues --   -0.47678  -0.46827  -0.46737  -0.44818  -0.44740
 Alpha  occ. eigenvalues --   -0.37233  -0.36268
 Alpha virt. eigenvalues --    0.05139   0.11301   0.16633   0.19672   0.22204
 Alpha virt. eigenvalues --    0.23101   0.24639   0.25654   0.25771   0.28504
 Alpha virt. eigenvalues --    0.29435   0.30399   0.30542   0.31383   0.32732

 Mulliken charges:
               1
     1  C   -0.301014
     2  C   -0.300215
     3  C   -0.476519
     4  H    0.147243
     5  H    0.148098
     6  H    0.154538
     7  H    0.154452
     8  H    0.155194
     9  H    0.155016
    10  H    0.163529
    11  C   -0.297292
    12  C   -0.311371
    13  C   -0.478467
    14  H    0.153743
    15  H    0.153874
    16  H    0.149125
    17  H    0.151670
    18  H    0.161735
    19  H    0.160942
    20  H    0.156857
    21  C   -0.176093
    22  C   -0.218803
    23  C   -0.171238
    24  C    0.158623
    25  C   -0.172537
    26  C   -0.225986
    27  H    0.229722
    28  H    0.223080
    29  H    0.275179
    30  H    0.275406
    31  H    0.234852
    32  N    0.488048
    33  O   -0.460644
    34  O   -0.460743
 Sum of Mulliken charges =  -0.00000

 Dipole moment (field-independent basis, Debye):
    X=              5.3750    Y=             -0.8700    Z=             -0.8781  Tot=              5.5153
 Quadrupole moment (field-independent basis, Debye-Ang):
   XX=           -128.4209   YY=            -90.2579   ZZ=            -94.6684
   XY=              3.6630   XZ=              3.0402   YZ=              0.4943

 Normal termination of Gaussian 16 at Wed May  5 20:03:55 2021.
