 Gaussian 16, Revision A.03,
 Gaussian 16:  EM64L-G16RevA.03 25-Dec-2016

 -------------
 #p 6-31g* mp2
 -------------

 ------------------------------------------------------
 Input file generated by CHIRIPA (05-May-2021 14:57:26)
 ------------------------------------------------------
 Symbolic Z-matrix:
 Charge =  0 Multiplicity = 1

                         Standard orientation:
 ---------------------------------------------------------------------
 Center     Atomic      Atomic             Coordinates (Angstroms)
 Number     Number       Type             X           Y           Z
 ---------------------------------------------------------------------
      1          6           0        0.586198   -1.497843   -0.705748
      2          6           0        1.683299   -2.242842   -0.260926
      3          6           0        2.895789   -1.613235    0.035740
      4          6           0        2.976369   -0.230792   -0.124411
      5          6           0        1.901166    0.538961   -0.565671
      6          6           0        0.698435   -0.111763   -0.856435
      7          1           0       -0.351904   -1.995138   -0.933912
      8          1           0        1.599023   -3.319424   -0.142974
      9          1           0        3.760893   -2.165730    0.381807
     10          1           0        2.015627    1.610731   -0.673488
     11          1           0       -0.151936    0.469356   -1.201711
     12          7           0        4.254813    0.446922    0.186532
     13          8           0        4.300095    1.666055    0.037197
     14          8           0        5.187367   -0.253851    0.573696
     15          6           0       -1.926148    2.719612    0.073618
     16          6           0       -1.818816    1.989739    1.262015
     17          6           0       -2.280609    0.671913    1.330049
     18          6           0       -2.846827    0.112677    0.185523
     19          6           0       -2.967846    0.814039   -1.013115
     20          6           0       -2.499310    2.130471   -1.058158
     21          1           0       -1.564798    3.742790    0.029698
     22          1           0       -1.374137    2.444708    2.142532
     23          1           0       -2.209940    0.084081    2.237175
     24          1           0       -3.415836    0.333470   -1.874380
     25          1           0       -2.583968    2.694911   -1.982434
     26          7           0       -3.339277   -1.281710    0.245378
     27          8           0       -3.834136   -1.751575   -0.776864
     28          8           0       -3.221072   -1.878362    1.313400
 ---------------------------------------------------------------------

 SCF Done:  E(RHF) =  -868.337811971     A.U. after   16 cycles
 E2 =    -0.2603819637D+01 EUMP2 =    -0.87094163160785D+03

 The electronic state is 1-A.
 Alpha  occ. eigenvalues --  -20.61933 -20.61919 -20.60813 -20.60795 -15.86969
 Alpha  occ. eigenvalues --  -15.85852 -11.32327 -11.31107 -11.28917 -11.28831
 Alpha  occ. eigenvalues --  -11.28585 -11.27913 -11.27803 -11.27640 -11.27603
 Alpha  occ. eigenvalues --  -11.27257 -11.26584 -11.26478  -1.61017  -1.59884
 Alpha  occ. eigenvalues --   -1.40559  -1.39441  -1.20545  -1.19233  -1.09905
 Alpha  occ. eigenvalues --   -1.08641  -1.05898  -1.04612  -0.96728  -0.95507
 Alpha  occ. eigenvalues --   -0.87267  -0.86017  -0.83532  -0.82342  -0.78594
 Alpha  occ. eigenvalues --   -0.77429  -0.73167  -0.72417  -0.72069  -0.71549
 Alpha  occ. eigenvalues --   -0.71207  -0.70294  -0.66133  -0.65827  -0.64874
 Alpha  occ. eigenvalues --   -0.64667  -0.63197  -0.62038  -0.56335  -0.55172
 Alpha  occ. eigenvalues --   -0.54394  -0.53922  -0.52937  -0.52336  -0.49943
 Alpha  occ. eigenvalues --   -0.49929  -0.48839  -0.48806  -0.45952  -0.44872
 Alpha  occ. eigenvalues --   -0.38574  -0.37680  -0.37065  -0.36117
 Alpha virt. eigenvalues --    0.03874   0.05084   0.10075   0.11457   0.15382
 Alpha virt. eigenvalues --    0.16632   0.20493   0.21752   0.26459   0.27264
 Alpha virt. eigenvalues --    0.27775   0.28158   0.30206   0.31445   0.31721

 Mulliken charges:
               1
     1  C   -0.179410
     2  C   -0.217643
     3  C   -0.172939
     4  C    0.158654
     5  C   -0.177471
     6  C   -0.220774
     7  H    0.231652
     8  H    0.226893
     9  H    0.275114
    10  H    0.269466
    11  H    0.231217
    12  N    0.488086
    13  O   -0.463764
    14  O   -0.459887
    15  C   -0.173955
    16  C   -0.215897
    17  C   -0.165988
    18  C    0.156710
    19  C   -0.184392
    20  C   -0.225457
    21  H    0.232274
    22  H    0.231046
    23  H    0.280156
    24  H    0.278376
    25  H    0.228819
    26  N    0.485411
    27  O   -0.460560
    28  O   -0.455736
 Sum of Mulliken charges =  -0.00000

 Dipole moment (field-independent basis, Debye):
    X=             -3.0796    Y=              2.5794    Z=             -1.0958  Tot=              4.1639
 Quadrupole moment (field-independent basis, Debye-Ang):
   XX=           -141.7460   YY=            -98.7625   ZZ=           -100.3136
   XY=            -22.6374   XZ=              0.0773   YZ=              0.0316

 Normal termination of Gaussian 16 at Wed May  5 21:12:44 2021.
