 Gaussian 16, Revision A.03,
 Gaussian 16:  EM64L-G16RevA.03 25-Dec-2016

 -------------
 #p 6-31g* mp2
 -------------

 ------------------------------------------------------
 Input file generated by CHIRIPA (05-May-2021 14:51:09)
 ------------------------------------------------------
 Symbolic Z-matrix:
 Charge =  0 Multiplicity = 1

                         Standard orientation:
 ---------------------------------------------------------------------
 Center     Atomic      Atomic             Coordinates (Angstroms)
 Number     Number       Type             X           Y           Z
 ---------------------------------------------------------------------
      1          6           0        3.152162   -0.026673    0.239084
      2          6           0        4.431662    0.189004   -0.569834
      3          6           0        5.097916    1.533242   -0.275004
      4          1           0        2.447824    0.788401    0.023427
      5          1           0        3.388296    0.039477    1.310186
      6          1           0        4.193434    0.121091   -1.639063
      7          1           0        5.132962   -0.626782   -0.352372
      8          1           0        5.363782    1.607282    0.784446
      9          1           0        4.418916    2.359404   -0.509555
     10          1           0        6.010704    1.666649   -0.863970
     11          6           0        2.474576   -1.366107   -0.044679
     12          6           0        1.195076   -1.581783    0.764239
     13          6           0        0.528822   -2.926021    0.469409
     14          1           0        2.238442   -1.432257   -1.115781
     15          1           0        3.178914   -2.181180    0.170977
     16          1           0        0.493776   -0.765998    0.546777
     17          1           0        1.433304   -1.513871    1.833468
     18          1           0        1.207822   -3.752184    0.703960
     19          1           0        0.262956   -3.000062   -0.590041
     20          1           0       -0.383966   -3.059428    1.058375
     21          6           0       -2.730213   -0.006593   -0.384138
     22          6           0       -3.871119   -0.953229   -0.009707
     23          6           0       -3.690479   -2.355768   -0.591126
     24          1           0       -2.657745    0.055178   -1.478614
     25          1           0       -1.780086   -0.431162   -0.031440
     26          1           0       -4.818966   -0.526332   -0.361789
     27          1           0       -3.941004   -1.012605    1.084005
     28          1           0       -2.759858   -2.805505   -0.230179
     29          1           0       -3.642809   -2.316470   -1.684187
     30          1           0       -4.517259   -3.015989   -0.311118
     31          6           0       -2.896526    1.399373    0.189733
     32          6           0       -1.755619    2.346009   -0.184698
     33          6           0       -1.936259    3.748547    0.396721
     34          1           0       -3.846652    1.823941   -0.162965
     35          1           0       -2.968993    1.337602    1.284209
     36          1           0       -1.685735    2.405385   -1.278411
     37          1           0       -0.807772    1.919111    0.167383
     38          1           0       -1.983929    3.709249    1.489783
     39          1           0       -2.866879    4.198285    0.035773
     40          1           0       -1.109479    4.408768    0.116712
 ---------------------------------------------------------------------

 SCF Done:  E(RHF) =  -470.733123154     A.U. after   11 cycles
 E2 =    -0.1583938597D+01 EUMP2 =    -0.47231706175083D+03

 The electronic state is 1-A.
 Alpha  occ. eigenvalues --  -11.21656 -11.21640 -11.21620 -11.21578 -11.21439
 Alpha  occ. eigenvalues --  -11.21399 -11.21379 -11.21329 -11.21145 -11.21092
 Alpha  occ. eigenvalues --  -11.21083 -11.21005  -1.08482  -1.08419  -1.03584
 Alpha  occ. eigenvalues --   -1.03516  -0.96025  -0.95970  -0.87053  -0.86973
 Alpha  occ. eigenvalues --   -0.79647  -0.79587  -0.78351  -0.78185  -0.65256
 Alpha  occ. eigenvalues --   -0.64931  -0.61050  -0.60864  -0.59419  -0.59308
 Alpha  occ. eigenvalues --   -0.57636  -0.57583  -0.55309  -0.55272  -0.52750
 Alpha  occ. eigenvalues --   -0.52664  -0.52448  -0.52376  -0.50046  -0.49829
 Alpha  occ. eigenvalues --   -0.47968  -0.47900  -0.46760  -0.46620  -0.46091
 Alpha  occ. eigenvalues --   -0.45778  -0.45760  -0.45263  -0.43819  -0.43777
 Alpha virt. eigenvalues --    0.20068   0.22478   0.23442   0.24322   0.25706
 Alpha virt. eigenvalues --    0.26749   0.26918   0.27301   0.28075   0.29798
 Alpha virt. eigenvalues --    0.30495   0.31405   0.31698   0.32018   0.32328

 Mulliken charges:
               1
     1  C   -0.299309
     2  C   -0.299683
     3  C   -0.475776
     4  H    0.150354
     5  H    0.149504
     6  H    0.152147
     7  H    0.152022
     8  H    0.155167
     9  H    0.155328
    10  H    0.160335
    11  C   -0.297670
    12  C   -0.308546
    13  C   -0.478475
    14  H    0.150088
    15  H    0.149859
    16  H    0.158667
    17  H    0.152092
    18  H    0.155915
    19  H    0.157146
    20  H    0.161406
    21  C   -0.308374
    22  C   -0.298662
    23  C   -0.480652
    24  H    0.149056
    25  H    0.159790
    26  H    0.151802
    27  H    0.151445
    28  H    0.160689
    29  H    0.154655
    30  H    0.159891
    31  C   -0.297542
    32  C   -0.302430
    33  C   -0.475600
    34  H    0.149711
    35  H    0.149647
    36  H    0.151816
    37  H    0.153098
    38  H    0.155487
    39  H    0.155419
    40  H    0.160181
 Sum of Mulliken charges =  -0.00000

 Dipole moment (field-independent basis, Debye):
    X=              0.0343    Y=             -0.0146    Z=              0.0009  Tot=              0.0373
 Quadrupole moment (field-independent basis, Debye-Ang):
   XX=            -84.6685   YY=            -86.4586   ZZ=            -83.6425
   XY=             -1.0134   XZ=              0.7390   YZ=             -1.0338

 Normal termination of Gaussian 16 at Thu May  6 02:07:20 2021.
