 Gaussian 16, Revision A.03,
 Gaussian 16:  EM64L-G16RevA.03 25-Dec-2016

 -------------
 #p 6-31g* mp2
 -------------

 ------------------------------------------------------
 Input file generated by CHIRIPA (05-May-2021 14:53:17)
 ------------------------------------------------------
 Symbolic Z-matrix:
 Charge =  0 Multiplicity = 1

                         Standard orientation:
 ---------------------------------------------------------------------
 Center     Atomic      Atomic             Coordinates (Angstroms)
 Number     Number       Type             X           Y           Z
 ---------------------------------------------------------------------
      1          6           0        5.157120    0.321117   -0.076992
      2          6           0        6.415721   -0.479825   -0.412251
      3          6           0        7.593560    0.409605   -0.811505
      4          1           0        4.878012    0.933802   -0.945128
      5          1           0        5.382854    1.020707    0.739717
      6          1           0        6.187310   -1.178668   -1.227152
      7          1           0        6.691756   -1.090819    0.456718
      8          1           0        7.849679    1.097358    0.000899
      9          1           0        7.342368    1.009009   -1.692538
     10          1           0        8.482763   -0.183475   -1.046946
     11          6           0        3.970982   -0.554099    0.324007
     12          6           0        2.712381    0.246844    0.659267
     13          6           0        1.534542   -0.642587    1.058521
     14          1           0        3.745249   -1.253689   -0.492702
     15          1           0        4.250090   -1.166783    1.192144
     16          1           0        2.436346    0.857838   -0.209702
     17          1           0        2.940792    0.945687    1.474167
     18          1           0        1.785734   -1.241990    1.939553
     19          1           0        1.278423   -1.330339    0.246116
     20          1           0        0.645339   -0.049506    1.293962
     21          6           0       -3.099301    2.565984    0.054911
     22          6           0       -4.376621    2.114346   -0.292935
     23          6           0       -4.646401    0.745327   -0.379855
     24          6           0       -3.610752   -0.148263   -0.111128
     25          6           0       -2.327786    0.270638    0.237890
     26          6           0       -2.080756    1.644313    0.318748
     27          1           0       -2.898565    3.631280    0.120079
     28          1           0       -5.169564    2.827844   -0.498376
     29          1           0       -5.626137    0.368262   -0.646985
     30          1           0       -1.557659   -0.464677    0.436972
     31          1           0       -1.087815    1.992187    0.589117
     32          7           0       -3.884314   -1.600047   -0.199938
     33          8           0       -2.954750   -2.366985    0.041633
     34          8           0       -5.023114   -1.943528   -0.509436
 ---------------------------------------------------------------------

 SCF Done:  E(RHF) =  -669.535346528     A.U. after   15 cycles
 E2 =    -0.2091306769D+01 EUMP2 =    -0.67162665329769D+03

 The electronic state is 1-A.
 Alpha  occ. eigenvalues --  -20.60706 -20.60700 -15.85757 -11.31106 -11.27696
 Alpha  occ. eigenvalues --  -11.27630 -11.27447 -11.26712 -11.26693 -11.22197
 Alpha  occ. eigenvalues --  -11.21830 -11.21785 -11.21770 -11.21681 -11.21268
 Alpha  occ. eigenvalues --   -1.59781  -1.39334  -1.19290  -1.08815  -1.08691
 Alpha  occ. eigenvalues --   -1.04699  -1.03950  -0.96408  -0.95524  -0.87429
 Alpha  occ. eigenvalues --   -0.86092  -0.82361  -0.80020  -0.78602  -0.77405
 Alpha  occ. eigenvalues --   -0.71978  -0.71104  -0.70412  -0.65437  -0.64950
 Alpha  occ. eigenvalues --   -0.64704  -0.62147  -0.61322  -0.59761  -0.58002
 Alpha  occ. eigenvalues --   -0.55666  -0.55204  -0.53172  -0.53025  -0.52818
 Alpha  occ. eigenvalues --   -0.52731  -0.50312  -0.48735  -0.48731  -0.48329
 Alpha  occ. eigenvalues --   -0.47028  -0.46149  -0.46053  -0.44742  -0.44204
 Alpha  occ. eigenvalues --   -0.37280  -0.36297
 Alpha virt. eigenvalues --    0.05125   0.11353   0.16607   0.19994   0.22686
 Alpha virt. eigenvalues --    0.23784   0.26009   0.26358   0.26798   0.28061
 Alpha virt. eigenvalues --    0.29119   0.29526   0.31114   0.31568   0.32324

 Mulliken charges:
               1
     1  C   -0.298625
     2  C   -0.300128
     3  C   -0.475923
     4  H    0.149379
     5  H    0.149255
     6  H    0.153296
     7  H    0.152908
     8  H    0.155049
     9  H    0.155144
    10  H    0.161436
    11  C   -0.299261
    12  C   -0.300584
    13  C   -0.481833
    14  H    0.152671
    15  H    0.151938
    16  H    0.149781
    17  H    0.151693
    18  H    0.162912
    19  H    0.163893
    20  H    0.148930
    21  C   -0.170592
    22  C   -0.219065
    23  C   -0.170470
    24  C    0.159136
    25  C   -0.177553
    26  C   -0.222581
    27  H    0.225324
    28  H    0.223175
    29  H    0.275321
    30  H    0.283969
    31  H    0.224558
    32  N    0.488058
    33  O   -0.460400
    34  O   -0.460811
 Sum of Mulliken charges =  -0.00000

 Dipole moment (field-independent basis, Debye):
    X=              1.1584    Y=              5.0207    Z=              0.3070  Tot=              5.1617
 Quadrupole moment (field-independent basis, Debye-Ang):
   XX=            -97.5651   YY=            -96.8902   ZZ=            -94.4779
   XY=            -20.5538   XZ=              0.7729   YZ=             -0.7721

 Normal termination of Gaussian 16 at Thu May  6 05:58:16 2021.
