 Gaussian 16, Revision A.03,
 Gaussian 16:  EM64L-G16RevA.03 25-Dec-2016

 -------------
 #p 6-31g* mp2
 -------------

 ------------------------------------------------------
 Input file generated by CHIRIPA (05-May-2021 14:53:13)
 ------------------------------------------------------
 Symbolic Z-matrix:
 Charge =  0 Multiplicity = 1

                         Standard orientation:
 ---------------------------------------------------------------------
 Center     Atomic      Atomic             Coordinates (Angstroms)
 Number     Number       Type             X           Y           Z
 ---------------------------------------------------------------------
      1          6           0       -5.176857    0.103397    0.052798
      2          6           0       -6.175497   -0.977313   -0.362855
      3          6           0       -7.629108   -0.524256   -0.223046
      4          1           0       -5.373241    0.394287    1.093837
      5          1           0       -5.342634    1.000886   -0.559107
      6          1           0       -6.006973   -1.872974    0.248707
      7          1           0       -5.976589   -1.265800   -1.402964
      8          1           0       -7.820098    0.355375   -0.846242
      9          1           0       -7.850655   -0.255248    0.814814
     10          1           0       -8.326030   -1.312095   -0.525485
     11          6           0       -3.719488   -0.334551   -0.081388
     12          6           0       -2.720848    0.746159    0.334265
     13          6           0       -1.267237    0.293102    0.194456
     14          1           0       -3.553711   -1.232040    0.530517
     15          1           0       -3.523103   -0.625441   -1.122426
     16          1           0       -2.919756    1.034646    1.374374
     17          1           0       -2.889372    1.641820   -0.277297
     18          1           0       -1.045690    0.024094   -0.843404
     19          1           0       -1.076247   -0.586529    0.817652
     20          1           0       -0.570315    1.080941    0.496895
     21          6           0        2.086635    2.191903    0.156882
     22          6           0        2.830481    1.922955   -0.996757
     23          6           0        3.603382    0.761598   -1.088525
     24          6           0        3.609370   -0.112881   -0.002919
     25          6           0        2.879030    0.127132    1.159959
     26          6           0        2.113237    1.294715    1.229666
     27          1           0        1.488987    3.096492    0.219600
     28          1           0        2.811719    2.617927   -1.831446
     29          1           0        4.188748    0.528728   -1.969739
     30          1           0        2.917726   -0.584568    1.975682
     31          1           0        1.536552    1.501000    2.126843
     32          7           0        4.423843   -1.345653   -0.088392
     33          8           0        4.412238   -2.100099    0.881821
     34          8           0        5.058410   -1.534112   -1.123981
 ---------------------------------------------------------------------

 SCF Done:  E(RHF) =  -669.534102458     A.U. after   15 cycles
 E2 =    -0.2092429539D+01 EUMP2 =    -0.67162653199687D+03

 The electronic state is 1-A.
 Alpha  occ. eigenvalues --  -20.60758 -20.60752 -15.85811 -11.31185 -11.27747
 Alpha  occ. eigenvalues --  -11.27734 -11.27494 -11.26776 -11.26763 -11.22026
 Alpha  occ. eigenvalues --  -11.21821 -11.21708 -11.21639 -11.21420 -11.21269
 Alpha  occ. eigenvalues --   -1.59833  -1.39386  -1.19362  -1.08782  -1.08727
 Alpha  occ. eigenvalues --   -1.04769  -1.03846  -0.96295  -0.95592  -0.87318
 Alpha  occ. eigenvalues --   -0.86166  -0.82422  -0.79915  -0.78549  -0.77465
 Alpha  occ. eigenvalues --   -0.72032  -0.71155  -0.70482  -0.65373  -0.65023
 Alpha  occ. eigenvalues --   -0.64790  -0.62123  -0.61243  -0.59712  -0.57921
 Alpha  occ. eigenvalues --   -0.55571  -0.55277  -0.53594  -0.52868  -0.52731
 Alpha  occ. eigenvalues --   -0.52468  -0.50225  -0.48790  -0.48784  -0.48230
 Alpha  occ. eigenvalues --   -0.46950  -0.46089  -0.46014  -0.44791  -0.44125
 Alpha  occ. eigenvalues --   -0.37258  -0.36312
 Alpha virt. eigenvalues --    0.05046   0.11220   0.16510   0.20938   0.22650
 Alpha virt. eigenvalues --    0.24120   0.26337   0.26858   0.27159   0.27898
 Alpha virt. eigenvalues --    0.28489   0.30856   0.31087   0.31656   0.31873

 Mulliken charges:
               1
     1  C   -0.298266
     2  C   -0.299907
     3  C   -0.475823
     4  H    0.149253
     5  H    0.148915
     6  H    0.152781
     7  H    0.152572
     8  H    0.154975
     9  H    0.155135
    10  H    0.161208
    11  C   -0.298650
    12  C   -0.300010
    13  C   -0.475965
    14  H    0.150894
    15  H    0.150798
    16  H    0.149450
    17  H    0.149538
    18  H    0.157595
    19  H    0.155329
    20  H    0.156201
    21  C   -0.170101
    22  C   -0.218271
    23  C   -0.171234
    24  C    0.158769
    25  C   -0.171301
    26  C   -0.215368
    27  H    0.225680
    28  H    0.223410
    29  H    0.275542
    30  H    0.275515
    31  H    0.224150
    32  N    0.488052
    33  O   -0.460396
    34  O   -0.460471
 Sum of Mulliken charges =  -0.00000

 Dipole moment (field-independent basis, Debye):
    X=             -2.8617    Y=              4.3125    Z=              0.2786  Tot=              5.1831
 Quadrupole moment (field-independent basis, Debye-Ang):
   XX=           -116.9847   YY=            -96.0176   ZZ=            -89.7184
   XY=             16.9218   XZ=             -0.3823   YZ=             -1.8186

 Normal termination of Gaussian 16 at Wed May  5 21:48:28 2021.
