 Gaussian 16, Revision A.03,
 Gaussian 16:  EM64L-G16RevA.03 25-Dec-2016

 -------------
 #p 6-31g* mp2
 -------------

 ------------------------------------------------------
 Input file generated by CHIRIPA (05-May-2021 14:57:26)
 ------------------------------------------------------
 Symbolic Z-matrix:
 Charge =  0 Multiplicity = 1

                         Standard orientation:
 ---------------------------------------------------------------------
 Center     Atomic      Atomic             Coordinates (Angstroms)
 Number     Number       Type             X           Y           Z
 ---------------------------------------------------------------------
      1          6           0       -5.473846   -0.730044    0.099263
      2          6           0       -4.625458   -0.895777    1.198941
      3          6           0       -3.286194   -0.500891    1.128340
      4          6           0       -2.826604    0.058701   -0.062845
      5          6           0       -3.647104    0.236891   -1.175643
      6          6           0       -4.982827   -0.165235   -1.082436
      7          1           0       -6.512843   -1.039614    0.162888
      8          1           0       -5.004050   -1.334125    2.117943
      9          1           0       -2.607545   -0.617667    1.964532
     10          1           0       -3.240834    0.676919   -2.078271
     11          1           0       -5.639405   -0.035316   -1.938047
     12          7           0       -1.410660    0.480582   -0.149553
     13          8           0       -1.030135    0.970999   -1.210368
     14          8           0       -0.708178    0.312847    0.844943
     15          6           0        2.293800    2.355003    0.581243
     16          6           0        2.574636    1.993732   -0.740550
     17          6           0        2.999835    0.697725   -1.047337
     18          6           0        3.134040   -0.215796   -0.002943
     19          6           0        2.861940    0.113809    1.323937
     20          6           0        2.438094    1.415546    1.607459
     21          1           0        1.964020    3.363998    0.810527
     22          1           0        2.463459    2.721248   -1.539552
     23          1           0        3.224048    0.391271   -2.061848
     24          1           0        2.982083   -0.633328    2.099031
     25          1           0        2.220706    1.693307    2.634899
     26          7           0        3.583463   -1.590854   -0.315410
     27          8           0        3.693831   -2.377167    0.622762
     28          8           0        3.816843   -1.856274   -1.492578
 ---------------------------------------------------------------------

 SCF Done:  E(RHF) =  -868.338005161     A.U. after   16 cycles
 E2 =    -0.2600919705D+01 EUMP2 =    -0.87093892486609D+03

 The electronic state is 1-A.
 Alpha  occ. eigenvalues --  -20.61162 -20.61157 -20.59492 -20.59486 -15.86202
 Alpha  occ. eigenvalues --  -15.84529 -11.31471 -11.29491 -11.28031 -11.28026
 Alpha  occ. eigenvalues --  -11.27746 -11.27019 -11.27009 -11.26029 -11.26026
 Alpha  occ. eigenvalues --  -11.25723 -11.25010 -11.24999  -1.60228  -1.58573
 Alpha  occ. eigenvalues --   -1.39789  -1.38139  -1.19633  -1.17603  -1.09045
 Alpha  occ. eigenvalues --   -1.07104  -1.05022  -1.02986  -0.95898  -0.94020
 Alpha  occ. eigenvalues --   -0.86425  -0.84447  -0.82738  -0.80894  -0.77797
 Alpha  occ. eigenvalues --   -0.75975  -0.72437  -0.71548  -0.70776  -0.70740
 Alpha  occ. eigenvalues --   -0.69879  -0.68832  -0.65290  -0.65024  -0.63321
 Alpha  occ. eigenvalues --   -0.63085  -0.62373  -0.60414  -0.55531  -0.53593
 Alpha  occ. eigenvalues --   -0.53354  -0.53115  -0.51499  -0.51169  -0.49186
 Alpha  occ. eigenvalues --   -0.48875  -0.47540  -0.47491  -0.45222  -0.43636
 Alpha  occ. eigenvalues --   -0.37608  -0.36620  -0.35508  -0.34450
 Alpha virt. eigenvalues --    0.04719   0.06575   0.11036   0.13145   0.16253
 Alpha virt. eigenvalues --    0.18164   0.21188   0.22922   0.27095   0.28070
 Alpha virt. eigenvalues --    0.28798   0.29759   0.30753   0.32262   0.32393

 Mulliken charges:
               1
     1  C   -0.170332
     2  C   -0.218307
     3  C   -0.170571
     4  C    0.158347
     5  C   -0.170587
     6  C   -0.218374
     7  H    0.226706
     8  H    0.224382
     9  H    0.274761
    10  H    0.275108
    11  H    0.224283
    12  N    0.489042
    13  O   -0.462017
    14  O   -0.460884
    15  C   -0.164079
    16  C   -0.204857
    17  C   -0.168166
    18  C    0.158630
    19  C   -0.165116
    20  C   -0.202135
    21  H    0.217776
    22  H    0.217694
    23  H    0.269469
    24  H    0.267984
    25  H    0.214987
    26  N    0.487824
    27  O   -0.466174
    28  O   -0.465392
 Sum of Mulliken charges =  -0.00000

 Dipole moment (field-independent basis, Debye):
    X=             -6.9630    Y=              3.4618    Z=              1.4165  Tot=              7.9041
 Quadrupole moment (field-independent basis, Debye-Ang):
   XX=            -88.7220   YY=           -108.1597   ZZ=            -96.0415
   XY=             19.8852   XZ=              3.3944   YZ=             -3.2180

 Normal termination of Gaussian 16 at Thu May  6 21:23:00 2021.
