 Gaussian 16, Revision A.03,
 Gaussian 16:  EM64L-G16RevA.03 25-Dec-2016

 -------------
 #p 6-31g* mp2
 -------------

 ------------------------------------------------------
 Input file generated by CHIRIPA (05-May-2021 14:51:13)
 ------------------------------------------------------
 Symbolic Z-matrix:
 Charge =  0 Multiplicity = 1

                         Standard orientation:
 ---------------------------------------------------------------------
 Center     Atomic      Atomic             Coordinates (Angstroms)
 Number     Number       Type             X           Y           Z
 ---------------------------------------------------------------------
      1          6           0        3.894180    0.205862   -0.153963
      2          6           0        3.529264    1.688970   -0.081767
      3          6           0        2.030962    1.938309   -0.257023
      4          1           0        3.564046   -0.199829   -1.120074
      5          1           0        3.337669   -0.339642    0.620709
      6          1           0        4.087346    2.231726   -0.855445
      7          1           0        3.860477    2.091222    0.884207
      8          1           0        1.460821    1.422378    0.522306
      9          1           0        1.688978    1.563680   -1.227230
     10          1           0        1.792357    3.005032   -0.201985
     11          6           0        5.388584   -0.059465    0.019494
     12          6           0        5.753500   -1.542573   -0.052702
     13          6           0        7.251802   -1.791912    0.122554
     14          1           0        5.945095    0.486039   -0.755178
     15          1           0        5.718718    0.346226    0.985605
     16          1           0        5.422287   -1.944825   -1.018677
     17          1           0        5.195419   -2.085329    0.720976
     18          1           0        7.593786   -1.417283    1.092761
     19          1           0        7.821943   -1.275981   -0.656776
     20          1           0        7.490408   -2.858635    0.067516
     21          6           0       -5.236315   -0.280790   -0.364498
     22          6           0       -6.421707   -0.803613    0.447590
     23          6           0       -7.604154   -1.214924   -0.430156
     24          1           0       -5.563154    0.577388   -0.967533
     25          1           0       -4.915586   -1.056811   -1.073244
     26          1           0       -6.739223   -0.027346    1.155551
     27          1           0       -6.091962   -1.660527    1.048907
     28          1           0       -7.309786   -2.006489   -1.126843
     29          1           0       -7.960725   -0.364029   -1.019593
     30          1           0       -8.440421   -1.585594    0.170777
     31          6           0       -4.046450    0.134393    0.498967
     32          6           0       -2.861057    0.657216   -0.313120
     33          6           0       -1.678611    1.068527    0.564625
     34          1           0       -4.367178    0.910413    1.207713
     35          1           0       -3.719610   -0.723785    1.102003
     36          1           0       -3.190802    1.514130   -0.914438
     37          1           0       -2.543541   -0.119051   -1.021082
     38          1           0       -1.322039    0.217633    1.154063
     39          1           0       -1.972978    1.860093    1.261312
     40          1           0       -0.842344    1.439196   -0.036309
 ---------------------------------------------------------------------

 SCF Done:  E(RHF) =  -470.732757716     A.U. after   11 cycles
 E2 =    -0.1582455877D+01 EUMP2 =    -0.47231521359241D+03

 The electronic state is 1-A.
 Alpha  occ. eigenvalues --  -11.21597 -11.21579 -11.21573 -11.21525 -11.21395
 Alpha  occ. eigenvalues --  -11.21358 -11.21335 -11.21297 -11.21068 -11.21049
 Alpha  occ. eigenvalues --  -11.21028 -11.20909  -1.08421  -1.08378  -1.03535
 Alpha  occ. eigenvalues --   -1.03459  -0.96026  -0.95874  -0.87096  -0.86847
 Alpha  occ. eigenvalues --   -0.79668  -0.79466  -0.78237  -0.78190  -0.65051
 Alpha  occ. eigenvalues --   -0.65010  -0.60930  -0.60865  -0.59351  -0.59316
 Alpha  occ. eigenvalues --   -0.57680  -0.57440  -0.55284  -0.55192  -0.52980
 Alpha  occ. eigenvalues --   -0.52603  -0.52378  -0.52068  -0.49928  -0.49836
 Alpha  occ. eigenvalues --   -0.47976  -0.47759  -0.46630  -0.46559  -0.45776
 Alpha  occ. eigenvalues --   -0.45738  -0.45697  -0.45661  -0.43825  -0.43612
 Alpha virt. eigenvalues --    0.22730   0.22933   0.23803   0.24619   0.26489
 Alpha virt. eigenvalues --    0.26707   0.26800   0.27506   0.27623   0.28982
 Alpha virt. eigenvalues --    0.30278   0.31019   0.31517   0.31854   0.32182

 Mulliken charges:
               1
     1  C   -0.298292
     2  C   -0.300460
     3  C   -0.479710
     4  H    0.149494
     5  H    0.149603
     6  H    0.151610
     7  H    0.151998
     8  H    0.160969
     9  H    0.154147
    10  H    0.160313
    11  C   -0.298272
    12  C   -0.299615
    13  C   -0.475698
    14  H    0.149513
    15  H    0.149668
    16  H    0.151883
    17  H    0.151892
    18  H    0.155190
    19  H    0.155177
    20  H    0.160212
    21  C   -0.298168
    22  C   -0.299561
    23  C   -0.475662
    24  H    0.149530
    25  H    0.149380
    26  H    0.151852
    27  H    0.151840
    28  H    0.155119
    29  H    0.155129
    30  H    0.160137
    31  C   -0.298433
    32  C   -0.299349
    33  C   -0.483644
    34  H    0.149322
    35  H    0.149367
    36  H    0.151587
    37  H    0.151509
    38  H    0.153210
    39  H    0.154231
    40  H    0.172983
 Sum of Mulliken charges =  -0.00000

 Dipole moment (field-independent basis, Debye):
    X=              0.0292    Y=              0.0159    Z=             -0.0006  Tot=              0.0333
 Quadrupole moment (field-independent basis, Debye-Ang):
   XX=            -86.8824   YY=            -84.1016   ZZ=            -84.0378
   XY=             -0.3351   XZ=             -0.6883   YZ=             -0.1479

 Normal termination of Gaussian 16 at Thu May  6 05:33:27 2021.
