 Gaussian 16, Revision A.03,
 Gaussian 16:  EM64L-G16RevA.03 25-Dec-2016

 -------------
 #p 6-31g* mp2
 -------------

 ------------------------------------------------------
 Input file generated by CHIRIPA (05-May-2021 14:53:14)
 ------------------------------------------------------
 Symbolic Z-matrix:
 Charge =  0 Multiplicity = 1

                         Standard orientation:
 ---------------------------------------------------------------------
 Center     Atomic      Atomic             Coordinates (Angstroms)
 Number     Number       Type             X           Y           Z
 ---------------------------------------------------------------------
      1          6           0        3.369486    0.641022    0.076848
      2          6           0        3.855573    2.035644   -0.319050
      3          6           0        2.887673    3.141163    0.103786
      4          1           0        2.384635    0.460837   -0.375422
      5          1           0        3.224592    0.606172    1.165511
      6          1           0        4.000831    2.067436   -1.406480
      7          1           0        4.839466    2.212455    0.134058
      8          1           0        2.750274    3.138243    1.189932
      9          1           0        1.906874    2.992400   -0.359360
     10          1           0        3.254718    4.129780   -0.189089
     11          6           0        4.326426   -0.474783   -0.339053
     12          6           0        3.840339   -1.869405    0.056845
     13          6           0        4.808239   -2.974925   -0.365990
     14          1           0        4.471319   -0.439933   -1.427715
     15          1           0        5.311276   -0.294598    0.113217
     16          1           0        2.856445   -2.046216   -0.396263
     17          1           0        3.695081   -1.901197    1.144276
     18          1           0        5.789038   -2.826161    0.097155
     19          1           0        4.945637   -2.972004   -1.452137
     20          1           0        4.441194   -3.963541   -0.073115
     21          6           0       -0.610290    0.421989    0.725614
     22          6           0       -1.428965    1.446301    0.238708
     23          6           0       -2.758037    1.187992   -0.109704
     24          6           0       -3.237845   -0.112011    0.042176
     25          6           0       -2.447082   -1.153794    0.524536
     26          6           0       -1.121060   -0.872508    0.866725
     27          1           0        0.420980    0.631575    0.993851
     28          1           0       -1.034984    2.452573    0.128076
     29          1           0       -3.413802    1.962241   -0.489081
     30          1           0       -2.868169   -2.146895    0.623821
     31          1           0       -0.487570   -1.669966    1.244607
     32          7           0       -4.643259   -0.397634   -0.323378
     33          8           0       -5.042038   -1.551384   -0.180285
     34          8           0       -5.319432    0.537650   -0.746070
 ---------------------------------------------------------------------

 SCF Done:  E(RHF) =  -669.535631533     A.U. after   15 cycles
 E2 =    -0.2092054840D+01 EUMP2 =    -0.67162768637285D+03

 The electronic state is 1-A.
 Alpha  occ. eigenvalues --  -20.60707 -20.60702 -15.85761 -11.31109 -11.27679
 Alpha  occ. eigenvalues --  -11.27676 -11.27319 -11.26672 -11.26661 -11.22675
 Alpha  occ. eigenvalues --  -11.22595 -11.22529 -11.22328 -11.22277 -11.21789
 Alpha  occ. eigenvalues --   -1.59783  -1.39337  -1.19275  -1.09489  -1.08662
 Alpha  occ. eigenvalues --   -1.04678  -1.04527  -0.96988  -0.95504  -0.88001
 Alpha  occ. eigenvalues --   -0.86069  -0.82348  -0.80607  -0.79349  -0.77397
 Alpha  occ. eigenvalues --   -0.71977  -0.71107  -0.70363  -0.66101  -0.64920
 Alpha  occ. eigenvalues --   -0.64677  -0.62043  -0.61892  -0.60361  -0.58613
 Alpha  occ. eigenvalues --   -0.56287  -0.55182  -0.53637  -0.53401  -0.53007
 Alpha  occ. eigenvalues --   -0.52760  -0.50918  -0.48909  -0.48734  -0.48731
 Alpha  occ. eigenvalues --   -0.47629  -0.46818  -0.46758  -0.44792  -0.44747
 Alpha  occ. eigenvalues --   -0.37229  -0.36290
 Alpha virt. eigenvalues --    0.05108   0.11333   0.16513   0.19661   0.22320
 Alpha virt. eigenvalues --    0.23244   0.24805   0.25906   0.26152   0.27923
 Alpha virt. eigenvalues --    0.29296   0.29806   0.30850   0.30980   0.31573

 Mulliken charges:
               1
     1  C   -0.307619
     2  C   -0.298837
     3  C   -0.480501
     4  H    0.149733
     5  H    0.146047
     6  H    0.156508
     7  H    0.156343
     8  H    0.154762
     9  H    0.149737
    10  H    0.166981
    11  C   -0.297552
    12  C   -0.301821
    13  C   -0.476066
    14  H    0.153554
    15  H    0.153013
    16  H    0.150578
    17  H    0.149809
    18  H    0.157203
    19  H    0.157818
    20  H    0.161976
    21  C   -0.176368
    22  C   -0.223226
    23  C   -0.170749
    24  C    0.158333
    25  C   -0.170801
    26  C   -0.221895
    27  H    0.236925
    28  H    0.224925
    29  H    0.275286
    30  H    0.275210
    31  H    0.224029
    32  N    0.488042
    33  O   -0.460702
    34  O   -0.460676
 Sum of Mulliken charges =  -0.00000

 Dipole moment (field-independent basis, Debye):
    X=              5.2614    Y=              1.0117    Z=              1.2164  Tot=              5.4941
 Quadrupole moment (field-independent basis, Debye-Ang):
   XX=           -126.4220   YY=            -90.8736   ZZ=            -94.3717
   XY=             -3.8728   XZ=             -3.5084   YZ=             -1.7104

 Normal termination of Gaussian 16 at Wed May  5 15:36:52 2021.
