 Gaussian 16, Revision A.03,
 Gaussian 16:  EM64L-G16RevA.03 25-Dec-2016

 -------------
 #p 6-31g* mp2
 -------------

 ------------------------------------------------------
 Input file generated by CHIRIPA (05-May-2021 14:51:13)
 ------------------------------------------------------
 Symbolic Z-matrix:
 Charge =  0 Multiplicity = 1

                         Standard orientation:
 ---------------------------------------------------------------------
 Center     Atomic      Atomic             Coordinates (Angstroms)
 Number     Number       Type             X           Y           Z
 ---------------------------------------------------------------------
      1          6           0       -2.569326   -1.099108    0.050942
      2          6           0       -1.489148   -1.712621   -0.840575
      3          6           0       -1.229660   -3.186219   -0.525981
      4          1           0       -2.270600   -1.203837    1.102959
      5          1           0       -3.500730   -1.669879   -0.067813
      6          1           0       -0.560443   -1.140016   -0.721218
      7          1           0       -1.790391   -1.606248   -1.890600
      8          1           0       -2.141776   -3.775909   -0.663500
      9          1           0       -0.904840   -3.307028    0.512527
     10          1           0       -0.454037   -3.604732   -1.174915
     11          6           0       -2.840033    0.373634   -0.251511
     12          6           0       -3.920211    0.987147    0.640006
     13          6           0       -4.179699    2.460745    0.325412
     14          1           0       -1.908630    0.944406   -0.132755
     15          1           0       -3.138759    0.478363   -1.303528
     16          1           0       -3.618968    0.880774    1.690031
     17          1           0       -4.848916    0.414543    0.520649
     18          1           0       -4.504520    2.581555   -0.713096
     19          1           0       -3.267583    3.050435    0.462931
     20          1           0       -4.955322    2.879258    0.974346
     21          6           0        2.714285    0.958672   -0.377420
     22          6           0        2.759475    2.309013    0.338484
     23          6           0        2.778260    3.491534   -0.630579
     24          1           0        3.583764    0.874792   -1.043690
     25          1           0        1.823552    0.921706   -1.019776
     26          1           0        3.649121    2.342883    0.980357
     27          1           0        1.889889    2.389608    1.003272
     28          1           0        1.884483    3.485721   -1.262822
     29          1           0        3.653710    3.438731   -1.285867
     30          1           0        2.810577    4.446900   -0.097577
     31          6           0        2.695074   -0.233198    0.577989
     32          6           0        2.649884   -1.583540   -0.137916
     33          6           0        2.631099   -2.766061    0.831149
     34          1           0        3.585809   -0.196233    1.220345
     35          1           0        1.825595   -0.149319    1.244260
     36          1           0        3.519469   -1.664134   -0.802703
     37          1           0        1.760240   -1.617409   -0.779788
     38          1           0        1.755650   -2.713258    1.486436
     39          1           0        3.524876   -2.760248    1.463392
     40          1           0        2.598783   -3.721426    0.298147
 ---------------------------------------------------------------------

 SCF Done:  E(RHF) =  -470.733075044     A.U. after   11 cycles
 E2 =    -0.1583862388D+01 EUMP2 =    -0.47231693743211D+03

 The electronic state is 1-A.
 Alpha  occ. eigenvalues --  -11.21648 -11.21645 -11.21633 -11.21569 -11.21463
 Alpha  occ. eigenvalues --  -11.21434 -11.21403 -11.21375 -11.21105 -11.21096
 Alpha  occ. eigenvalues --  -11.21089 -11.21054  -1.08504  -1.08434  -1.03616
 Alpha  occ. eigenvalues --   -1.03501  -0.96052  -0.95960  -0.87062  -0.86980
 Alpha  occ. eigenvalues --   -0.79697  -0.79555  -0.78344  -0.78221  -0.65340
 Alpha  occ. eigenvalues --   -0.64905  -0.61268  -0.60664  -0.59459  -0.59278
 Alpha  occ. eigenvalues --   -0.57693  -0.57534  -0.55466  -0.55107  -0.52744
 Alpha  occ. eigenvalues --   -0.52643  -0.52463  -0.52394  -0.50127  -0.49785
 Alpha  occ. eigenvalues --   -0.48040  -0.47856  -0.46924  -0.46455  -0.46008
 Alpha  occ. eigenvalues --   -0.45818  -0.45768  -0.45413  -0.43839  -0.43786
 Alpha virt. eigenvalues --    0.19512   0.22707   0.23533   0.25357   0.25663
 Alpha virt. eigenvalues --    0.26187   0.26697   0.27682   0.29096   0.29417
 Alpha virt. eigenvalues --    0.29560   0.31072   0.31519   0.32097   0.32742

 Mulliken charges:
               1
     1  C   -0.297677
     2  C   -0.306877
     3  C   -0.476702
     4  H    0.149269
     5  H    0.149940
     6  H    0.157105
     7  H    0.152189
     8  H    0.155248
     9  H    0.156846
    10  H    0.161091
    11  C   -0.298416
    12  C   -0.299691
    13  C   -0.475761
    14  H    0.148801
    15  H    0.149898
    16  H    0.151966
    17  H    0.152172
    18  H    0.155284
    19  H    0.155164
    20  H    0.160464
    21  C   -0.299678
    22  C   -0.299502
    23  C   -0.475800
    24  H    0.150085
    25  H    0.149980
    26  H    0.152139
    27  H    0.151346
    28  H    0.155387
    29  H    0.155329
    30  H    0.160322
    31  C   -0.298444
    32  C   -0.306616
    33  C   -0.475202
    34  H    0.149911
    35  H    0.148730
    36  H    0.152016
    37  H    0.158995
    38  H    0.155453
    39  H    0.154636
    40  H    0.160601
 Sum of Mulliken charges =  -0.00000

 Dipole moment (field-independent basis, Debye):
    X=             -0.0106    Y=             -0.0157    Z=             -0.0135  Tot=              0.0233
 Quadrupole moment (field-independent basis, Debye-Ang):
   XX=            -83.2584   YY=            -86.7044   ZZ=            -84.6664
   XY=              0.4920   XZ=              0.4313   YZ=              0.8596

 Normal termination of Gaussian 16 at Wed May  5 23:13:23 2021.
