 Gaussian 16, Revision A.03,
 Gaussian 16:  EM64L-G16RevA.03 25-Dec-2016

 -------------
 #p 6-31g* mp2
 -------------

 ------------------------------------------------------
 Input file generated by CHIRIPA (05-May-2021 14:57:22)
 ------------------------------------------------------
 Symbolic Z-matrix:
 Charge =  0 Multiplicity = 1

                         Standard orientation:
 ---------------------------------------------------------------------
 Center     Atomic      Atomic             Coordinates (Angstroms)
 Number     Number       Type             X           Y           Z
 ---------------------------------------------------------------------
      1          6           0       -4.846729    1.789233    0.805135
      2          6           0       -5.049011    0.429426    1.063063
      3          6           0       -4.175587   -0.529723    0.541804
      4          6           0       -3.105391   -0.091832   -0.236798
      5          6           0       -2.877230    1.255660   -0.511568
      6          6           0       -3.763394    2.197291    0.020027
      7          1           0       -5.530174    2.527519    1.214075
      8          1           0       -5.889497    0.109625    1.672453
      9          1           0       -4.308696   -1.588897    0.725787
     10          1           0       -2.030467    1.543917   -1.122566
     11          1           0       -3.603836    3.252658   -0.181929
     12          7           0       -2.173992   -1.097967   -0.794102
     13          8           0       -1.238683   -0.686404   -1.477074
     14          8           0       -2.396907   -2.279088   -0.537393
     15          6           0        4.610204    2.022174   -0.237128
     16          6           0        4.638030    1.388950    1.009778
     17          6           0        3.893281    0.226983    1.232785
     18          6           0        3.128257   -0.276641    0.181886
     19          6           0        3.079838    0.331341   -1.071631
     20          6           0        3.832568    1.492283   -1.272028
     21          1           0        5.191842    2.924420   -0.401582
     22          1           0        5.241050    1.798220    1.815327
     23          1           0        3.896561   -0.283458    2.188221
     24          1           0        2.469211   -0.100342   -1.855342
     25          1           0        3.809044    1.981935   -2.241426
     26          7           0        2.335600   -1.506220    0.406005
     27          8           0        1.669639   -1.929904   -0.536133
     28          8           0        2.395287   -2.022999    1.519564
 ---------------------------------------------------------------------

 SCF Done:  E(RHF) =  -868.335523528     A.U. after   16 cycles
 E2 =    -0.2600599567D+01 EUMP2 =    -0.87093612309444D+03

 The electronic state is 1-A.
 Alpha  occ. eigenvalues --  -20.60007 -20.59994 -20.59780 -20.59619 -15.85074
 Alpha  occ. eigenvalues --  -15.84745 -11.30749 -11.30462 -11.27388 -11.27324
 Alpha  occ. eigenvalues --  -11.27153 -11.27121 -11.27013 -11.26931 -11.26461
 Alpha  occ. eigenvalues --  -11.26415 -11.26210 -11.26165  -1.59054  -1.58780
 Alpha  occ. eigenvalues --   -1.38613  -1.38312  -1.18947  -1.18684  -1.08282
 Alpha  occ. eigenvalues --   -1.08023  -1.04401  -1.04133  -0.95068  -0.94788
 Alpha  occ. eigenvalues --   -0.85785  -0.85514  -0.81909  -0.81608  -0.76904
 Alpha  occ. eigenvalues --   -0.76589  -0.71320  -0.70936  -0.70424  -0.70078
 Alpha  occ. eigenvalues --   -0.70060  -0.69787  -0.64599  -0.64411  -0.64320
 Alpha  occ. eigenvalues --   -0.64144  -0.61750  -0.61461  -0.54891  -0.54646
 Alpha  occ. eigenvalues --   -0.52708  -0.52502  -0.52459  -0.52226  -0.48066
 Alpha  occ. eigenvalues --   -0.48013  -0.47749  -0.47682  -0.44080  -0.43475
 Alpha  occ. eigenvalues --   -0.36943  -0.36704  -0.36018  -0.35759
 Alpha virt. eigenvalues --    0.05599   0.05988   0.11632   0.11891   0.17051
 Alpha virt. eigenvalues --    0.17386   0.21706   0.21983   0.27593   0.27859
 Alpha virt. eigenvalues --    0.28596   0.28957   0.31210   0.31506   0.32828

 Mulliken charges:
               1
     1  C   -0.171838
     2  C   -0.218356
     3  C   -0.170614
     4  C    0.160026
     5  C   -0.171635
     6  C   -0.218346
     7  H    0.223652
     8  H    0.222574
     9  H    0.276995
    10  H    0.271662
    11  H    0.220452
    12  N    0.488738
    13  O   -0.458979
    14  O   -0.453978
    15  C   -0.172323
    16  C   -0.219275
    17  C   -0.172287
    18  C    0.157549
    19  C   -0.171129
    20  C   -0.220250
    21  H    0.222171
    22  H    0.220288
    23  H    0.273908
    24  H    0.284473
    25  H    0.221102
    26  N    0.484989
    27  O   -0.441440
    28  O   -0.468130
 Sum of Mulliken charges =  -0.00000

 Dipole moment (field-independent basis, Debye):
    X=             -0.6411    Y=              7.5531    Z=              0.9992  Tot=              7.6458
 Quadrupole moment (field-independent basis, Debye-Ang):
   XX=            -67.7774   YY=           -106.3265   ZZ=           -101.5972
   XY=              4.3262   XZ=             -7.3540   YZ=             -1.7880

 Normal termination of Gaussian 16 at Fri May  7 07:55:09 2021.
