 Gaussian 16, Revision A.03,
 Gaussian 16:  EM64L-G16RevA.03 25-Dec-2016

 -------------
 #p 6-31g* mp2
 -------------

 ------------------------------------------------------
 Input file generated by CHIRIPA (05-May-2021 14:51:10)
 ------------------------------------------------------
 Symbolic Z-matrix:
 Charge =  0 Multiplicity = 1

                         Standard orientation:
 ---------------------------------------------------------------------
 Center     Atomic      Atomic             Coordinates (Angstroms)
 Number     Number       Type             X           Y           Z
 ---------------------------------------------------------------------
      1          6           0        4.181169   -0.329374   -0.388616
      2          6           0        5.680086   -0.405492   -0.096317
      3          6           0        6.526478   -0.491802   -1.366736
      4          1           0        3.882310   -1.211822   -0.970779
      5          1           0        3.982341    0.545562   -1.022927
      6          1           0        5.875843   -1.279239    0.538396
      7          1           0        5.975374    0.477144    0.485382
      8          1           0        6.360469    0.385296   -2.000567
      9          1           0        6.260372   -1.381066   -1.947251
     10          1           0        7.594702   -0.545329   -1.134591
     11          6           0        3.321859   -0.242644    0.871461
     12          6           0        1.822942   -0.166526    0.579162
     13          6           0        0.976550   -0.080216    1.849581
     14          1           0        3.520687   -1.117580    1.505772
     15          1           0        3.620718    0.639804    1.453624
     16          1           0        1.527654   -1.049162   -0.002537
     17          1           0        1.627185    0.707222   -0.055551
     18          1           0        1.242656    0.809049    2.430096
     19          1           0        1.142559   -0.957314    2.483411
     20          1           0       -0.091674   -0.026689    1.617435
     21          6           0       -3.034882    0.474955   -0.056567
     22          6           0       -2.658212    1.898964   -0.466811
     23          6           0       -1.221525    2.262180   -0.090251
     24          1           0       -2.899573    0.364736    1.028093
     25          1           0       -2.340483   -0.231833   -0.531601
     26          1           0       -3.353968    2.602761    0.007751
     27          1           0       -2.794617    2.005862   -1.550593
     28          1           0       -0.512757    1.583233   -0.575309
     29          1           0       -1.075287    2.183525    0.991889
     30          1           0       -0.973410    3.284342   -0.392716
     31          6           0       -4.468146    0.097064   -0.426277
     32          6           0       -4.844816   -1.326946   -0.016033
     33          6           0       -6.281503   -1.690162   -0.392593
     34          1           0       -5.162545    0.803851    0.048757
     35          1           0       -4.603455    0.207282   -1.510938
     36          1           0       -4.708411   -1.433844    1.067748
     37          1           0       -4.149060   -2.030744   -0.490596
     38          1           0       -6.427741   -1.611507   -1.474733
     39          1           0       -6.990271   -1.011215    0.092465
     40          1           0       -6.529620   -2.712323   -0.090129
 ---------------------------------------------------------------------

 SCF Done:  E(RHF) =  -470.732093969     A.U. after   11 cycles
 E2 =    -0.1583876183D+01 EUMP2 =    -0.47231597015177D+03

 The electronic state is 1-A.
 Alpha  occ. eigenvalues --  -11.21612 -11.21598 -11.21576 -11.21517 -11.21433
 Alpha  occ. eigenvalues --  -11.21372 -11.21363 -11.21300 -11.21079 -11.21053
 Alpha  occ. eigenvalues --  -11.20985 -11.20917  -1.08456  -1.08376  -1.03582
 Alpha  occ. eigenvalues --   -1.03431  -0.96046  -0.95864  -0.87035  -0.86913
 Alpha  occ. eigenvalues --   -0.79611  -0.79547  -0.78286  -0.78188  -0.65084
 Alpha  occ. eigenvalues --   -0.65014  -0.60969  -0.60867  -0.59578  -0.59153
 Alpha  occ. eigenvalues --   -0.57797  -0.57312  -0.55284  -0.55217  -0.52732
 Alpha  occ. eigenvalues --   -0.52642  -0.52420  -0.52222  -0.50071  -0.49756
 Alpha  occ. eigenvalues --   -0.47888  -0.47855  -0.46776  -0.46427  -0.45827
 Alpha  occ. eigenvalues --   -0.45764  -0.45708  -0.45533  -0.43799  -0.43687
 Alpha virt. eigenvalues --    0.21777   0.23014   0.23436   0.25088   0.25895
 Alpha virt. eigenvalues --    0.26479   0.26785   0.27532   0.27776   0.29501
 Alpha virt. eigenvalues --    0.29936   0.30797   0.31397   0.31996   0.32058

 Mulliken charges:
               1
     1  C   -0.298329
     2  C   -0.299587
     3  C   -0.475682
     4  H    0.149340
     5  H    0.149411
     6  H    0.151894
     7  H    0.151953
     8  H    0.155132
     9  H    0.155066
    10  H    0.160177
    11  C   -0.297680
    12  C   -0.303500
    13  C   -0.479827
    14  H    0.149324
    15  H    0.149679
    16  H    0.150664
    17  H    0.155743
    18  H    0.153956
    19  H    0.153883
    20  H    0.167246
    21  C   -0.300697
    22  C   -0.299230
    23  C   -0.482714
    24  H    0.150371
    25  H    0.150119
    26  H    0.151699
    27  H    0.151708
    28  H    0.161113
    29  H    0.158758
    30  H    0.159354
    31  C   -0.298190
    32  C   -0.299726
    33  C   -0.475731
    34  H    0.149698
    35  H    0.149851
    36  H    0.152065
    37  H    0.151948
    38  H    0.155194
    39  H    0.155228
    40  H    0.160318
 Sum of Mulliken charges =  -0.00000

 Dipole moment (field-independent basis, Debye):
    X=             -0.0316    Y=              0.0162    Z=             -0.0060  Tot=              0.0360
 Quadrupole moment (field-independent basis, Debye-Ang):
   XX=            -86.3626   YY=            -83.8386   ZZ=            -84.7280
   XY=             -0.3545   XZ=              0.0666   YZ=              0.1933

 Normal termination of Gaussian 16 at Wed May  5 19:45:51 2021.
