 Gaussian 16, Revision A.03,
 Gaussian 16:  EM64L-G16RevA.03 25-Dec-2016

 -------------
 #p 6-31g* mp2
 -------------

 ------------------------------------------------------
 Input file generated by CHIRIPA (05-May-2021 14:55:19)
 ------------------------------------------------------
 Symbolic Z-matrix:
 Charge =  0 Multiplicity = 1

                         Standard orientation:
 ---------------------------------------------------------------------
 Center     Atomic      Atomic             Coordinates (Angstroms)
 Number     Number       Type             X           Y           Z
 ---------------------------------------------------------------------
      1          6           0        5.254591   -0.261187   -1.040260
      2          6           0        4.572716    0.947842   -0.867585
      3          6           0        3.345050    0.981477   -0.199564
      4          6           0        2.826049   -0.218113    0.285114
      5          6           0        3.481385   -1.438531    0.128898
      6          6           0        4.707713   -1.448422   -0.542346
      7          1           0        6.207752   -0.278093   -1.560447
      8          1           0        4.995036    1.871410   -1.253217
      9          1           0        2.795959    1.903496   -0.051920
     10          1           0        3.035186   -2.342897    0.524433
     11          1           0        5.235044   -2.388834   -0.674984
     12          7           0        1.527081   -0.195074    0.994023
     13          8           0        1.091124   -1.265670    1.411639
     14          8           0        0.969504    0.893144    1.118628
     15          6           0       -3.748141    0.989754   -0.470133
     16          6           0       -2.716760    1.740891    0.372501
     17          6           0       -2.440858    3.151210   -0.149678
     18          1           0       -3.394002    0.935014   -1.508657
     19          1           0       -4.684501    1.564442   -0.489072
     20          1           0       -1.783063    1.164277    0.390985
     21          1           0       -3.073307    1.793681    1.409180
     22          1           0       -3.358952    3.747616   -0.151980
     23          1           0       -2.061377    3.114635   -1.175961
     24          1           0       -1.700741    3.670144    0.467409
     25          6           0       -4.034602   -0.421665    0.039345
     26          6           0       -5.065984   -1.172801   -0.803289
     27          6           0       -5.341886   -2.583121   -0.281111
     28          1           0       -3.098243   -0.996352    0.058284
     29          1           0       -4.388742   -0.366925    1.077869
     30          1           0       -4.709437   -1.225591   -1.839968
     31          1           0       -5.999682   -0.596187   -0.821773
     32          1           0       -5.721367   -2.546546    0.745172
     33          1           0       -4.423792   -3.179526   -0.278808
     34          1           0       -6.082003   -3.102055   -0.898196
 ---------------------------------------------------------------------

 SCF Done:  E(RHF) =  -669.536273390     A.U. after   15 cycles
 E2 =    -0.2091043281D+01 EUMP2 =    -0.67162731667092D+03

 The electronic state is 1-A.
 Alpha  occ. eigenvalues --  -20.61018 -20.61004 -15.86035 -11.31336 -11.27896
 Alpha  occ. eigenvalues --  -11.27892 -11.27629 -11.26897 -11.26887 -11.20788
 Alpha  occ. eigenvalues --  -11.20352 -11.20326 -11.20256 -11.20053 -11.19934
 Alpha  occ. eigenvalues --   -1.60070  -1.39626  -1.19502  -1.08910  -1.07345
 Alpha  occ. eigenvalues --   -1.04894  -1.02462  -0.95755  -0.94966  -0.86295
 Alpha  occ. eigenvalues --   -0.85992  -0.82589  -0.78529  -0.77645  -0.77104
 Alpha  occ. eigenvalues --   -0.72251  -0.71383  -0.70609  -0.65157  -0.64896
 Alpha  occ. eigenvalues --   -0.63983  -0.62240  -0.59866  -0.58334  -0.56541
 Alpha  occ. eigenvalues --   -0.55399  -0.54279  -0.53227  -0.52984  -0.51679
 Alpha  occ. eigenvalues --   -0.51385  -0.49097  -0.49011  -0.48886  -0.46839
 Alpha  occ. eigenvalues --   -0.45590  -0.45065  -0.44682  -0.44414  -0.42722
 Alpha  occ. eigenvalues --   -0.37479  -0.36494
 Alpha virt. eigenvalues --    0.04853   0.11162   0.16345   0.21296   0.23895
 Alpha virt. eigenvalues --    0.25312   0.27223   0.27719   0.28152   0.28712
 Alpha virt. eigenvalues --    0.28968   0.30871   0.32331   0.32439   0.32874

 Mulliken charges:
               1
     1  C   -0.170497
     2  C   -0.218575
     3  C   -0.170800
     4  C    0.157892
     5  C   -0.170730
     6  C   -0.218597
     7  H    0.226170
     8  H    0.224063
     9  H    0.276133
    10  H    0.275894
    11  H    0.223960
    12  N    0.488275
    13  O   -0.458882
    14  O   -0.459189
    15  C   -0.297765
    16  C   -0.307353
    17  C   -0.474103
    18  H    0.144537
    19  H    0.144270
    20  H    0.177333
    21  H    0.149761
    22  H    0.148914
    23  H    0.148696
    24  H    0.161671
    25  C   -0.298629
    26  C   -0.298699
    27  C   -0.475104
    28  H    0.155955
    29  H    0.149481
    30  H    0.149057
    31  H    0.149391
    32  H    0.154901
    33  H    0.155907
    34  H    0.156663
 Sum of Mulliken charges =  -0.00000

 Dipole moment (field-independent basis, Debye):
    X=              4.9458    Y=             -0.1690    Z=             -2.3719  Tot=              5.4877
 Quadrupole moment (field-independent basis, Debye-Ang):
   XX=            -70.2187   YY=            -91.3213   ZZ=            -96.7606
   XY=             -1.9247   XZ=             -6.7728   YZ=              0.3228

 Normal termination of Gaussian 16 at Thu May  6 12:24:55 2021.
