 Gaussian 16, Revision A.03,
 Gaussian 16:  EM64L-G16RevA.03 25-Dec-2016

 -------------
 #p 6-31g* mp2
 -------------

 ------------------------------------------------------
 Input file generated by CHIRIPA (05-May-2021 14:57:23)
 ------------------------------------------------------
 Symbolic Z-matrix:
 Charge =  0 Multiplicity = 1

                         Standard orientation:
 ---------------------------------------------------------------------
 Center     Atomic      Atomic             Coordinates (Angstroms)
 Number     Number       Type             X           Y           Z
 ---------------------------------------------------------------------
      1          6           0        1.778007    2.003423    0.244185
      2          6           0        1.443688    0.709612   -0.169101
      3          6           0        2.439242   -0.251302   -0.369264
      4          6           0        3.764878    0.117546   -0.145817
      5          6           0        4.129751    1.398321    0.266218
      6          6           0        3.117610    2.343049    0.460145
      7          1           0        0.998195    2.743597    0.397254
      8          1           0        0.404171    0.443036   -0.337585
      9          1           0        2.208466   -1.260233   -0.688981
     10          1           0        5.174806    1.634363    0.426101
     11          1           0        3.380187    3.347074    0.781134
     12          7           0        4.827607   -0.891163   -0.354419
     13          8           0        5.988054   -0.541137   -0.150748
     14          8           0        4.480003   -2.012714   -0.717642
     15          6           0       -5.034944    1.615066   -0.708079
     16          6           0       -5.354121    0.295945   -1.046559
     17          6           0       -4.560484   -0.764035   -0.598085
     18          6           0       -3.450010   -0.467368    0.190665
     19          6           0       -3.105940    0.836273    0.544819
     20          6           0       -3.913848    1.880551    0.085131
     21          1           0       -5.657003    2.432386   -1.060821
     22          1           0       -6.224178    0.086792   -1.662433
     23          1           0       -4.784581   -1.794635   -0.845194
     24          1           0       -2.232290    1.013428    1.160262
     25          1           0       -3.663560    2.904014    0.349563
     26          7           0       -2.602268   -1.581211    0.671380
     27          8           0       -1.629287   -1.293388    1.364996
     28          8           0       -2.926840   -2.720973    0.345447
 ---------------------------------------------------------------------

 SCF Done:  E(RHF) =  -868.337980774     A.U. after   16 cycles
 E2 =    -0.2599616204D+01 EUMP2 =    -0.87093759697790D+03

 The electronic state is 1-A.
 Alpha  occ. eigenvalues --  -20.61660 -20.61613 -20.60330 -20.60312 -15.86669
 Alpha  occ. eigenvalues --  -15.85375 -11.32037 -11.30740 -11.28650 -11.28530
 Alpha  occ. eigenvalues --  -11.28277 -11.27625 -11.27536 -11.27338 -11.27228
 Alpha  occ. eigenvalues --  -11.27144 -11.26413 -11.26280  -1.60705  -1.59398
 Alpha  occ. eigenvalues --   -1.40259  -1.38951  -1.20191  -1.18917  -1.09577
 Alpha  occ. eigenvalues --   -1.08341  -1.05591  -1.04303  -0.96415  -0.95171
 Alpha  occ. eigenvalues --   -0.86985  -0.85725  -0.83246  -0.81985  -0.78312
 Alpha  occ. eigenvalues --   -0.77011  -0.72875  -0.72032  -0.71597  -0.71278
 Alpha  occ. eigenvalues --   -0.70718  -0.70089  -0.65837  -0.65584  -0.64580
 Alpha  occ. eigenvalues --   -0.64320  -0.62940  -0.61639  -0.56057  -0.54905
 Alpha  occ. eigenvalues --   -0.53916  -0.53676  -0.52650  -0.52405  -0.49648
 Alpha  occ. eigenvalues --   -0.49632  -0.48359  -0.48345  -0.45648  -0.44355
 Alpha  occ. eigenvalues --   -0.38149  -0.37195  -0.36945  -0.35881
 Alpha virt. eigenvalues --    0.04192   0.05503   0.10372   0.11733   0.15708
 Alpha virt. eigenvalues --    0.16987   0.20069   0.21812   0.25923   0.27029
 Alpha virt. eigenvalues --    0.27993   0.28900   0.30351   0.31156   0.31855

 Mulliken charges:
               1
     1  C   -0.171975
     2  C   -0.214679
     3  C   -0.169291
     4  C    0.158351
     5  C   -0.171869
     6  C   -0.218183
     7  H    0.216451
     8  H    0.225938
     9  H    0.280334
    10  H    0.274189
    11  H    0.220479
    12  N    0.487985
    13  O   -0.462436
    14  O   -0.458447
    15  C   -0.170286
    16  C   -0.217680
    17  C   -0.170222
    18  C    0.158469
    19  C   -0.177415
    20  C   -0.217700
    21  H    0.228310
    22  H    0.226830
    23  H    0.278397
    24  H    0.271855
    25  H    0.223044
    26  N    0.487095
    27  O   -0.463451
    28  O   -0.454092
 Sum of Mulliken charges =  -0.00000

 Dipole moment (field-independent basis, Debye):
    X=             -7.0680    Y=              7.2495    Z=             -1.0281  Tot=             10.1769
 Quadrupole moment (field-independent basis, Debye-Ang):
   XX=           -108.0144   YY=           -103.9633   ZZ=           -105.7199
   XY=              5.3952   XZ=             11.6392   YZ=              3.8486

 Normal termination of Gaussian 16 at Thu May  6 00:13:44 2021.
