 Gaussian 16, Revision A.03,
 Gaussian 16:  EM64L-G16RevA.03 25-Dec-2016

 -------------
 #p 6-31g* mp2
 -------------

 ------------------------------------------------------
 Input file generated by CHIRIPA (05-May-2021 14:51:10)
 ------------------------------------------------------
 Symbolic Z-matrix:
 Charge =  0 Multiplicity = 1

                         Standard orientation:
 ---------------------------------------------------------------------
 Center     Atomic      Atomic             Coordinates (Angstroms)
 Number     Number       Type             X           Y           Z
 ---------------------------------------------------------------------
      1          6           0        3.503420    0.145013   -0.084667
      2          6           0        4.853345   -0.503173   -0.393767
      3          6           0        5.772554    0.405952   -1.210064
      4          1           0        3.009675    0.416477   -1.027784
      5          1           0        3.671661    1.083521    0.461494
      6          1           0        4.682550   -1.440875   -0.937972
      7          1           0        5.343849   -0.773299    0.550190
      8          1           0        5.972281    1.336995   -0.669814
      9          1           0        5.307224    0.665626   -2.166431
     10          1           0        6.731991   -0.077159   -1.419692
     11          6           0        2.573433   -0.751577    0.730796
     12          6           0        1.223508   -0.103391    1.039896
     13          6           0        0.304299   -1.012516    1.856192
     14          1           0        2.405192   -1.690085    0.184634
     15          1           0        3.067178   -1.023041    1.673912
     16          1           0        0.733005    0.166735    0.095939
     17          1           0        1.394303    0.834311    1.584101
     18          1           0        0.769629   -1.272190    2.812560
     19          1           0        0.104573   -1.943559    1.315942
     20          1           0       -0.655138   -0.529405    2.065821
     21          6           0       -2.603595    0.907249   -0.495044
     22          6           0       -2.976253    2.165759    0.289345
     23          6           0       -2.097442    3.365515   -0.065722
     24          1           0       -1.550185    0.661609   -0.302866
     25          1           0       -2.684513    1.116649   -1.570683
     26          1           0       -2.895992    1.953639    1.363206
     27          1           0       -4.028951    2.408323    0.095427
     28          1           0       -2.184671    3.605273   -1.130385
     29          1           0       -1.045275    3.148006    0.144597
     30          1           0       -2.381108    4.254289    0.506532
     31          6           0       -3.473258   -0.300685   -0.151086
     32          6           0       -3.100600   -1.559195   -0.935473
     33          6           0       -3.979411   -2.758951   -0.580406
     34          1           0       -3.392340   -0.510085    0.924554
     35          1           0       -4.526668   -0.055045   -0.343264
     36          1           0       -2.047902   -1.801759   -0.741556
     37          1           0       -3.180861   -1.347075   -2.009335
     38          1           0       -5.031579   -2.541442   -0.790726
     39          1           0       -3.892182   -2.998709    0.484257
     40          1           0       -3.695745   -3.647725   -1.152661
 ---------------------------------------------------------------------

 SCF Done:  E(RHF) =  -470.733087753     A.U. after   11 cycles
 E2 =    -0.1584008440D+01 EUMP2 =    -0.47231709619359D+03

 The electronic state is 1-A.
 Alpha  occ. eigenvalues --  -11.21699 -11.21632 -11.21579 -11.21576 -11.21464
 Alpha  occ. eigenvalues --  -11.21399 -11.21359 -11.21287 -11.21186 -11.21091
 Alpha  occ. eigenvalues --  -11.21048 -11.21041  -1.08505  -1.08389  -1.03602
 Alpha  occ. eigenvalues --   -1.03500  -0.96059  -0.95938  -0.87063  -0.86965
 Alpha  occ. eigenvalues --   -0.79689  -0.79550  -0.78356  -0.78167  -0.65264
 Alpha  occ. eigenvalues --   -0.64944  -0.61000  -0.60902  -0.59415  -0.59314
 Alpha  occ. eigenvalues --   -0.57687  -0.57540  -0.55369  -0.55187  -0.52738
 Alpha  occ. eigenvalues --   -0.52646  -0.52476  -0.52365  -0.50054  -0.49834
 Alpha  occ. eigenvalues --   -0.48029  -0.47875  -0.46832  -0.46515  -0.46040
 Alpha  occ. eigenvalues --   -0.45791  -0.45724  -0.45348  -0.43843  -0.43751
 Alpha virt. eigenvalues --    0.19638   0.23013   0.23678   0.24403   0.25927
 Alpha virt. eigenvalues --    0.26186   0.26951   0.27585   0.27842   0.29762
 Alpha virt. eigenvalues --    0.30406   0.31379   0.31774   0.32062   0.32214

 Mulliken charges:
               1
     1  C   -0.298610
     2  C   -0.299716
     3  C   -0.475772
     4  H    0.150088
     5  H    0.149652
     6  H    0.152040
     7  H    0.151999
     8  H    0.155265
     9  H    0.155340
    10  H    0.160367
    11  C   -0.297596
    12  C   -0.306011
    13  C   -0.479509
    14  H    0.149727
    15  H    0.149926
    16  H    0.156216
    17  H    0.152323
    18  H    0.156118
    19  H    0.156316
    20  H    0.162356
    21  C   -0.309212
    22  C   -0.299188
    23  C   -0.476507
    24  H    0.161121
    25  H    0.149016
    26  H    0.151230
    27  H    0.151929
    28  H    0.154989
    29  H    0.156156
    30  H    0.160051
    31  C   -0.297998
    32  C   -0.301690
    33  C   -0.475780
    34  H    0.149972
    35  H    0.149520
    36  H    0.153709
    37  H    0.151535
    38  H    0.155134
    39  H    0.155606
    40  H    0.159888
 Sum of Mulliken charges =  -0.00000

 Dipole moment (field-independent basis, Debye):
    X=              0.0481    Y=             -0.0095    Z=              0.0088  Tot=              0.0498
 Quadrupole moment (field-independent basis, Debye-Ang):
   XX=            -85.1622   YY=            -85.8188   ZZ=            -83.8440
   XY=             -0.9519   XZ=              1.3465   YZ=              0.5822

 Normal termination of Gaussian 16 at Thu May  6 03:46:07 2021.
