 Gaussian 16, Revision A.03,
 Gaussian 16:  EM64L-G16RevA.03 25-Dec-2016

 -------------
 #p 6-31g* mp2
 -------------

 ------------------------------------------------------
 Input file generated by CHIRIPA (05-May-2021 14:57:23)
 ------------------------------------------------------
 Symbolic Z-matrix:
 Charge =  0 Multiplicity = 1

                         Standard orientation:
 ---------------------------------------------------------------------
 Center     Atomic      Atomic             Coordinates (Angstroms)
 Number     Number       Type             X           Y           Z
 ---------------------------------------------------------------------
      1          6           0       -6.179698    0.767063   -0.403380
      2          6           0       -5.654764   -0.295235   -1.146674
      3          6           0       -4.360643   -0.763191   -0.900063
      4          6           0       -3.615876   -0.142821    0.101811
      5          6           0       -4.110861    0.917530    0.859398
      6          6           0       -5.407432    1.368994    0.595523
      7          1           0       -7.185954    1.124177   -0.601659
      8          1           0       -6.252234   -0.764613   -1.923049
      9          1           0       -3.929533   -1.583861   -1.460476
     10          1           0       -3.491239    1.365302    1.626853
     11          1           0       -5.812511    2.194170    1.174350
     12          7           0       -2.244551   -0.629495    0.372026
     13          8           0       -1.608700   -0.065956    1.260144
     14          8           0       -1.831523   -1.565275   -0.309416
     15          6           0        3.291823   -2.380449    0.250644
     16          6           0        4.616568   -1.981829    0.044068
     17          6           0        4.932965   -0.630932   -0.127747
     18          6           0        3.895065    0.298797   -0.087045
     19          6           0        2.565463   -0.067039    0.116948
     20          6           0        2.272296   -1.423469    0.286361
     21          1           0        3.055062   -3.432006    0.383181
     22          1           0        5.410392   -2.722836    0.015856
     23          1           0        5.949957   -0.294700   -0.289280
     24          1           0        1.795698    0.694763    0.140086
     25          1           0        1.242582   -1.730145    0.446623
     26          7           0        4.217724    1.731859   -0.267668
     27          8           0        3.285132    2.531424   -0.227601
     28          8           0        5.397106    2.028393   -0.445885
 ---------------------------------------------------------------------

 SCF Done:  E(RHF) =  -868.341785519     A.U. after   16 cycles
 E2 =    -0.2598597234D+01 EUMP2 =    -0.87094038275232D+03

 The electronic state is 1-A.
 Alpha  occ. eigenvalues --  -20.61835 -20.61826 -20.59823 -20.59813 -15.86795
 Alpha  occ. eigenvalues --  -15.84859 -11.31782 -11.29969 -11.28310 -11.28284
 Alpha  occ. eigenvalues --  -11.27978 -11.27235 -11.27213 -11.26565 -11.26334
 Alpha  occ. eigenvalues --  -11.26168 -11.25582 -11.25160  -1.60867  -1.58900
 Alpha  occ. eigenvalues --   -1.40426  -1.38460  -1.19916  -1.18095  -1.09388
 Alpha  occ. eigenvalues --   -1.07548  -1.05258  -1.03416  -0.96284  -0.94430
 Alpha  occ. eigenvalues --   -0.86675  -0.84838  -0.83129  -0.81240  -0.78217
 Alpha  occ. eigenvalues --   -0.76313  -0.73025  -0.72140  -0.71087  -0.71020
 Alpha  occ. eigenvalues --   -0.70218  -0.69222  -0.65571  -0.65260  -0.63729
 Alpha  occ. eigenvalues --   -0.63373  -0.62607  -0.60737  -0.55781  -0.53974
 Alpha  occ. eigenvalues --   -0.53608  -0.53344  -0.51820  -0.51483  -0.49801
 Alpha  occ. eigenvalues --   -0.49755  -0.47853  -0.47814  -0.45906  -0.43921
 Alpha  occ. eigenvalues --   -0.37874  -0.36840  -0.36105  -0.35016
 Alpha virt. eigenvalues --    0.04287   0.06146   0.10821   0.12618   0.15863
 Alpha virt. eigenvalues --    0.17712   0.20987   0.22864   0.26935   0.27834
 Alpha virt. eigenvalues --    0.28974   0.29532   0.30619   0.32062   0.32477

 Mulliken charges:
               1
     1  C   -0.169283
     2  C   -0.218601
     3  C   -0.170097
     4  C    0.158010
     5  C   -0.169681
     6  C   -0.218553
     7  H    0.228086
     8  H    0.225281
     9  H    0.275475
    10  H    0.277530
    11  H    0.226252
    12  N    0.489611
    13  O   -0.462383
    14  O   -0.465351
    15  C   -0.173091
    16  C   -0.218816
    17  C   -0.174118
    18  C    0.157718
    19  C   -0.174223
    20  C   -0.226183
    21  H    0.223019
    22  H    0.218179
    23  H    0.270793
    24  H    0.279776
    25  H    0.249580
    26  N    0.488101
    27  O   -0.462192
    28  O   -0.464839
 Sum of Mulliken charges =  -0.00000

 Dipole moment (field-independent basis, Debye):
    X=             -6.7187    Y=             -3.3171    Z=             -0.2668  Tot=              7.4977
 Quadrupole moment (field-independent basis, Debye-Ang):
   XX=            -75.2535   YY=           -106.9686   ZZ=           -103.7105
   XY=            -26.9510   XZ=              5.6900   YZ=              4.0337

 Normal termination of Gaussian 16 at Thu May  6 05:00:38 2021.
