 Gaussian 16, Revision A.03,
 Gaussian 16:  EM64L-G16RevA.03 25-Dec-2016

 -------------
 #p 6-31g* mp2
 -------------

 ------------------------------------------------------
 Input file generated by CHIRIPA (05-May-2021 14:57:21)
 ------------------------------------------------------
 Symbolic Z-matrix:
 Charge =  0 Multiplicity = 1

                         Standard orientation:
 ---------------------------------------------------------------------
 Center     Atomic      Atomic             Coordinates (Angstroms)
 Number     Number       Type             X           Y           Z
 ---------------------------------------------------------------------
      1          6           0       -1.481496    1.338597   -1.438232
      2          6           0       -1.322318   -0.003351   -1.077178
      3          6           0       -2.310071   -0.661927   -0.338823
      4          6           0       -3.449399    0.055056    0.023332
      5          6           0       -3.637136    1.392703   -0.321261
      6          6           0       -2.636361    2.031120   -1.059788
      7          1           0       -0.709128    1.842364   -2.011870
      8          1           0       -0.426479   -0.543671   -1.369704
      9          1           0       -2.212556   -1.700261   -0.045953
     10          1           0       -4.541158    1.905003   -0.015138
     11          1           0       -2.762676    3.073352   -1.338788
     12          7           0       -4.501982   -0.631478    0.805087
     13          8           0       -5.496441    0.022405    1.111888
     14          8           0       -4.312608   -1.810467    1.096222
     15          6           0        3.869718    1.963921    1.316860
     16          6           0        3.925737    0.738310    1.988621
     17          6           0        3.598911   -0.449352    1.327416
     18          6           0        3.218515   -0.374331   -0.011598
     19          6           0        3.153012    0.831366   -0.708229
     20          6           0        3.484214    2.006462   -0.027051
     21          1           0        4.125303    2.881645    1.838258
     22          1           0        4.224784    0.702253    3.032323
     23          1           0        3.633730   -1.411775    1.823348
     24          1           0        2.851311    0.835503   -1.748603
     25          1           0        3.439812    2.956862   -0.551278
     26          7           0        2.870203   -1.625005   -0.722159
     27          8           0        2.538111   -1.532058   -1.901867
     28          8           0        2.935883   -2.674547   -0.085932
 ---------------------------------------------------------------------

 SCF Done:  E(RHF) =  -868.338962460     A.U. after   16 cycles
 E2 =    -0.2599422646D+01 EUMP2 =    -0.87093838510655D+03

 The electronic state is 1-A.
 Alpha  occ. eigenvalues --  -20.61790 -20.61742 -20.60547 -20.60533 -15.86779
 Alpha  occ. eigenvalues --  -15.85592 -11.31995 -11.30938 -11.28598 -11.28486
 Alpha  occ. eigenvalues --  -11.28215 -11.27544 -11.27530 -11.27458 -11.27424
 Alpha  occ. eigenvalues --  -11.27274 -11.26581 -11.26387  -1.60827  -1.59619
 Alpha  occ. eigenvalues --   -1.40384  -1.39172  -1.20143  -1.19103  -1.09561
 Alpha  occ. eigenvalues --   -1.08514  -1.05524  -1.04486  -0.96422  -0.95353
 Alpha  occ. eigenvalues --   -0.86927  -0.85891  -0.83258  -0.82171  -0.78338
 Alpha  occ. eigenvalues --   -0.77211  -0.72990  -0.72146  -0.71811  -0.71240
 Alpha  occ. eigenvalues --   -0.70942  -0.70243  -0.65795  -0.65518  -0.64753
 Alpha  occ. eigenvalues --   -0.64466  -0.62878  -0.61813  -0.56006  -0.55038
 Alpha  occ. eigenvalues --   -0.53854  -0.53610  -0.52840  -0.52562  -0.49775
 Alpha  occ. eigenvalues --   -0.49735  -0.48571  -0.48565  -0.45797  -0.44581
 Alpha  occ. eigenvalues --   -0.38099  -0.37179  -0.37051  -0.36086
 Alpha virt. eigenvalues --    0.04161   0.05297   0.10489   0.11568   0.15676
 Alpha virt. eigenvalues --    0.16792   0.20352   0.21732   0.26198   0.27089
 Alpha virt. eigenvalues --    0.27825   0.28787   0.30428   0.31166   0.31848

 Mulliken charges:
               1
     1  C   -0.171252
     2  C   -0.225686
     3  C   -0.172036
     4  C    0.158583
     5  C   -0.172166
     6  C   -0.218683
     7  H    0.219993
     8  H    0.236193
     9  H    0.279162
    10  H    0.274192
    11  H    0.220517
    12  N    0.487892
    13  O   -0.462055
    14  O   -0.459172
    15  C   -0.169572
    16  C   -0.217653
    17  C   -0.169671
    18  C    0.158160
    19  C   -0.174949
    20  C   -0.217765
    21  H    0.228456
    22  H    0.227144
    23  H    0.278315
    24  H    0.271068
    25  H    0.223332
    26  N    0.486567
    27  O   -0.465568
    28  O   -0.453341
 Sum of Mulliken charges =  -0.00000

 Dipole moment (field-independent basis, Debye):
    X=              5.2223    Y=              6.7077    Z=             -0.0551  Tot=              8.5011
 Quadrupole moment (field-independent basis, Debye-Ang):
   XX=           -121.8180   YY=           -103.3947   ZZ=           -102.4590
   XY=              2.7760   XZ=             19.2381   YZ=             -3.4218

 Normal termination of Gaussian 16 at Thu May  6 14:28:20 2021.
