 Gaussian 16, Revision A.03,
 Gaussian 16:  EM64L-G16RevA.03 25-Dec-2016

 -------------
 #p 6-31g* mp2
 -------------

 ------------------------------------------------------
 Input file generated by CHIRIPA (05-May-2021 14:51:11)
 ------------------------------------------------------
 Symbolic Z-matrix:
 Charge =  0 Multiplicity = 1

                         Standard orientation:
 ---------------------------------------------------------------------
 Center     Atomic      Atomic             Coordinates (Angstroms)
 Number     Number       Type             X           Y           Z
 ---------------------------------------------------------------------
      1          6           0        4.050197   -0.559039    0.253104
      2          6           0        4.858083    0.445193   -0.569588
      3          6           0        6.286076    0.620507   -0.052004
      4          1           0        4.024109   -0.228618    1.300523
      5          1           0        4.566132   -1.529155    0.244144
      6          1           0        4.340065    1.412760   -0.560224
      7          1           0        4.882089    0.112443   -1.615207
      8          1           0        6.824706   -0.332298   -0.077313
      9          1           0        6.279603    0.975406    0.983663
     10          1           0        6.845692    1.342692   -0.654614
     11          6           0        2.620538   -0.745143   -0.252038
     12          6           0        1.812652   -1.749375    0.570654
     13          6           0        0.384658   -1.924689    0.053069
     14          1           0        2.104602    0.224973   -0.243078
     15          1           0        2.646625   -1.075563   -1.299457
     16          1           0        1.788646   -1.416625    1.616272
     17          1           0        2.330670   -2.716941    0.561290
     18          1           0        0.391132   -2.279588   -0.982597
     19          1           0       -0.153972   -0.971883    0.078379
     20          1           0       -0.174957   -2.646874    0.655680
     21          6           0       -3.514900   -0.090017    0.021260
     22          6           0       -4.998323   -0.362634   -0.229979
     23          6           0       -5.341911   -1.851779   -0.183201
     24          1           0       -2.917704   -0.629242   -0.726765
     25          1           0       -3.234412   -0.501389    1.000798
     26          1           0       -5.276254    0.050347   -1.208149
     27          1           0       -5.592065    0.177456    0.518613
     28          1           0       -5.092417   -2.274141    0.795556
     29          1           0       -4.774812   -2.401972   -0.941018
     30          1           0       -6.407297   -2.023892   -0.365381
     31          6           0       -3.155835    1.394199   -0.022325
     32          6           0       -1.672411    1.666816    0.228913
     33          6           0       -1.328823    3.155960    0.182135
     34          1           0       -3.436322    1.805571   -1.001864
     35          1           0       -3.753030    1.933424    0.725699
     36          1           0       -1.078670    1.126726   -0.519679
     37          1           0       -1.394480    1.253835    1.207083
     38          1           0       -1.895923    3.706154    0.939952
     39          1           0       -1.578318    3.578323   -0.796621
     40          1           0       -0.263438    3.328075    0.364316
 ---------------------------------------------------------------------

 SCF Done:  E(RHF) =  -470.732952143     A.U. after   11 cycles
 E2 =    -0.1583353550D+01 EUMP2 =    -0.47231630569300D+03

 The electronic state is 1-A.
 Alpha  occ. eigenvalues --  -11.21662 -11.21588 -11.21587 -11.21535 -11.21416
 Alpha  occ. eigenvalues --  -11.21377 -11.21337 -11.21316 -11.21130 -11.21060
 Alpha  occ. eigenvalues --  -11.21050 -11.20903  -1.08456  -1.08387  -1.03562
 Alpha  occ. eigenvalues --   -1.03474  -0.95996  -0.95928  -0.87018  -0.86944
 Alpha  occ. eigenvalues --   -0.79677  -0.79519  -0.78319  -0.78145  -0.65096
 Alpha  occ. eigenvalues --   -0.65010  -0.60978  -0.60866  -0.59399  -0.59271
 Alpha  occ. eigenvalues --   -0.57609  -0.57542  -0.55278  -0.55230  -0.52723
 Alpha  occ. eigenvalues --   -0.52621  -0.52429  -0.52334  -0.49958  -0.49889
 Alpha  occ. eigenvalues --   -0.48085  -0.47768  -0.46742  -0.46570  -0.45929
 Alpha  occ. eigenvalues --   -0.45739  -0.45702  -0.45329  -0.43800  -0.43736
 Alpha virt. eigenvalues --    0.21627   0.23042   0.23749   0.24558   0.25678
 Alpha virt. eigenvalues --    0.26583   0.26669   0.27351   0.28356   0.29441
 Alpha virt. eigenvalues --    0.30680   0.31106   0.31746   0.31882   0.32025

 Mulliken charges:
               1
     1  C   -0.298214
     2  C   -0.299594
     3  C   -0.475682
     4  H    0.149552
     5  H    0.149567
     6  H    0.151768
     7  H    0.151860
     8  H    0.155174
     9  H    0.155142
    10  H    0.160188
    11  C   -0.299095
    12  C   -0.299114
    13  C   -0.485391
    14  H    0.149886
    15  H    0.149289
    16  H    0.151332
    17  H    0.151434
    18  H    0.153291
    19  H    0.167472
    20  H    0.159665
    21  C   -0.300347
    22  C   -0.299719
    23  C   -0.475637
    24  H    0.152717
    25  H    0.149964
    26  H    0.151794
    27  H    0.151746
    28  H    0.155157
    29  H    0.155557
    30  H    0.160086
    31  C   -0.297928
    32  C   -0.305375
    33  C   -0.474865
    34  H    0.149519
    35  H    0.149649
    36  H    0.156009
    37  H    0.152393
    38  H    0.155451
    39  H    0.155570
    40  H    0.159730
 Sum of Mulliken charges =  -0.00000

 Dipole moment (field-independent basis, Debye):
    X=             -0.0464    Y=              0.0282    Z=             -0.0050  Tot=              0.0545
 Quadrupole moment (field-independent basis, Debye-Ang):
   XX=            -85.9956   YY=            -85.4307   ZZ=            -83.4461
   XY=             -0.9021   XZ=             -0.6363   YZ=              0.4892

 Normal termination of Gaussian 16 at Thu May  6 00:39:35 2021.
