 Gaussian 16, Revision A.03,
 Gaussian 16:  EM64L-G16RevA.03 25-Dec-2016

 -------------
 #p 6-31g* mp2
 -------------

 ------------------------------------------------------
 Input file generated by CHIRIPA (05-May-2021 14:53:16)
 ------------------------------------------------------
 Symbolic Z-matrix:
 Charge =  0 Multiplicity = 1

                         Standard orientation:
 ---------------------------------------------------------------------
 Center     Atomic      Atomic             Coordinates (Angstroms)
 Number     Number       Type             X           Y           Z
 ---------------------------------------------------------------------
      1          6           0       -4.067787   -0.323388   -0.004597
      2          6           0       -3.735576   -1.815845   -0.018509
      3          6           0       -4.856439   -2.676429    0.565319
      4          1           0       -4.273009   -0.009531    1.028032
      5          1           0       -4.993624   -0.155641   -0.572121
      6          1           0       -2.809893   -1.980548    0.547706
      7          1           0       -3.530934   -2.126143   -1.051201
      8          1           0       -5.781936   -2.541537   -0.003769
      9          1           0       -5.056798   -2.395114    1.604222
     10          1           0       -4.597959   -3.739753    0.545580
     11          6           0       -2.956918    0.549960   -0.585080
     12          6           0       -3.289129    2.042417   -0.571168
     13          6           0       -2.168266    2.903001   -1.154996
     14          1           0       -2.031082    0.382213   -0.017557
     15          1           0       -2.751696    0.236104   -1.617709
     16          1           0       -3.493771    2.352716    0.461523
     17          1           0       -4.214813    2.207120   -1.137383
     18          1           0       -1.967907    2.621686   -2.193899
     19          1           0       -1.242769    2.768109   -0.585908
     20          1           0       -2.426747    3.966325   -1.135257
     21          6           0        1.081552    1.375164    1.438557
     22          6           0        0.748552    0.055027    1.117822
     23          6           0        1.661834   -0.765027    0.448513
     24          6           0        2.904747   -0.230007    0.113537
     25          6           0        3.266044    1.081204    0.419283
     26          6           0        2.337023    1.883143    1.088880
     27          1           0        0.365980    2.005166    1.958604
     28          1           0       -0.225728   -0.342149    1.388144
     29          1           0        1.430083   -1.790628    0.188025
     30          1           0        4.244994    1.448957    0.136738
     31          1           0        2.598365    2.908002    1.336690
     32          7           0        3.879929   -1.088573   -0.595183
     33          8           0        4.968403   -0.593435   -0.879258
     34          8           0        3.537338   -2.240399   -0.853183
 ---------------------------------------------------------------------

 SCF Done:  E(RHF) =  -669.535279696     A.U. after   15 cycles
 E2 =    -0.2092506884D+01 EUMP2 =    -0.67162778657979D+03

 The electronic state is 1-A.
 Alpha  occ. eigenvalues --  -20.60791 -20.60786 -15.85845 -11.31238 -11.27802
 Alpha  occ. eigenvalues --  -11.27797 -11.27569 -11.26833 -11.26821 -11.22301
 Alpha  occ. eigenvalues --  -11.22286 -11.22108 -11.22041 -11.21677 -11.21606
 Alpha  occ. eigenvalues --   -1.59866  -1.39419  -1.19414  -1.09132  -1.08807
 Alpha  occ. eigenvalues --   -1.04819  -1.04178  -0.96614  -0.95636  -0.87626
 Alpha  occ. eigenvalues --   -0.86222  -0.82466  -0.80244  -0.78954  -0.77502
 Alpha  occ. eigenvalues --   -0.72064  -0.71188  -0.70523  -0.65854  -0.65067
 Alpha  occ. eigenvalues --   -0.64779  -0.62168  -0.61585  -0.59977  -0.58222
 Alpha  occ. eigenvalues --   -0.55941  -0.55299  -0.53297  -0.53148  -0.53073
 Alpha  occ. eigenvalues --   -0.52870  -0.50555  -0.48828  -0.48816  -0.48550
 Alpha  occ. eigenvalues --   -0.47297  -0.46459  -0.46408  -0.44818  -0.44440
 Alpha  occ. eigenvalues --   -0.37370  -0.36391
 Alpha virt. eigenvalues --    0.04997   0.11098   0.16383   0.19235   0.22870
 Alpha virt. eigenvalues --    0.23219   0.24973   0.26340   0.27002   0.28229
 Alpha virt. eigenvalues --    0.29363   0.30668   0.31127   0.31413   0.32416

 Mulliken charges:
               1
     1  C   -0.298873
     2  C   -0.299165
     3  C   -0.476062
     4  H    0.147689
     5  H    0.153045
     6  H    0.143530
     7  H    0.156000
     8  H    0.157612
     9  H    0.154947
    10  H    0.162741
    11  C   -0.302602
    12  C   -0.300023
    13  C   -0.477742
    14  H    0.144212
    15  H    0.154397
    16  H    0.148332
    17  H    0.155272
    18  H    0.159358
    19  H    0.152246
    20  H    0.160840
    21  C   -0.171787
    22  C   -0.217602
    23  C   -0.171956
    24  C    0.158824
    25  C   -0.170522
    26  C   -0.218804
    27  H    0.226389
    28  H    0.225858
    29  H    0.276169
    30  H    0.275940
    31  H    0.224024
    32  N    0.488050
    33  O   -0.460242
    34  O   -0.460094
 Sum of Mulliken charges =  -0.00000

 Dipole moment (field-independent basis, Debye):
    X=             -3.4915    Y=              2.9961    Z=              2.4054  Tot=              5.1916
 Quadrupole moment (field-independent basis, Debye-Ang):
   XX=           -112.7156   YY=            -94.0528   ZZ=            -94.1671
   XY=             12.2269   XZ=              7.8601   YZ=              0.1211

 Normal termination of Gaussian 16 at Thu May  6 10:39:22 2021.
