 Gaussian 16, Revision A.03,
 Gaussian 16:  EM64L-G16RevA.03 25-Dec-2016

 -------------
 #p 6-31g* mp2
 -------------

 ------------------------------------------------------
 Input file generated by CHIRIPA (05-May-2021 14:55:22)
 ------------------------------------------------------
 Symbolic Z-matrix:
 Charge =  0 Multiplicity = 1

                         Standard orientation:
 ---------------------------------------------------------------------
 Center     Atomic      Atomic             Coordinates (Angstroms)
 Number     Number       Type             X           Y           Z
 ---------------------------------------------------------------------
      1          6           0       -0.413581   -1.995711    1.087806
      2          6           0       -1.192749   -1.138249    1.871500
      3          6           0       -2.202699   -0.366115    1.289814
      4          6           0       -2.407140   -0.476741   -0.084688
      5          6           0       -1.647583   -1.321874   -0.892224
      6          6           0       -0.643081   -2.084630   -0.289127
      7          1           0        0.368856   -2.591881    1.547989
      8          1           0       -1.016757   -1.067155    2.941087
      9          1           0       -2.820682    0.305802    1.872945
     10          1           0       -1.846620   -1.371271   -1.955879
     11          1           0       -0.039517   -2.749698   -0.900226
     12          7           0       -3.473445    0.335719   -0.711826
     13          8           0       -3.633634    0.220129   -1.924928
     14          8           0       -4.128835    1.072732    0.021599
     15          6           0        2.483910    1.448457   -0.037015
     16          6           0        1.083643    1.373265    0.572562
     17          6           0        0.351466    2.715124    0.539019
     18          1           0        3.072261    2.202423    0.503655
     19          1           0        2.405791    1.798722   -1.075575
     20          1           0        1.164263    1.021922    1.609228
     21          1           0        0.498619    0.619253    0.030502
     22          1           0        0.241621    3.068387   -0.491388
     23          1           0        0.911047    3.473344    1.096308
     24          1           0       -0.647425    2.638551    0.979716
     25          6           0        3.228474    0.114791   -0.010784
     26          6           0        4.628740    0.189984   -0.620362
     27          6           0        5.360918   -1.151876   -0.586818
     28          1           0        3.306592   -0.235474    1.027776
     29          1           0        2.640122   -0.639175   -0.551453
     30          1           0        5.213764    0.943994   -0.078301
     31          1           0        4.548120    0.541325   -1.657027
     32          1           0        4.801336   -1.910097   -1.144107
     33          1           0        5.470762   -1.505140    0.443589
     34          1           0        6.359809   -1.075303   -1.027514
 ---------------------------------------------------------------------

 SCF Done:  E(RHF) =  -669.534047610     A.U. after   15 cycles
 E2 =    -0.2095692030D+01 EUMP2 =    -0.67162973963992D+03

 The electronic state is 1-A.
 Alpha  occ. eigenvalues --  -20.60843 -20.60838 -15.85897 -11.31299 -11.27870
 Alpha  occ. eigenvalues --  -11.27844 -11.27545 -11.26869 -11.26825 -11.21987
 Alpha  occ. eigenvalues --  -11.21812 -11.21569 -11.21543 -11.21504 -11.21016
 Alpha  occ. eigenvalues --   -1.59916  -1.39469  -1.19479  -1.08862  -1.08680
 Alpha  occ. eigenvalues --   -1.04875  -1.03746  -0.96222  -0.95674  -0.87231
 Alpha  occ. eigenvalues --   -0.86258  -0.82506  -0.79836  -0.78528  -0.77560
 Alpha  occ. eigenvalues --   -0.72111  -0.71241  -0.70547  -0.65348  -0.65106
 Alpha  occ. eigenvalues --   -0.64863  -0.62216  -0.61172  -0.59642  -0.57885
 Alpha  occ. eigenvalues --   -0.55532  -0.55339  -0.53381  -0.52957  -0.52763
 Alpha  occ. eigenvalues --   -0.52631  -0.50155  -0.48874  -0.48867  -0.48086
 Alpha  occ. eigenvalues --   -0.46852  -0.46034  -0.45856  -0.44866  -0.44011
 Alpha  occ. eigenvalues --   -0.37371  -0.36448
 Alpha virt. eigenvalues --    0.04959   0.11042   0.16442   0.20935   0.22800
 Alpha virt. eigenvalues --    0.23899   0.25960   0.26811   0.27339   0.27763
 Alpha virt. eigenvalues --    0.28765   0.30327   0.31227   0.31408   0.31702

 Mulliken charges:
               1
     1  C   -0.167747
     2  C   -0.214083
     3  C   -0.171182
     4  C    0.161196
     5  C   -0.174155
     6  C   -0.219511
     7  H    0.226719
     8  H    0.223697
     9  H    0.275839
    10  H    0.276065
    11  H    0.224065
    12  N    0.488222
    13  O   -0.460216
    14  O   -0.460182
    15  C   -0.298022
    16  C   -0.303100
    17  C   -0.477555
    18  H    0.149353
    19  H    0.150659
    20  H    0.143412
    21  H    0.162438
    22  H    0.158079
    23  H    0.153706
    24  H    0.160272
    25  C   -0.297159
    26  C   -0.299641
    27  C   -0.475398
    28  H    0.144660
    29  H    0.144314
    30  H    0.153613
    31  H    0.153654
    32  H    0.151991
    33  H    0.153635
    34  H    0.162361
 Sum of Mulliken charges =  -0.00000

 Dipole moment (field-independent basis, Debye):
    X=              3.6517    Y=             -2.8951    Z=              2.1960  Tot=              5.1516
 Quadrupole moment (field-independent basis, Debye-Ang):
   XX=           -113.7617   YY=            -92.6699   ZZ=            -90.4331
   XY=              5.3627   XZ=             -6.5699   YZ=              1.1953

 Normal termination of Gaussian 16 at Thu May  6 03:03:00 2021.
