 Gaussian 16, Revision A.03,
 Gaussian 16:  EM64L-G16RevA.03 25-Dec-2016

 -------------
 #p 6-31g* mp2
 -------------

 ------------------------------------------------------
 Input file generated by CHIRIPA (05-May-2021 14:55:22)
 ------------------------------------------------------
 Symbolic Z-matrix:
 Charge =  0 Multiplicity = 1

                         Standard orientation:
 ---------------------------------------------------------------------
 Center     Atomic      Atomic             Coordinates (Angstroms)
 Number     Number       Type             X           Y           Z
 ---------------------------------------------------------------------
      1          6           0        0.770773    0.970731    1.117880
      2          6           0        0.801285   -0.414597    0.926945
      3          6           0        1.945287   -1.036072    0.417457
      4          6           0        3.045734   -0.238155    0.108207
      5          6           0        3.046109    1.144327    0.287192
      6          6           0        1.891307    1.744408    0.797958
      7          1           0       -0.122110    1.445198    1.514159
      8          1           0       -0.067459   -1.017949    1.174522
      9          1           0        1.996064   -2.106566    0.259715
     10          1           0        3.927679    1.719383    0.031139
     11          1           0        1.870457    2.820479    0.945201
     12          7           0        4.262554   -0.884758   -0.431842
     13          8           0        5.218910   -0.159507   -0.696476
     14          8           0        4.236901   -2.104572   -0.580271
     15          6           0       -3.443189    0.859005    0.006561
     16          6           0       -2.636405    1.676239   -1.002999
     17          6           0       -2.246414    3.055345   -0.470299
     18          1           0       -4.348791    1.417347    0.280573
     19          1           0       -2.855782    0.744477    0.928099
     20          1           0       -3.224599    1.788015   -1.922862
     21          1           0       -1.732713    1.115802   -1.274784
     22          1           0       -1.638337    2.960737    0.435181
     23          1           0       -3.138699    3.636770   -0.216580
     24          1           0       -1.670359    3.622523   -1.208086
     25          6           0       -3.840489   -0.522143   -0.511429
     26          6           0       -4.647274   -1.339378    0.498131
     27          6           0       -5.037265   -2.718484   -0.034569
     28          1           0       -4.427897   -0.407614   -1.432966
     29          1           0       -2.934887   -1.080485   -0.785440
     30          1           0       -5.550965   -0.778940    0.769916
     31          1           0       -4.059080   -1.451153    1.417995
     32          1           0       -4.144979   -3.299908   -0.288287
     33          1           0       -5.645342   -2.623876   -0.940049
     34          1           0       -5.613319   -3.285661    0.703219
 ---------------------------------------------------------------------

 SCF Done:  E(RHF) =  -669.535329704     A.U. after   15 cycles
 E2 =    -0.2092343949D+01 EUMP2 =    -0.67162767365242D+03

 The electronic state is 1-A.
 Alpha  occ. eigenvalues --  -20.60783 -20.60778 -15.85837 -11.31215 -11.27789
 Alpha  occ. eigenvalues --  -11.27780 -11.27516 -11.26812 -11.26788 -11.22455
 Alpha  occ. eigenvalues --  -11.22371 -11.22352 -11.22195 -11.22100 -11.21677
 Alpha  occ. eigenvalues --   -1.59858  -1.39411  -1.19391  -1.09308  -1.08780
 Alpha  occ. eigenvalues --   -1.04794  -1.04360  -0.96826  -0.95615  -0.87836
 Alpha  occ. eigenvalues --   -0.86189  -0.82449  -0.80414  -0.79107  -0.77490
 Alpha  occ. eigenvalues --   -0.72055  -0.71182  -0.70545  -0.65967  -0.65041
 Alpha  occ. eigenvalues --   -0.64772  -0.62139  -0.61772  -0.60183  -0.58420
 Alpha  occ. eigenvalues --   -0.56225  -0.55217  -0.53483  -0.53240  -0.53102
 Alpha  occ. eigenvalues --   -0.52882  -0.50776  -0.48819  -0.48809  -0.48717
 Alpha  occ. eigenvalues --   -0.47449  -0.46643  -0.46576  -0.44814  -0.44622
 Alpha  occ. eigenvalues --   -0.37349  -0.36397
 Alpha virt. eigenvalues --    0.05018   0.11191   0.16404   0.18500   0.22339
 Alpha virt. eigenvalues --    0.23796   0.25163   0.25696   0.26591   0.28435
 Alpha virt. eigenvalues --    0.29105   0.30419   0.30961   0.31408   0.32128

 Mulliken charges:
               1
     1  C   -0.171423
     2  C   -0.221331
     3  C   -0.170878
     4  C    0.158527
     5  C   -0.170850
     6  C   -0.219793
     7  H    0.230381
     8  H    0.224039
     9  H    0.275646
    10  H    0.275797
    11  H    0.224131
    12  N    0.488050
    13  O   -0.460286
    14  O   -0.460382
    15  C   -0.298051
    16  C   -0.304050
    17  C   -0.475118
    18  H    0.153395
    19  H    0.138300
    20  H    0.156845
    21  H    0.156851
    22  H    0.142367
    23  H    0.158917
    24  H    0.164697
    25  C   -0.299446
    26  C   -0.299764
    27  C   -0.475989
    28  H    0.153805
    29  H    0.148426
    30  H    0.154258
    31  H    0.147944
    32  H    0.155015
    33  H    0.157575
    34  H    0.162393
 Sum of Mulliken charges =  -0.00000

 Dipole moment (field-independent basis, Debye):
    X=             -4.4341    Y=              2.2801    Z=              1.7699  Tot=              5.2908
 Quadrupole moment (field-independent basis, Debye-Ang):
   XX=           -118.9641   YY=            -92.7142   ZZ=            -95.0472
   XY=              9.7022   XZ=              5.8509   YZ=             -1.0270

 Normal termination of Gaussian 16 at Thu May  6 04:39:11 2021.
