 Gaussian 16, Revision A.03,
 Gaussian 16:  EM64L-G16RevA.03 25-Dec-2016

 -------------
 #p 6-31g* mp2
 -------------

 ------------------------------------------------------
 Input file generated by CHIRIPA (05-May-2021 14:51:09)
 ------------------------------------------------------
 Symbolic Z-matrix:
 Charge =  0 Multiplicity = 1

                         Standard orientation:
 ---------------------------------------------------------------------
 Center     Atomic      Atomic             Coordinates (Angstroms)
 Number     Number       Type             X           Y           Z
 ---------------------------------------------------------------------
      1          6           0       -3.343809   -0.173691   -0.426277
      2          6           0       -4.476620   -1.068641    0.077498
      3          6           0       -4.467267   -2.454285   -0.568797
      4          1           0       -3.423303   -0.071547   -1.517236
      5          1           0       -2.381449   -0.665441   -0.227681
      6          1           0       -5.436496   -0.574722   -0.120742
      7          1           0       -4.394533   -1.168510    1.167408
      8          1           0       -3.524570   -2.970373   -0.360051
      9          1           0       -4.572453   -2.373211   -1.655519
     10          1           0       -5.285358   -3.077466   -0.194321
     11          6           0       -3.339863    1.214867    0.210604
     12          6           0       -2.207051    2.109817   -0.293170
     13          6           0       -2.216404    3.495461    0.353125
     14          1           0       -4.302222    1.706618    0.012008
     15          1           0       -3.260369    1.112723    1.301564
     16          1           0       -2.289138    2.209687   -1.383080
     17          1           0       -1.247175    1.615898   -0.094931
     18          1           0       -2.111219    3.414387    1.439847
     19          1           0       -3.159102    4.011549    0.144378
     20          1           0       -1.398314    4.118642   -0.021351
     21          6           0        2.831855   -0.821184    0.590530
     22          6           0        1.481986   -1.120341   -0.062419
     23          6           0        0.472309   -1.721310    0.915938
     24          1           0        3.239246   -1.748146    1.016817
     25          1           0        2.679437   -0.130872    1.431739
     26          1           0        1.637082   -1.808798   -0.903007
     27          1           0        1.077851   -0.192598   -0.487368
     28          1           0        0.288275   -1.035561    1.749294
     29          1           0        0.850683   -2.660945    1.331293
     30          1           0       -0.485586   -1.927334    0.428238
     31          6           0        3.851816   -0.219992   -0.374858
     32          6           0        5.201686    0.079165    0.278091
     33          6           0        6.211363    0.680134   -0.700266
     34          1           0        4.004235   -0.910304   -1.216067
     35          1           0        3.444426    0.706970   -0.801145
     36          1           0        5.605820   -0.848579    0.703040
     37          1           0        5.046589    0.767621    1.118680
     38          1           0        5.832988    1.619769   -1.115620
     39          1           0        6.395397   -0.005615   -1.533621
     40          1           0        7.169258    0.886159   -0.212566
 ---------------------------------------------------------------------

 SCF Done:  E(RHF) =  -470.733285451     A.U. after   11 cycles
 E2 =    -0.1583157036D+01 EUMP2 =    -0.47231644248605D+03

 The electronic state is 1-A.
 Alpha  occ. eigenvalues --  -11.21657 -11.21620 -11.21613 -11.21581 -11.21438
 Alpha  occ. eigenvalues --  -11.21381 -11.21376 -11.21310 -11.21150 -11.21088
 Alpha  occ. eigenvalues --  -11.21083 -11.21069  -1.08470  -1.08414  -1.03573
 Alpha  occ. eigenvalues --   -1.03527  -0.96034  -0.95967  -0.87054  -0.86982
 Alpha  occ. eigenvalues --   -0.79653  -0.79569  -0.78279  -0.78232  -0.65153
 Alpha  occ. eigenvalues --   -0.65013  -0.60998  -0.60902  -0.59425  -0.59324
 Alpha  occ. eigenvalues --   -0.57679  -0.57550  -0.55339  -0.55235  -0.52769
 Alpha  occ. eigenvalues --   -0.52667  -0.52484  -0.52352  -0.49981  -0.49896
 Alpha  occ. eigenvalues --   -0.48031  -0.47843  -0.46720  -0.46561  -0.45832
 Alpha  occ. eigenvalues --   -0.45782  -0.45736  -0.45636  -0.43793  -0.43765
 Alpha virt. eigenvalues --    0.20095   0.22894   0.23646   0.24149   0.26157
 Alpha virt. eigenvalues --    0.26688   0.27042   0.27577   0.27758   0.29268
 Alpha virt. eigenvalues --    0.29746   0.31500   0.31655   0.31944   0.32253

 Mulliken charges:
               1
     1  C   -0.307119
     2  C   -0.299186
     3  C   -0.476374
     4  H    0.149323
     5  H    0.158518
     6  H    0.151869
     7  H    0.152125
     8  H    0.155028
     9  H    0.155205
    10  H    0.160425
    11  C   -0.297425
    12  C   -0.302890
    13  C   -0.475635
    14  H    0.149510
    15  H    0.149621
    16  H    0.152015
    17  H    0.154378
    18  H    0.155094
    19  H    0.155420
    20  H    0.159954
    21  C   -0.298284
    22  C   -0.302730
    23  C   -0.481119
    24  H    0.149864
    25  H    0.149494
    26  H    0.152499
    27  H    0.154588
    28  H    0.154831
    29  H    0.155883
    30  H    0.164660
    31  C   -0.298357
    32  C   -0.299701
    33  C   -0.475736
    34  H    0.149670
    35  H    0.149839
    36  H    0.151969
    37  H    0.151970
    38  H    0.155254
    39  H    0.155231
    40  H    0.160317
 Sum of Mulliken charges =  -0.00000

 Dipole moment (field-independent basis, Debye):
    X=              0.0198    Y=             -0.0094    Z=             -0.0011  Tot=              0.0219
 Quadrupole moment (field-independent basis, Debye-Ang):
   XX=            -85.0328   YY=            -85.0611   ZZ=            -84.6590
   XY=             -1.0343   XZ=              0.7945   YZ=             -0.1668

 Normal termination of Gaussian 16 at Thu May  6 06:55:16 2021.
