 Gaussian 16, Revision A.03,
 Gaussian 16:  EM64L-G16RevA.03 25-Dec-2016

 -------------
 #p 6-31g* mp2
 -------------

 ------------------------------------------------------
 Input file generated by CHIRIPA (05-May-2021 14:57:24)
 ------------------------------------------------------
 Symbolic Z-matrix:
 Charge =  0 Multiplicity = 1

                         Standard orientation:
 ---------------------------------------------------------------------
 Center     Atomic      Atomic             Coordinates (Angstroms)
 Number     Number       Type             X           Y           Z
 ---------------------------------------------------------------------
      1          6           0       -5.093401    0.504289   -1.674713
      2          6           0       -4.736136    1.547364   -0.813971
      3          6           0       -3.824560    1.330979    0.223697
      4          6           0       -3.287202    0.053312    0.372372
      5          6           0       -3.623243   -1.006282   -0.468833
      6          6           0       -4.536795   -0.766964   -1.499706
      7          1           0       -5.802303    0.681289   -2.478158
      8          1           0       -5.166813    2.535661   -0.947508
      9          1           0       -3.530409    2.120534    0.904502
     10          1           0       -3.177159   -1.980661   -0.310682
     11          1           0       -4.812410   -1.578912   -2.166655
     12          7           0       -2.321111   -0.187904    1.467307
     13          8           0       -1.861852   -1.322652    1.577154
     14          8           0       -2.041441    0.762346    2.194938
     15          6           0        5.276995    1.640155   -0.296215
     16          6           0        5.582646    0.287385   -0.478183
     17          6           0        4.576417   -0.681607   -0.422481
     18          6           0        3.269453   -0.260629   -0.181830
     19          6           0        2.933249    1.079485    0.003510
     20          6           0        3.955601    2.031198   -0.056372
     21          1           0        6.064921    2.386180   -0.341109
     22          1           0        6.607973   -0.019206   -0.664604
     23          1           0        4.785091   -1.735656   -0.559789
     24          1           0        1.901822    1.354536    0.187697
     25          1           0        3.715299    3.081066    0.085320
     26          7           0        2.195668   -1.277311   -0.120648
     27          8           0        1.052108   -0.880616    0.092756
     28          8           0        2.517928   -2.451632   -0.287257
 ---------------------------------------------------------------------

 SCF Done:  E(RHF) =  -868.336628078     A.U. after   16 cycles
 E2 =    -0.2600105769D+01 EUMP2 =    -0.87093673384680D+03

 The electronic state is 1-A.
 Alpha  occ. eigenvalues --  -20.60090 -20.60026 -20.59802 -20.59626 -15.85118
 Alpha  occ. eigenvalues --  -15.84765 -11.30647 -11.30403 -11.27259 -11.27215
 Alpha  occ. eigenvalues --  -11.27062 -11.27039 -11.26951 -11.26838 -11.26316
 Alpha  occ. eigenvalues --  -11.26291 -11.26139 -11.26070  -1.59131  -1.58765
 Alpha  occ. eigenvalues --   -1.38681  -1.38316  -1.18843  -1.18609  -1.08212
 Alpha  occ. eigenvalues --   -1.07959  -1.04272  -1.04058  -0.95017  -0.94746
 Alpha  occ. eigenvalues --   -0.85664  -0.85444  -0.81852  -0.81581  -0.76867
 Alpha  occ. eigenvalues --   -0.76576  -0.71399  -0.70983  -0.70463  -0.70042
 Alpha  occ. eigenvalues --   -0.69931  -0.69731  -0.64496  -0.64285  -0.64261
 Alpha  occ. eigenvalues --   -0.64076  -0.61615  -0.61402  -0.54782  -0.54571
 Alpha  occ. eigenvalues --   -0.52594  -0.52374  -0.52365  -0.52161  -0.48118
 Alpha  occ. eigenvalues --   -0.48078  -0.47775  -0.47732  -0.44067  -0.43600
 Alpha  occ. eigenvalues --   -0.36843  -0.36611  -0.35883  -0.35674
 Alpha virt. eigenvalues --    0.05664   0.06005   0.11768   0.11978   0.17126
 Alpha virt. eigenvalues --    0.17420   0.21863   0.22041   0.27765   0.27927
 Alpha virt. eigenvalues --    0.28771   0.28982   0.31378   0.31562   0.33050

 Mulliken charges:
               1
     1  C   -0.172016
     2  C   -0.219014
     3  C   -0.172916
     4  C    0.160787
     5  C   -0.168040
     6  C   -0.219143
     7  H    0.222477
     8  H    0.219608
     9  H    0.271950
    10  H    0.280450
    11  H    0.222048
    12  N    0.489961
    13  O   -0.444689
    14  O   -0.471071
    15  C   -0.171445
    16  C   -0.218739
    17  C   -0.171365
    18  C    0.158785
    19  C   -0.170389
    20  C   -0.218794
    21  H    0.223626
    22  H    0.221564
    23  H    0.274575
    24  H    0.278480
    25  H    0.222227
    26  N    0.488354
    27  O   -0.453652
    28  O   -0.463618
 Sum of Mulliken charges =  -0.00000

 Dipole moment (field-independent basis, Debye):
    X=              0.4253    Y=              4.1850    Z=             -3.9860  Tot=              5.7951
 Quadrupole moment (field-independent basis, Debye-Ang):
   XX=            -58.3565   YY=            -99.9178   ZZ=           -108.9129
   XY=              5.2355   XZ=              9.4425   YZ=              1.6162

 Normal termination of Gaussian 16 at Wed May  5 22:41:31 2021.
