 Gaussian 16, Revision A.03,
 Gaussian 16:  EM64L-G16RevA.03 25-Dec-2016

 -------------
 #p 6-31g* mp2
 -------------

 ------------------------------------------------------
 Input file generated by CHIRIPA (05-May-2021 14:51:10)
 ------------------------------------------------------
 Symbolic Z-matrix:
 Charge =  0 Multiplicity = 1

                         Standard orientation:
 ---------------------------------------------------------------------
 Center     Atomic      Atomic             Coordinates (Angstroms)
 Number     Number       Type             X           Y           Z
 ---------------------------------------------------------------------
      1          6           0        2.741938   -0.336246   -0.098424
      2          6           0        2.322739   -1.228048   -1.267589
      3          6           0        2.636054   -2.705031   -1.026447
      4          1           0        3.818787   -0.459599    0.080808
      5          1           0        2.232298   -0.675943    0.813864
      6          1           0        2.831953   -0.885907   -2.177676
      7          1           0        1.246799   -1.102413   -1.444182
      8          1           0        2.115901   -3.068513   -0.134301
      9          1           0        3.710062   -2.850777   -0.871962
     10          1           0        2.328173   -3.324423   -1.874634
     11          6           0        2.435233    1.143117   -0.324579
     12          6           0        2.854432    2.034918    0.844586
     13          6           0        2.541117    3.511901    0.603443
     14          1           0        2.944872    1.482813   -1.236867
     15          1           0        1.358384    1.266469   -0.503811
     16          1           0        3.930372    1.909284    1.021179
     17          1           0        2.345218    1.692778    1.754672
     18          1           0        1.467109    3.657647    0.448959
     19          1           0        3.061269    3.875383   -0.288702
     20          1           0        2.848998    4.131294    1.451631
     21          6           0       -2.234973   -0.753616    0.790953
     22          6           0       -1.504985   -2.030527    0.373102
     23          6           0       -0.802469   -2.719711    1.543269
     24          1           0       -1.515618   -0.060535    1.248242
     25          1           0       -2.971174   -0.998371    1.569092
     26          1           0       -0.771344   -1.783663   -0.405002
     27          1           0       -2.226126   -2.720571   -0.083418
     28          1           0       -1.524939   -2.994233    2.318689
     29          1           0       -0.061892   -2.052003    1.995278
     30          1           0       -0.287053   -3.630248    1.222134
     31          6           0       -2.942197   -0.053255   -0.367950
     32          6           0       -3.672186    1.223657    0.049902
     33          6           0       -4.374702    1.912840   -1.120266
     34          1           0       -2.205997    0.191500   -1.146087
     35          1           0       -3.661553   -0.746335   -0.825238
     36          1           0       -2.951044    1.913701    0.506423
     37          1           0       -4.405826    0.976793    0.828005
     38          1           0       -5.115279    1.245132   -1.572275
     39          1           0       -3.652232    2.187363   -1.895685
     40          1           0       -4.890118    2.823378   -0.799131
 ---------------------------------------------------------------------

 SCF Done:  E(RHF) =  -470.733134231     A.U. after   11 cycles
 E2 =    -0.1584138277D+01 EUMP2 =    -0.47231727250761D+03

 The electronic state is 1-A.
 Alpha  occ. eigenvalues --  -11.21650 -11.21646 -11.21638 -11.21621 -11.21465
 Alpha  occ. eigenvalues --  -11.21454 -11.21406 -11.21393 -11.21149 -11.21113
 Alpha  occ. eigenvalues --  -11.21100 -11.21056  -1.08514  -1.08448  -1.03624
 Alpha  occ. eigenvalues --   -1.03523  -0.96053  -0.95991  -0.87068  -0.87010
 Alpha  occ. eigenvalues --   -0.79715  -0.79566  -0.78345  -0.78240  -0.65390
 Alpha  occ. eigenvalues --   -0.64879  -0.61277  -0.60680  -0.59395  -0.59375
 Alpha  occ. eigenvalues --   -0.57664  -0.57605  -0.55390  -0.55214  -0.52744
 Alpha  occ. eigenvalues --   -0.52696  -0.52486  -0.52394  -0.50039  -0.49913
 Alpha  occ. eigenvalues --   -0.48041  -0.47890  -0.46971  -0.46453  -0.46004
 Alpha  occ. eigenvalues --   -0.45853  -0.45732  -0.45431  -0.43835  -0.43817
 Alpha virt. eigenvalues --    0.18838   0.22657   0.23773   0.24686   0.25359
 Alpha virt. eigenvalues --    0.26071   0.26741   0.28003   0.29189   0.29489
 Alpha virt. eigenvalues --    0.30682   0.31071   0.31451   0.31857   0.32356

 Mulliken charges:
               1
     1  C   -0.300850
     2  C   -0.303958
     3  C   -0.479640
     4  H    0.150158
     5  H    0.151552
     6  H    0.152414
     7  H    0.155174
     8  H    0.159960
     9  H    0.155183
    10  H    0.160094
    11  C   -0.298532
    12  C   -0.299649
    13  C   -0.475661
    14  H    0.149907
    15  H    0.148827
    16  H    0.152302
    17  H    0.151601
    18  H    0.154880
    19  H    0.155370
    20  H    0.160508
    21  C   -0.298196
    22  C   -0.307606
    23  C   -0.478423
    24  H    0.149035
    25  H    0.149918
    26  H    0.159892
    27  H    0.152493
    28  H    0.155675
    29  H    0.155800
    30  H    0.161736
    31  C   -0.298598
    32  C   -0.299604
    33  C   -0.475792
    34  H    0.149023
    35  H    0.150084
    36  H    0.151656
    37  H    0.152169
    38  H    0.155303
    39  H    0.155349
    40  H    0.160447
 Sum of Mulliken charges =  -0.00000

 Dipole moment (field-independent basis, Debye):
    X=             -0.0048    Y=             -0.0159    Z=              0.0024  Tot=              0.0168
 Quadrupole moment (field-independent basis, Debye-Ang):
   XX=            -83.4322   YY=            -85.9949   ZZ=            -85.1455
   XY=              1.1361   XZ=             -0.9523   YZ=              0.3080

 Normal termination of Gaussian 16 at Wed May  5 15:11:55 2021.
