 Gaussian 16, Revision A.03,
 Gaussian 16:  EM64L-G16RevA.03 25-Dec-2016

 -------------
 #p 6-31g* mp2
 -------------

 ------------------------------------------------------
 Input file generated by CHIRIPA (05-May-2021 14:53:15)
 ------------------------------------------------------
 Symbolic Z-matrix:
 Charge =  0 Multiplicity = 1

                         Standard orientation:
 ---------------------------------------------------------------------
 Center     Atomic      Atomic             Coordinates (Angstroms)
 Number     Number       Type             X           Y           Z
 ---------------------------------------------------------------------
      1          6           0       -4.594087   -0.178547   -0.471463
      2          6           0       -5.989850   -0.376049    0.120842
      3          6           0       -6.745549   -1.539522   -0.521844
      4          1           0       -4.682550   -0.007365   -1.553043
      5          1           0       -4.016456   -1.105078   -0.347859
      6          1           0       -6.564214    0.551034   -0.002604
      7          1           0       -5.898067   -0.546590    1.201169
      8          1           0       -6.196623   -2.477059   -0.386543
      9          1           0       -6.866556   -1.373198   -1.597156
     10          1           0       -7.740797   -1.662808   -0.083505
     11          6           0       -3.826183    0.980894    0.160794
     12          6           0       -2.430420    1.178397   -0.431511
     13          6           0       -1.674722    2.341869    0.211175
     14          1           0       -4.403814    1.907425    0.037190
     15          1           0       -3.737720    0.809713    1.242374
     16          1           0       -2.522203    1.348937   -1.511838
     17          1           0       -1.856056    0.251314   -0.308065
     18          1           0       -1.553715    2.175546    1.286487
     19          1           0       -2.223647    3.279406    0.075874
     20          1           0       -0.679473    2.465155   -0.227164
     21          6           0        1.024470   -0.980615    1.011249
     22          6           0        1.917465   -1.960238    0.564688
     23          6           0        3.174923   -1.602096    0.069632
     24          6           0        3.508110   -0.248914    0.035324
     25          6           0        2.640318    0.750449    0.472930
     26          6           0        1.388105    0.369223    0.964028
     27          1           0        0.049683   -1.267794    1.394284
     28          1           0        1.637753   -3.009308    0.600182
     29          1           0        3.885592   -2.339893   -0.282535
     30          1           0        2.947520    1.788119    0.425133
     31          1           0        0.696621    1.132170    1.310158
     32          7           0        4.836549    0.142453   -0.486675
     33          8           0        5.106135    1.341440   -0.506420
     34          8           0        5.583039   -0.757191   -0.866190
 ---------------------------------------------------------------------

 SCF Done:  E(RHF) =  -669.534910344     A.U. after   15 cycles
 E2 =    -0.2092255034D+01 EUMP2 =    -0.67162716537743D+03

 The electronic state is 1-A.
 Alpha  occ. eigenvalues --  -20.60742 -20.60737 -15.85793 -11.31162 -11.27721
 Alpha  occ. eigenvalues --  -11.27699 -11.27457 -11.26750 -11.26643 -11.22547
 Alpha  occ. eigenvalues --  -11.22213 -11.22199 -11.22184 -11.22079 -11.21587
 Alpha  occ. eigenvalues --   -1.59817  -1.39370  -1.19325  -1.09221  -1.08721
 Alpha  occ. eigenvalues --   -1.04733  -1.04322  -0.96797  -0.95558  -0.87826
 Alpha  occ. eigenvalues --   -0.86114  -0.82390  -0.80392  -0.78998  -0.77437
 Alpha  occ. eigenvalues --   -0.72012  -0.71139  -0.70444  -0.65902  -0.64973
 Alpha  occ. eigenvalues --   -0.64755  -0.62221  -0.61605  -0.60131  -0.58371
 Alpha  occ. eigenvalues --   -0.56108  -0.55232  -0.53565  -0.53226  -0.53020
 Alpha  occ. eigenvalues --   -0.52700  -0.50699  -0.48769  -0.48766  -0.48696
 Alpha  occ. eigenvalues --   -0.47421  -0.46543  -0.46464  -0.44776  -0.44569
 Alpha  occ. eigenvalues --   -0.37297  -0.36309
 Alpha virt. eigenvalues --    0.05062   0.11246   0.16472   0.19743   0.22638
 Alpha virt. eigenvalues --    0.24014   0.25475   0.25917   0.26825   0.28088
 Alpha virt. eigenvalues --    0.28997   0.30352   0.30729   0.31073   0.32055

 Mulliken charges:
               1
     1  C   -0.298052
     2  C   -0.300116
     3  C   -0.475976
     4  H    0.152370
     5  H    0.146621
     6  H    0.153722
     7  H    0.151467
     8  H    0.154601
     9  H    0.156620
    10  H    0.162026
    11  C   -0.299056
    12  C   -0.301197
    13  C   -0.483258
    14  H    0.152893
    15  H    0.147277
    16  H    0.158126
    17  H    0.147996
    18  H    0.148021
    19  H    0.163000
    20  H    0.162380
    21  C   -0.173995
    22  C   -0.218521
    23  C   -0.171388
    24  C    0.159181
    25  C   -0.174277
    26  C   -0.220432
    27  H    0.224994
    28  H    0.223164
    29  H    0.275442
    30  H    0.275659
    31  H    0.233638
    32  N    0.488007
    33  O   -0.460406
    34  O   -0.460529
 Sum of Mulliken charges =  -0.00000

 Dipole moment (field-independent basis, Debye):
    X=             -4.8698    Y=             -1.3225    Z=              1.7548  Tot=              5.3426
 Quadrupole moment (field-independent basis, Debye-Ang):
   XX=           -127.6711   YY=            -89.5452   ZZ=            -94.9732
   XY=             -5.8481   XZ=              6.3925   YZ=             -0.4646

 Normal termination of Gaussian 16 at Wed May  5 23:30:03 2021.
