 Gaussian 16, Revision A.03,
 Gaussian 16:  EM64L-G16RevA.03 25-Dec-2016

 -------------
 #p 6-31g* mp2
 -------------

 ------------------------------------------------------
 Input file generated by CHIRIPA (05-May-2021 14:51:08)
 ------------------------------------------------------
 Symbolic Z-matrix:
 Charge =  0 Multiplicity = 1

                         Standard orientation:
 ---------------------------------------------------------------------
 Center     Atomic      Atomic             Coordinates (Angstroms)
 Number     Number       Type             X           Y           Z
 ---------------------------------------------------------------------
      1          6           0       -3.456560   -0.115419    0.135479
      2          6           0       -4.864059   -0.287709   -0.436576
      3          6           0       -5.724260    0.966353   -0.277901
      4          1           0       -3.529832    0.148488    1.199400
      5          1           0       -2.966604    0.731999   -0.363742
      6          1           0       -5.350712   -1.135417    0.062600
      7          1           0       -4.787424   -0.551425   -1.499213
      8          1           0       -5.263891    1.816769   -0.791179
      9          1           0       -5.830379    1.229459    0.779509
     10          1           0       -6.726248    0.821130   -0.693582
     11          6           0       -2.584586   -1.360631   -0.015642
     12          6           0       -1.177087   -1.188341    0.556413
     13          6           0       -0.316886   -2.442403    0.397738
     14          1           0       -3.074542   -2.208049    0.483579
     15          1           0       -2.511315   -1.624539   -1.079563
     16          1           0       -1.253722   -0.924625    1.619050
     17          1           0       -0.690434   -0.340634    0.057237
     18          1           0       -0.210767   -2.705509   -0.659672
     19          1           0       -0.777255   -3.292819    0.911016
     20          1           0        0.685102   -2.297180    0.813419
     21          6           0        2.298682    0.941086   -0.205080
     22          6           0        1.916561    2.293762    0.396778
     23          6           0        0.469361    2.686202    0.097784
     24          1           0        2.143176    0.973523   -1.292146
     25          1           0        1.620514    0.169412    0.184794
     26          1           0        2.596123    3.062427    0.006950
     27          1           0        2.073176    2.258162    1.482512
     28          1           0       -0.223242    1.940624    0.501538
     29          1           0        0.302676    2.749459   -0.982408
     30          1           0        0.217483    3.656372    0.537315
     31          6           0        3.742464    0.534964    0.085243
     32          6           0        4.124586   -0.817712   -0.516615
     33          6           0        5.571785   -1.210152   -0.217621
     34          1           0        4.420632    1.306639   -0.304630
     35          1           0        3.897970    0.502528    1.172309
     36          1           0        3.967970   -0.782112   -1.602349
     37          1           0        3.445023   -1.586377   -0.126787
     38          1           0        5.738470   -1.273408    0.862571
     39          1           0        6.264388   -0.464574   -0.621376
     40          1           0        5.823663   -2.180321   -0.657152
 ---------------------------------------------------------------------

 SCF Done:  E(RHF) =  -470.732306275     A.U. after   11 cycles
 E2 =    -0.1584528727D+01 EUMP2 =    -0.47231683500204D+03

 The electronic state is 1-A.
 Alpha  occ. eigenvalues --  -11.21597 -11.21589 -11.21589 -11.21581 -11.21407
 Alpha  occ. eigenvalues --  -11.21375 -11.21347 -11.21305 -11.21123 -11.21060
 Alpha  occ. eigenvalues --  -11.21058 -11.21029  -1.08470  -1.08388  -1.03574
 Alpha  occ. eigenvalues --   -1.03493  -0.96010  -0.95952  -0.87017  -0.86977
 Alpha  occ. eigenvalues --   -0.79723  -0.79502  -0.78387  -0.78103  -0.65209
 Alpha  occ. eigenvalues --   -0.64944  -0.61060  -0.60817  -0.59419  -0.59282
 Alpha  occ. eigenvalues --   -0.57678  -0.57529  -0.55316  -0.55225  -0.52725
 Alpha  occ. eigenvalues --   -0.52638  -0.52468  -0.52346  -0.49947  -0.49910
 Alpha  occ. eigenvalues --   -0.48170  -0.47775  -0.46889  -0.46492  -0.46026
 Alpha  occ. eigenvalues --   -0.45764  -0.45728  -0.45079  -0.43796  -0.43759
 Alpha virt. eigenvalues --    0.21005   0.22680   0.23599   0.24085   0.25887
 Alpha virt. eigenvalues --    0.26119   0.26737   0.27157   0.29119   0.29316
 Alpha virt. eigenvalues --    0.30604   0.31230   0.31806   0.31856   0.32389

 Mulliken charges:
               1
     1  C   -0.300245
     2  C   -0.299612
     3  C   -0.475753
     4  H    0.149354
     5  H    0.151705
     6  H    0.151917
     7  H    0.151955
     8  H    0.155523
     9  H    0.155158
    10  H    0.160179
    11  C   -0.297215
    12  C   -0.309894
    13  C   -0.478243
    14  H    0.149349
    15  H    0.149681
    16  H    0.150771
    17  H    0.162516
    18  H    0.156211
    19  H    0.155694
    20  H    0.161091
    21  C   -0.308013
    22  C   -0.298937
    23  C   -0.482434
    24  H    0.148558
    25  H    0.160757
    26  H    0.151761
    27  H    0.151669
    28  H    0.162318
    29  H    0.153848
    30  H    0.160372
    31  C   -0.297533
    32  C   -0.301642
    33  C   -0.475655
    34  H    0.149470
    35  H    0.149259
    36  H    0.151899
    37  H    0.153573
    38  H    0.155077
    39  H    0.155193
    40  H    0.160317
 Sum of Mulliken charges =  -0.00000

 Dipole moment (field-independent basis, Debye):
    X=             -0.0245    Y=             -0.0127    Z=             -0.0052  Tot=              0.0281
 Quadrupole moment (field-independent basis, Debye-Ang):
   XX=            -86.2920   YY=            -85.4122   ZZ=            -83.2296
   XY=              1.2440   XZ=             -0.6378   YZ=             -0.6563

 Normal termination of Gaussian 16 at Thu May  6 03:41:37 2021.
