 Gaussian 16, Revision A.03,
 Gaussian 16:  EM64L-G16RevA.03 25-Dec-2016

 -------------
 #p 6-31g* mp2
 -------------

 ------------------------------------------------------
 Input file generated by CHIRIPA (05-May-2021 14:53:13)
 ------------------------------------------------------
 Symbolic Z-matrix:
 Charge =  0 Multiplicity = 1

                         Standard orientation:
 ---------------------------------------------------------------------
 Center     Atomic      Atomic             Coordinates (Angstroms)
 Number     Number       Type             X           Y           Z
 ---------------------------------------------------------------------
      1          6           0       -3.769084    0.324798   -0.023705
      2          6           0       -2.497713   -0.324297   -0.571678
      3          6           0       -1.245821    0.513203   -0.308706
      4          1           0       -3.889653    1.318904   -0.475548
      5          1           0       -3.654160    0.484662    1.057327
      6          1           0       -2.615542   -0.484154   -1.651112
      7          1           0       -2.380259   -1.317052   -0.118623
      8          1           0       -1.100577    0.661887    0.766189
      9          1           0       -1.337198    1.499517   -0.775008
     10          1           0       -0.348627    0.030625   -0.708731
     11          6           0       -5.029021   -0.500547   -0.278836
     12          6           0       -6.300393    0.148549    0.269137
     13          6           0       -7.552284   -0.688952    0.006164
     14          1           0       -5.143945   -0.660411   -1.359868
     15          1           0       -4.908452   -1.494653    0.173007
     16          1           0       -6.417847    1.141303   -0.183918
     17          1           0       -6.182563    0.308406    1.348571
     18          1           0       -7.460908   -1.675265    0.472466
     19          1           0       -7.697528   -0.837635   -1.068730
     20          1           0       -8.449479   -0.206373    0.406189
     21          6           0        2.359972    2.340524    0.330429
     22          6           0        3.346900    2.121201   -0.636209
     23          6           0        3.950352    0.866463   -0.762809
     24          6           0        3.540860   -0.150985    0.097661
     25          6           0        2.560342    0.036352    1.070686
     26          6           0        1.970529    1.299235    1.179295
     27          1           0        1.896493    3.318398    0.421787
     28          1           0        3.651334    2.928028   -1.296811
     29          1           0        4.716855    0.669158   -1.502377
     30          1           0        2.277801   -0.787438    1.714859
     31          1           0        1.204324    1.466680    1.930919
     32          7           0        4.172487   -1.483630   -0.026841
     33          8           0        3.794051   -2.363535    0.743346
     34          8           0        5.034035   -1.623019   -0.892257
 ---------------------------------------------------------------------

 SCF Done:  E(RHF) =  -669.535112747     A.U. after   15 cycles
 E2 =    -0.2091760004D+01 EUMP2 =    -0.67162687275079D+03

 The electronic state is 1-A.
 Alpha  occ. eigenvalues --  -20.60756 -20.60751 -15.85809 -11.31172 -11.27718
 Alpha  occ. eigenvalues --  -11.27712 -11.27453 -11.26747 -11.26730 -11.21907
 Alpha  occ. eigenvalues --  -11.21833 -11.21718 -11.21611 -11.21516 -11.21251
 Alpha  occ. eigenvalues --   -1.59832  -1.39385  -1.19337  -1.08741  -1.08710
 Alpha  occ. eigenvalues --   -1.04741  -1.03822  -0.96285  -0.95566  -0.87312
 Alpha  occ. eigenvalues --   -0.86129  -0.82400  -0.79891  -0.78531  -0.77448
 Alpha  occ. eigenvalues --   -0.72026  -0.71155  -0.70434  -0.65357  -0.64986
 Alpha  occ. eigenvalues --   -0.64746  -0.62100  -0.61219  -0.59648  -0.57887
 Alpha  occ. eigenvalues --   -0.55606  -0.55223  -0.53407  -0.52893  -0.52667
 Alpha  occ. eigenvalues --   -0.52602  -0.50234  -0.48786  -0.48782  -0.48206
 Alpha  occ. eigenvalues --   -0.46924  -0.46075  -0.45996  -0.44792  -0.44070
 Alpha  occ. eigenvalues --   -0.37297  -0.36280
 Alpha virt. eigenvalues --    0.05080   0.11271   0.16562   0.20872   0.22642
 Alpha virt. eigenvalues --    0.24010   0.25826   0.26604   0.27342   0.28237
 Alpha virt. eigenvalues --    0.28505   0.29959   0.31360   0.31695   0.32030

 Mulliken charges:
               1
     1  C   -0.298178
     2  C   -0.300955
     3  C   -0.474253
     4  H    0.148530
     5  H    0.147389
     6  H    0.153923
     7  H    0.154138
     8  H    0.144683
     9  H    0.151761
    10  H    0.167359
    11  C   -0.298510
    12  C   -0.299694
    13  C   -0.475873
    14  H    0.150523
    15  H    0.150904
    16  H    0.151472
    17  H    0.151424
    18  H    0.155943
    19  H    0.155731
    20  H    0.160538
    21  C   -0.171403
    22  C   -0.218428
    23  C   -0.171576
    24  C    0.158079
    25  C   -0.172715
    26  C   -0.211218
    27  H    0.225647
    28  H    0.223274
    29  H    0.275377
    30  H    0.275340
    31  H    0.223671
    32  N    0.488082
    33  O   -0.460529
    34  O   -0.460456
 Sum of Mulliken charges =  -0.00000

 Dipole moment (field-independent basis, Debye):
    X=             -2.2544    Y=              4.6825    Z=              0.4055  Tot=              5.2128
 Quadrupole moment (field-independent basis, Debye-Ang):
   XX=           -110.4264   YY=            -96.1972   ZZ=            -91.4516
   XY=             17.8477   XZ=             -1.0192   YZ=             -1.5659

 Normal termination of Gaussian 16 at Thu May  6 15:22:40 2021.
