 Gaussian 16, Revision A.03,
 Gaussian 16:  EM64L-G16RevA.03 25-Dec-2016

 -------------
 #p 6-31g* mp2
 -------------

 ------------------------------------------------------
 Input file generated by CHIRIPA (05-May-2021 14:57:21)
 ------------------------------------------------------
 Symbolic Z-matrix:
 Charge =  0 Multiplicity = 1

                         Standard orientation:
 ---------------------------------------------------------------------
 Center     Atomic      Atomic             Coordinates (Angstroms)
 Number     Number       Type             X           Y           Z
 ---------------------------------------------------------------------
      1          6           0       -3.889345    1.920088    1.108419
      2          6           0       -4.298453    0.685141    1.622285
      3          6           0       -3.928107   -0.505122    0.989303
      4          6           0       -3.144617   -0.423153   -0.160790
      5          6           0       -2.721245    0.791905   -0.697150
      6          6           0       -3.103432    1.969441   -0.047620
      7          1           0       -4.181639    2.839769    1.606562
      8          1           0       -4.908847    0.643779    2.519923
      9          1           0       -4.230911   -1.474721    1.365607
     10          1           0       -2.113228    0.801173   -1.593614
     11          1           0       -2.784256    2.927097   -0.448950
     12          7           0       -2.746280   -1.676494   -0.839659
     13          8           0       -2.055641   -1.577294   -1.851496
     14          8           0       -3.132245   -2.734331   -0.347065
     15          6           0        1.555723    1.945307   -0.751054
     16          6           0        2.928114    2.208332   -0.813345
     17          6           0        3.853923    1.257834   -0.372916
     18          6           0        3.370222    0.049461    0.126241
     19          6           0        2.009110   -0.242164    0.201178
     20          6           0        1.101401    0.723053   -0.244884
     21          1           0        0.843563    2.689394   -1.095377
     22          1           0        3.283818    3.156683   -1.205967
     23          1           0        4.921883    1.435372   -0.409780
     24          1           0        1.684786   -1.196677    0.597583
     25          1           0        0.036160    0.516049   -0.195318
     26          7           0        4.340754   -0.964580    0.595486
     27          8           0        3.889066   -2.021433    1.031005
     28          8           0        5.534767   -0.683332    0.518874
 ---------------------------------------------------------------------

 SCF Done:  E(RHF) =  -868.336622898     A.U. after   16 cycles
 E2 =    -0.2601489437D+01 EUMP2 =    -0.87093811233430D+03

 The electronic state is 1-A.
 Alpha  occ. eigenvalues --  -20.61635 -20.61617 -20.60558 -20.60543 -15.86680
 Alpha  occ. eigenvalues --  -15.85606 -11.32211 -11.31019 -11.28817 -11.28686
 Alpha  occ. eigenvalues --  -11.28451 -11.27854 -11.27709 -11.27609 -11.27536
 Alpha  occ. eigenvalues --  -11.27445 -11.26688 -11.26564  -1.60704  -1.59627
 Alpha  occ. eigenvalues --   -1.40251  -1.39178  -1.20377  -1.19202  -1.09717
 Alpha  occ. eigenvalues --   -1.08617  -1.05798  -1.04600  -0.96533  -0.95439
 Alpha  occ. eigenvalues --   -0.87178  -0.86019  -0.83355  -0.82259  -0.78407
 Alpha  occ. eigenvalues --   -0.77279  -0.72877  -0.72052  -0.71829  -0.71436
 Alpha  occ. eigenvalues --   -0.70948  -0.70379  -0.66002  -0.65783  -0.64866
 Alpha  occ. eigenvalues --   -0.64653  -0.63120  -0.61938  -0.56221  -0.55215
 Alpha  occ. eigenvalues --   -0.54147  -0.53861  -0.52937  -0.52634  -0.49657
 Alpha  occ. eigenvalues --   -0.49635  -0.48592  -0.48575  -0.45609  -0.44572
 Alpha  occ. eigenvalues --   -0.38319  -0.37391  -0.37226  -0.36181
 Alpha virt. eigenvalues --    0.04100   0.05245   0.10113   0.11430   0.15587
 Alpha virt. eigenvalues --    0.16714   0.19732   0.21895   0.25584   0.27140
 Alpha virt. eigenvalues --    0.27689   0.29262   0.29817   0.31409   0.31777

 Mulliken charges:
               1
     1  C   -0.170085
     2  C   -0.216771
     3  C   -0.169964
     4  C    0.160791
     5  C   -0.188716
     6  C   -0.217321
     7  H    0.229296
     8  H    0.228150
     9  H    0.279717
    10  H    0.275616
    11  H    0.222575
    12  N    0.487216
    13  O   -0.460364
    14  O   -0.454571
    15  C   -0.174293
    16  C   -0.217910
    17  C   -0.171568
    18  C    0.159010
    19  C   -0.171156
    20  C   -0.218896
    21  H    0.215854
    22  H    0.221664
    23  H    0.275173
    24  H    0.279625
    25  H    0.228761
    26  N    0.487914
    27  O   -0.458232
    28  O   -0.461513
 Sum of Mulliken charges =  -0.00000

 Dipole moment (field-independent basis, Debye):
    X=             -5.1338    Y=              7.7927    Z=              0.8961  Tot=              9.3747
 Quadrupole moment (field-independent basis, Debye-Ang):
   XX=           -114.5736   YY=           -105.7162   ZZ=           -104.3906
   XY=              2.5163   XZ=            -16.9182   YZ=             -4.1158

 Normal termination of Gaussian 16 at Thu May  6 00:08:51 2021.
