 Gaussian 16, Revision A.03,
 Gaussian 16:  EM64L-G16RevA.03 25-Dec-2016

 -------------
 #p 6-31g* mp2
 -------------

 ------------------------------------------------------
 Input file generated by CHIRIPA (05-May-2021 14:53:14)
 ------------------------------------------------------
 Symbolic Z-matrix:
 Charge =  0 Multiplicity = 1

                         Standard orientation:
 ---------------------------------------------------------------------
 Center     Atomic      Atomic             Coordinates (Angstroms)
 Number     Number       Type             X           Y           Z
 ---------------------------------------------------------------------
      1          6           0        3.557154    0.708643    0.021818
      2          6           0        4.439485    1.843597   -0.499099
      3          6           0        3.767512    3.212638   -0.389682
      4          1           0        2.612176    0.700686   -0.538449
      5          1           0        3.297004    0.907660    1.070679
      6          1           0        4.699031    1.641801   -1.546253
      7          1           0        5.382550    1.848732    0.062344
      8          1           0        3.523411    3.439723    0.653126
      9          1           0        2.836009    3.231617   -0.964610
     10          1           0        4.415748    4.009389   -0.767622
     11          6           0        4.215145   -0.666211   -0.080911
     12          6           0        3.332814   -1.801165    0.440007
     13          6           0        4.004787   -3.170206    0.330589
     14          1           0        4.475294   -0.865228   -1.129772
     15          1           0        5.160122   -0.658254    0.479357
     16          1           0        2.389749   -1.806300   -0.121436
     17          1           0        3.073267   -1.599369    1.487160
     18          1           0        4.936290   -3.189185    0.905518
     19          1           0        4.248888   -3.397292   -0.712219
     20          1           0        3.356551   -3.966957    0.708529
     21          6           0       -0.523723   -0.174413    0.193976
     22          6           0       -1.231889   -1.097473   -0.582543
     23          6           0       -2.624045   -1.019598   -0.684457
     24          6           0       -3.278938   -0.001316    0.006562
     25          6           0       -2.601529    0.933264    0.788207
     26          6           0       -1.209594    0.836229    0.875670
     27          1           0        0.557651   -0.242350    0.267533
     28          1           0       -0.701865   -1.883400   -1.113050
     29          1           0       -3.197126   -1.721042   -1.278572
     30          1           0       -3.157617    1.705649    1.305513
     31          1           0       -0.662228    1.554468    1.479464
     32          7           0       -4.752633    0.091269   -0.093682
     33          8           0       -5.306179    0.997721    0.524840
     34          8           0       -5.326265   -0.744367   -0.788876
 ---------------------------------------------------------------------

 SCF Done:  E(RHF) =  -669.535172322     A.U. after   15 cycles
 E2 =    -0.2092228367D+01 EUMP2 =    -0.67162740068876D+03

 The electronic state is 1-A.
 Alpha  occ. eigenvalues --  -20.60689 -20.60684 -15.85743 -11.31084 -11.27660
 Alpha  occ. eigenvalues --  -11.27652 -11.27283 -11.26654 -11.26635 -11.22907
 Alpha  occ. eigenvalues --  -11.22661 -11.22543 -11.22496 -11.22063 -11.21910
 Alpha  occ. eigenvalues --   -1.59766  -1.39320  -1.19251  -1.09592  -1.08639
 Alpha  occ. eigenvalues --   -1.04656  -1.04584  -0.97011  -0.95484  -0.88025
 Alpha  occ. eigenvalues --   -0.86049  -0.82332  -0.80676  -0.79466  -0.77378
 Alpha  occ. eigenvalues --   -0.71960  -0.71089  -0.70359  -0.66205  -0.64898
 Alpha  occ. eigenvalues --   -0.64658  -0.62027  -0.61955  -0.60387  -0.58647
 Alpha  occ. eigenvalues --   -0.56295  -0.55179  -0.53657  -0.53433  -0.52980
 Alpha  occ. eigenvalues --   -0.52743  -0.50950  -0.48979  -0.48720  -0.48717
 Alpha  occ. eigenvalues --   -0.47711  -0.46890  -0.46857  -0.44861  -0.44731
 Alpha  occ. eigenvalues --   -0.37210  -0.36269
 Alpha virt. eigenvalues --    0.05142   0.11385   0.16574   0.19592   0.22442
 Alpha virt. eigenvalues --    0.23160   0.25133   0.25392   0.26708   0.27299
 Alpha virt. eigenvalues --    0.29582   0.30633   0.30802   0.31078   0.31468

 Mulliken charges:
               1
     1  C   -0.305432
     2  C   -0.299447
     3  C   -0.477201
     4  H    0.145412
     5  H    0.148057
     6  H    0.155131
     7  H    0.155406
     8  H    0.154320
     9  H    0.155903
    10  H    0.164621
    11  C   -0.297928
    12  C   -0.304257
    13  C   -0.476017
    14  H    0.152942
    15  H    0.154746
    16  H    0.142487
    17  H    0.153801
    18  H    0.159443
    19  H    0.157569
    20  H    0.162845
    21  C   -0.180004
    22  C   -0.222791
    23  C   -0.170672
    24  C    0.157945
    25  C   -0.170621
    26  C   -0.222099
    27  H    0.243055
    28  H    0.222433
    29  H    0.275088
    30  H    0.275123
    31  H    0.223671
    32  N    0.488022
    33  O   -0.460732
    34  O   -0.460819
 Sum of Mulliken charges =  -0.00000

 Dipole moment (field-independent basis, Debye):
    X=              5.5511    Y=             -0.3255    Z=              0.3508  Tot=              5.5717
 Quadrupole moment (field-independent basis, Debye-Ang):
   XX=           -128.1476   YY=            -92.4611   ZZ=            -92.5893
   XY=              1.4434   XZ=             -0.7741   YZ=              2.7892

 Normal termination of Gaussian 16 at Thu May  6 13:47:35 2021.
