 Gaussian 16, Revision A.03,
 Gaussian 16:  EM64L-G16RevA.03 25-Dec-2016

 -------------
 #p 6-31g* mp2
 -------------

 ------------------------------------------------------
 Input file generated by CHIRIPA (05-May-2021 14:55:25)
 ------------------------------------------------------
 Symbolic Z-matrix:
 Charge =  0 Multiplicity = 1

                         Standard orientation:
 ---------------------------------------------------------------------
 Center     Atomic      Atomic             Coordinates (Angstroms)
 Number     Number       Type             X           Y           Z
 ---------------------------------------------------------------------
      1          6           0       -1.673904    2.425814    0.988170
      2          6           0       -3.050800    2.198983    0.892122
      3          6           0       -3.539004    1.052738    0.257831
      4          6           0       -2.617864    0.150258   -0.271622
      5          6           0       -1.240265    0.348138   -0.191895
      6          6           0       -0.774616    1.501297    0.446809
      7          1           0       -1.303416    3.318930    1.482617
      8          1           0       -3.751525    2.915251    1.311633
      9          1           0       -4.599867    0.852324    0.169385
     10          1           0       -0.566266   -0.384039   -0.619750
     11          1           0        0.295233    1.674856    0.519924
     12          7           0       -3.122765   -1.066880   -0.945454
     13          8           0       -2.290538   -1.846629   -1.403742
     14          8           0       -4.341172   -1.218077   -1.002556
     15          6           0        3.940510   -0.314552   -0.078540
     16          6           0        4.056251    1.036273   -0.785549
     17          6           0        5.454836    1.290953   -1.348480
     18          1           0        4.678351   -0.360294    0.734137
     19          1           0        4.203619   -1.114012   -0.784962
     20          1           0        3.791663    1.832856   -0.078397
     21          1           0        3.317918    1.078879   -1.596515
     22          1           0        5.724730    0.517115   -2.074381
     23          1           0        6.201166    1.275377   -0.547637
     24          1           0        5.515182    2.262075   -1.849622
     25          6           0        2.548194   -0.583643    0.489591
     26          6           0        2.432453   -1.934468    1.196599
     27          6           0        1.033868   -2.189149    1.759531
     28          1           0        2.285084    0.215817    1.196012
     29          1           0        1.810353   -0.537901   -0.323086
     30          1           0        3.170785   -1.977074    2.007565
     31          1           0        2.697040   -2.731051    0.489447
     32          1           0        0.287538   -2.173571    0.958687
     33          1           0        0.763974   -1.415310    2.485432
     34          1           0        0.973521   -3.160269    2.260671
 ---------------------------------------------------------------------

 SCF Done:  E(RHF) =  -669.534832827     A.U. after   15 cycles
 E2 =    -0.2093529876D+01 EUMP2 =    -0.67162836270337D+03

 The electronic state is 1-A.
 Alpha  occ. eigenvalues --  -20.60752 -20.60747 -15.85793 -11.31097 -11.27672
 Alpha  occ. eigenvalues --  -11.27625 -11.27397 -11.26683 -11.26598 -11.22277
 Alpha  occ. eigenvalues --  -11.22269 -11.22039 -11.22001 -11.21569 -11.21295
 Alpha  occ. eigenvalues --   -1.59819  -1.39376  -1.19268  -1.09089  -1.08674
 Alpha  occ. eigenvalues --   -1.04667  -1.04042  -0.96493  -0.95522  -0.87508
 Alpha  occ. eigenvalues --   -0.86066  -0.82367  -0.80126  -0.79018  -0.77359
 Alpha  occ. eigenvalues --   -0.72015  -0.71136  -0.70404  -0.65754  -0.64918
 Alpha  occ. eigenvalues --   -0.64646  -0.62085  -0.61385  -0.59851  -0.58126
 Alpha  occ. eigenvalues --   -0.55777  -0.55180  -0.53135  -0.53090  -0.52933
 Alpha  occ. eigenvalues --   -0.52663  -0.50438  -0.48774  -0.48768  -0.48412
 Alpha  occ. eigenvalues --   -0.47135  -0.46426  -0.46378  -0.44785  -0.44346
 Alpha  occ. eigenvalues --   -0.37252  -0.36232
 Alpha virt. eigenvalues --    0.05090   0.11316   0.16564   0.19957   0.22840
 Alpha virt. eigenvalues --    0.23408   0.24742   0.25237   0.27345   0.28521
 Alpha virt. eigenvalues --    0.29636   0.30896   0.31205   0.31553   0.31919

 Mulliken charges:
               1
     1  C   -0.171549
     2  C   -0.218581
     3  C   -0.170905
     4  C    0.159673
     5  C   -0.176218
     6  C   -0.223245
     7  H    0.225170
     8  H    0.222956
     9  H    0.275144
    10  H    0.280450
    11  H    0.229610
    12  N    0.488881
    13  O   -0.462512
    14  O   -0.460050
    15  C   -0.297273
    16  C   -0.301437
    17  C   -0.475886
    18  H    0.152292
    19  H    0.154512
    20  H    0.147004
    21  H    0.152070
    22  H    0.158195
    23  H    0.156417
    24  H    0.161372
    25  C   -0.306128
    26  C   -0.299806
    27  C   -0.481930
    28  H    0.144916
    29  H    0.145480
    30  H    0.153368
    31  H    0.157320
    32  H    0.162475
    33  H    0.153129
    34  H    0.165083
 Sum of Mulliken charges =  -0.00000

 Dipole moment (field-independent basis, Debye):
    X=              1.9466    Y=              4.1524    Z=              2.3766  Tot=              5.1653
 Quadrupole moment (field-independent basis, Debye-Ang):
   XX=            -99.8557   YY=            -93.2995   ZZ=            -96.0791
   XY=            -13.0468   XZ=             -7.2227   YZ=             -0.0394

 Normal termination of Gaussian 16 at Wed May  5 19:13:32 2021.
