 Gaussian 16, Revision A.03,
 Gaussian 16:  EM64L-G16RevA.03 25-Dec-2016

 -------------
 #p 6-31g* mp2
 -------------

 ------------------------------------------------------
 Input file generated by CHIRIPA (05-May-2021 14:53:18)
 ------------------------------------------------------
 Symbolic Z-matrix:
 Charge =  0 Multiplicity = 1

                         Standard orientation:
 ---------------------------------------------------------------------
 Center     Atomic      Atomic             Coordinates (Angstroms)
 Number     Number       Type             X           Y           Z
 ---------------------------------------------------------------------
      1          6           0        3.656095    0.619749   -0.170363
      2          6           0        3.024181    2.011851   -0.143547
      3          6           0        4.059143    3.132876   -0.243298
      4          1           0        4.373104    0.533496    0.657529
      5          1           0        4.234162    0.504904   -1.097749
      6          1           0        2.446344    2.123533    0.782869
      7          1           0        2.308452    2.094733   -0.971484
      8          1           0        4.628735    3.049579   -1.174549
      9          1           0        4.767410    3.078542    0.589773
     10          1           0        3.585691    4.119416   -0.222280
     11          6           0        2.634164   -0.511447   -0.071469
     12          6           0        3.266079   -1.903550   -0.098284
     13          6           0        2.231117   -3.024575    0.001466
     14          1           0        2.056098   -0.396602    0.855917
     15          1           0        1.917156   -0.425195   -0.899361
     16          1           0        3.981807   -1.986432    0.729652
     17          1           0        3.843916   -2.015232   -1.024701
     18          1           0        1.522850   -2.970241   -0.831605
     19          1           0        1.661525   -2.941277    0.932717
     20          1           0        2.704569   -4.011115   -0.019552
     21          6           0       -1.316906   -2.289493    0.220769
     22          6           0       -0.866473   -1.230327    1.015627
     23          6           0       -1.490657    0.019124    0.953868
     24          6           0       -2.567366    0.174945    0.082255
     25          6           0       -3.039406   -0.860928   -0.722379
     26          6           0       -2.400025   -2.101744   -0.644172
     27          1           0       -0.826121   -3.256742    0.275133
     28          1           0       -0.025532   -1.373246    1.688263
     29          1           0       -1.162474    0.856212    1.558018
     30          1           0       -3.880065   -0.688015   -1.383295
     31          1           0       -2.751988   -2.922511   -1.262644
     32          7           0       -3.236206    1.493112    0.008167
     33          8           0       -4.182787    1.604688   -0.767830
     34          8           0       -2.801198    2.389754    0.727498
 ---------------------------------------------------------------------

 SCF Done:  E(RHF) =  -669.533213160     A.U. after   15 cycles
 E2 =    -0.2094157414D+01 EUMP2 =    -0.67162737057390D+03

 The electronic state is 1-A.
 Alpha  occ. eigenvalues --  -20.60708 -20.60702 -15.85761 -11.31103 -11.27670
 Alpha  occ. eigenvalues --  -11.27659 -11.27336 -11.26679 -11.26631 -11.22435
 Alpha  occ. eigenvalues --  -11.22234 -11.22047 -11.21893 -11.21809 -11.21235
 Alpha  occ. eigenvalues --   -1.59784  -1.39338  -1.19275  -1.09043  -1.08659
 Alpha  occ. eigenvalues --   -1.04685  -1.04132  -0.96627  -0.95500  -0.87651
 Alpha  occ. eigenvalues --   -0.86089  -0.82346  -0.80245  -0.78812  -0.77383
 Alpha  occ. eigenvalues --   -0.71980  -0.71108  -0.70377  -0.65733  -0.64930
 Alpha  occ. eigenvalues --   -0.64685  -0.62099  -0.61478  -0.59976  -0.58212
 Alpha  occ. eigenvalues --   -0.55935  -0.55204  -0.53294  -0.53074  -0.52952
 Alpha  occ. eigenvalues --   -0.52790  -0.50583  -0.48748  -0.48736  -0.48481
 Alpha  occ. eigenvalues --   -0.47226  -0.46319  -0.46218  -0.44749  -0.44363
 Alpha  occ. eigenvalues --   -0.37197  -0.36233
 Alpha virt. eigenvalues --    0.05109   0.11312   0.16494   0.19977   0.22650
 Alpha virt. eigenvalues --    0.23807   0.25014   0.26153   0.26667   0.28926
 Alpha virt. eigenvalues --    0.29040   0.29707   0.31018   0.31376   0.31840

 Mulliken charges:
               1
     1  C   -0.298878
     2  C   -0.299698
     3  C   -0.476348
     4  H    0.149632
     5  H    0.151194
     6  H    0.150197
     7  H    0.155407
     8  H    0.155594
     9  H    0.154800
    10  H    0.164117
    11  C   -0.298208
    12  C   -0.300238
    13  C   -0.479359
    14  H    0.140542
    15  H    0.155407
    16  H    0.153848
    17  H    0.156106
    18  H    0.157655
    19  H    0.143263
    20  H    0.164053
    21  C   -0.172150
    22  C   -0.214121
    23  C   -0.171898
    24  C    0.157943
    25  C   -0.171256
    26  C   -0.220413
    27  H    0.229622
    28  H    0.223738
    29  H    0.274868
    30  H    0.275075
    31  H    0.222934
    32  N    0.488069
    33  O   -0.460825
    34  O   -0.460674
 Sum of Mulliken charges =  -0.00000

 Dipole moment (field-independent basis, Debye):
    X=              2.5142    Y=             -4.5857    Z=              0.1509  Tot=              5.2319
 Quadrupole moment (field-independent basis, Debye-Ang):
   XX=           -105.5217   YY=            -97.0397   ZZ=            -91.8311
   XY=             13.2893   XZ=              1.9018   YZ=              1.2731

 Normal termination of Gaussian 16 at Thu May  6 19:01:26 2021.
