 Gaussian 16, Revision A.03,
 Gaussian 16:  EM64L-G16RevA.03 25-Dec-2016

 -------------
 #p 6-31g* mp2
 -------------

 ------------------------------------------------------
 Input file generated by CHIRIPA (05-May-2021 14:57:25)
 ------------------------------------------------------
 Symbolic Z-matrix:
 Charge =  0 Multiplicity = 1

                         Standard orientation:
 ---------------------------------------------------------------------
 Center     Atomic      Atomic             Coordinates (Angstroms)
 Number     Number       Type             X           Y           Z
 ---------------------------------------------------------------------
      1          6           0        0.846533   -1.923909   -0.477205
      2          6           0        2.082869   -2.091632   -1.109553
      3          6           0        3.144515   -1.224602   -0.834389
      4          6           0        2.933911   -0.195973    0.082593
      5          6           0        1.713943   -0.002897    0.728882
      6          6           0        0.666333   -0.881914    0.438380
      7          1           0        0.027273   -2.602095   -0.696917
      8          1           0        2.225687   -2.899977   -1.821048
      9          1           0        4.112078   -1.331533   -1.309579
     10          1           0        1.601850    0.812194    1.433494
     11          1           0       -0.292728   -0.749257    0.930973
     12          7           0        4.050398    0.728258    0.382016
     13          8           0        3.839295    1.626636    1.193797
     14          8           0        5.115464    0.536792   -0.200748
     15          6           0       -3.344254   -1.877230    0.996172
     16          6           0       -3.247890   -1.752238   -0.393652
     17          6           0       -2.919246   -0.523988   -0.974979
     18          6           0       -2.692441    0.563453   -0.132766
     19          6           0       -2.780823    0.470686    1.255353
     20          6           0       -3.110825   -0.767325    1.814796
     21          1           0       -3.600080   -2.835155    1.439261
     22          1           0       -3.428641   -2.612504   -1.031866
     23          1           0       -2.837914   -0.399196   -2.047933
     24          1           0       -2.595022    1.346159    1.865634
     25          1           0       -3.184958   -0.861457    2.894467
     26          7           0       -2.343802    1.868913   -0.736606
     27          8           0       -2.148729    2.811822    0.027271
     28          8           0       -2.272213    1.924506   -1.962339
 ---------------------------------------------------------------------

 SCF Done:  E(RHF) =  -868.336380373     A.U. after   16 cycles
 E2 =    -0.2603894804D+01 EUMP2 =    -0.87094027517729D+03

 The electronic state is 1-A.
 Alpha  occ. eigenvalues --  -20.61550 -20.61544 -20.60524 -20.60512 -15.86618
 Alpha  occ. eigenvalues --  -15.85573 -11.32315 -11.30981 -11.28940 -11.28907
 Alpha  occ. eigenvalues --  -11.28753 -11.28047 -11.28004 -11.27564 -11.27514
 Alpha  occ. eigenvalues --  -11.27316 -11.26620 -11.26432  -1.60618  -1.59593
 Alpha  occ. eigenvalues --   -1.40162  -1.39146  -1.20598  -1.19151  -1.09880
 Alpha  occ. eigenvalues --   -1.08549  -1.06020  -1.04563  -0.96646  -0.95380
 Alpha  occ. eigenvalues --   -0.87356  -0.85967  -0.83460  -0.82215  -0.78452
 Alpha  occ. eigenvalues --   -0.77255  -0.72822  -0.71963  -0.71793  -0.71597
 Alpha  occ. eigenvalues --   -0.70913  -0.70300  -0.66181  -0.65949  -0.64807
 Alpha  occ. eigenvalues --   -0.64653  -0.63302  -0.61977  -0.56438  -0.55136
 Alpha  occ. eigenvalues --   -0.54491  -0.54039  -0.52888  -0.52350  -0.49608
 Alpha  occ. eigenvalues --   -0.49560  -0.48550  -0.48545  -0.45492  -0.44543
 Alpha  occ. eigenvalues --   -0.38657  -0.37737  -0.37045  -0.36108
 Alpha virt. eigenvalues --    0.04027   0.05298   0.09913   0.11460   0.15424
 Alpha virt. eigenvalues --    0.16799   0.20242   0.21831   0.26030   0.27273
 Alpha virt. eigenvalues --    0.27813   0.28341   0.30019   0.31326   0.31684

 Mulliken charges:
               1
     1  C   -0.174348
     2  C   -0.217937
     3  C   -0.170968
     4  C    0.159966
     5  C   -0.173608
     6  C   -0.226101
     7  H    0.218878
     8  H    0.220999
     9  H    0.275166
    10  H    0.276531
    11  H    0.232987
    12  N    0.488191
    13  O   -0.459079
    14  O   -0.461212
    15  C   -0.173611
    16  C   -0.225002
    17  C   -0.170089
    18  C    0.164215
    19  C   -0.186906
    20  C   -0.221129
    21  H    0.230383
    22  H    0.226369
    23  H    0.280148
    24  H    0.280608
    25  H    0.229552
    26  N    0.488751
    27  O   -0.456814
    28  O   -0.455942
 Sum of Mulliken charges =  -0.00000

 Dipole moment (field-independent basis, Debye):
    X=             -5.4565    Y=             -7.6520    Z=              1.0513  Tot=              9.4568
 Quadrupole moment (field-independent basis, Debye-Ang):
   XX=           -120.0701   YY=           -107.7088   ZZ=            -99.6683
   XY=              1.5678   XZ=            -10.9492   YZ=              5.6370

 Normal termination of Gaussian 16 at Wed May  5 21:07:59 2021.
