 Gaussian 16, Revision A.03,
 Gaussian 16:  EM64L-G16RevA.03 25-Dec-2016

 -------------
 #p 6-31g* mp2
 -------------

 ------------------------------------------------------
 Input file generated by CHIRIPA (05-May-2021 14:53:17)
 ------------------------------------------------------
 Symbolic Z-matrix:
 Charge =  0 Multiplicity = 1

                         Standard orientation:
 ---------------------------------------------------------------------
 Center     Atomic      Atomic             Coordinates (Angstroms)
 Number     Number       Type             X           Y           Z
 ---------------------------------------------------------------------
      1          6           0       -4.482219   -0.157955   -0.080636
      2          6           0       -4.379178   -1.683499   -0.071547
      3          6           0       -5.653223   -2.365041   -0.571651
      4          1           0       -5.333070    0.149446    0.542663
      5          1           0       -4.704099    0.181523   -1.101870
      6          1           0       -4.156189   -2.019906    0.949100
      7          1           0       -3.528356   -1.987294   -0.694786
      8          1           0       -5.876777   -2.057940   -1.598448
      9          1           0       -6.508176   -2.090737    0.054778
     10          1           0       -5.557669   -3.455228   -0.556784
     11          6           0       -3.216323    0.537715    0.416636
     12          6           0       -3.319363    2.063259    0.407547
     13          6           0       -2.045318    2.744801    0.907650
     14          1           0       -2.994442    0.198237    1.437869
     15          1           0       -2.365471    0.230314   -0.206663
     16          1           0       -4.170185    2.367054    1.030786
     17          1           0       -3.542352    2.399666   -0.613101
     18          1           0       -1.190365    2.470497    0.281221
     19          1           0       -1.821764    2.437700    1.934448
     20          1           0       -2.140872    3.834988    0.892784
     21          6           0        3.861686   -2.427492    0.533078
     22          6           0        4.730860   -1.331697    0.516017
     23          6           0        4.268387   -0.064263    0.149580
     24          6           0        2.924638    0.071996   -0.195474
     25          6           0        2.034005   -1.000389   -0.188233
     26          6           0        2.518400   -2.258639    0.181519
     27          1           0        4.229460   -3.408499    0.819023
     28          1           0        5.774572   -1.459874    0.788561
     29          1           0        4.919518    0.801169    0.127762
     30          1           0        0.998843   -0.841454   -0.464998
     31          1           0        1.841109   -3.107855    0.193866
     32          7           0        2.423435    1.408911   -0.585160
     33          8           0        1.235147    1.502645   -0.884864
     34          8           0        3.228369    2.337734   -0.583512
 ---------------------------------------------------------------------

 SCF Done:  E(RHF) =  -669.536338924     A.U. after   15 cycles
 E2 =    -0.2091057147D+01 EUMP2 =    -0.67162739607043D+03

 The electronic state is 1-A.
 Alpha  occ. eigenvalues --  -20.60946 -20.60937 -15.85977 -11.31277 -11.27840
 Alpha  occ. eigenvalues --  -11.27836 -11.27576 -11.26844 -11.26834 -11.21519
 Alpha  occ. eigenvalues --  -11.21090 -11.21010 -11.20931 -11.20845 -11.19880
 Alpha  occ. eigenvalues --   -1.60000  -1.39559  -1.19445  -1.08853  -1.08030
 Alpha  occ. eigenvalues --   -1.04839  -1.03042  -0.95701  -0.95465  -0.86484
 Alpha  occ. eigenvalues --   -0.86240  -0.82535  -0.79152  -0.77822  -0.77580
 Alpha  occ. eigenvalues --   -0.72206  -0.71311  -0.70555  -0.65104  -0.64842
 Alpha  occ. eigenvalues --   -0.64659  -0.62187  -0.60428  -0.58908  -0.57078
 Alpha  occ. eigenvalues --   -0.55346  -0.54733  -0.53171  -0.52931  -0.52162
 Alpha  occ. eigenvalues --   -0.51889  -0.49427  -0.48959  -0.48927  -0.47445
 Alpha  occ. eigenvalues --   -0.46203  -0.45381  -0.45283  -0.44860  -0.43316
 Alpha  occ. eigenvalues --   -0.37423  -0.36439
 Alpha virt. eigenvalues --    0.04913   0.11216   0.16386   0.20993   0.23102
 Alpha virt. eigenvalues --    0.24643   0.25876   0.27357   0.27612   0.28624
 Alpha virt. eigenvalues --    0.28930   0.30778   0.31721   0.32065   0.32423

 Mulliken charges:
               1
     1  C   -0.297820
     2  C   -0.298646
     3  C   -0.475291
     4  H    0.149344
     5  H    0.150503
     6  H    0.149860
     7  H    0.147830
     8  H    0.155897
     9  H    0.155674
    10  H    0.157985
    11  C   -0.298500
    12  C   -0.298437
    13  C   -0.487868
    14  H    0.145932
    15  H    0.150224
    16  H    0.147787
    17  H    0.152472
    18  H    0.183485
    19  H    0.147663
    20  H    0.158121
    21  C   -0.170534
    22  C   -0.218641
    23  C   -0.170590
    24  C    0.157935
    25  C   -0.170866
    26  C   -0.218746
    27  H    0.225971
    28  H    0.223755
    29  H    0.275810
    30  H    0.276213
    31  H    0.224116
    32  N    0.491380
    33  O   -0.463616
    34  O   -0.458404
 Sum of Mulliken charges =  -0.00000

 Dipole moment (field-independent basis, Debye):
    X=              1.9970    Y=             -4.6507    Z=              1.2960  Tot=              5.2247
 Quadrupole moment (field-independent basis, Debye-Ang):
   XX=            -81.3025   YY=            -95.6892   ZZ=            -95.4686
   XY=            -12.3983   XZ=              4.1150   YZ=              0.8158

 Normal termination of Gaussian 16 at Wed May  5 15:45:20 2021.
