 Gaussian 16, Revision A.03,
 Gaussian 16:  EM64L-G16RevA.03 25-Dec-2016

 -------------
 #p 6-31g* mp2
 -------------

 ------------------------------------------------------
 Input file generated by CHIRIPA (05-May-2021 14:55:22)
 ------------------------------------------------------
 Symbolic Z-matrix:
 Charge =  0 Multiplicity = 1

                         Standard orientation:
 ---------------------------------------------------------------------
 Center     Atomic      Atomic             Coordinates (Angstroms)
 Number     Number       Type             X           Y           Z
 ---------------------------------------------------------------------
      1          6           0       -0.075090   -2.604405    0.458153
      2          6           0       -0.322147   -1.661229    1.461100
      3          6           0       -1.291632   -0.670242    1.280570
      4          6           0       -1.998649   -0.651798    0.079288
      5          6           0       -1.775516   -1.577550   -0.938791
      6          6           0       -0.801282   -2.559634   -0.736485
      7          1           0        0.679874   -3.370769    0.606851
      8          1           0        0.240297   -1.693578    2.389892
      9          1           0       -1.503205    0.072250    2.040413
     10          1           0       -2.352276   -1.519805   -1.853904
     11          1           0       -0.611543   -3.290826   -1.517128
     12          7           0       -3.027513    0.392603   -0.123357
     13          8           0       -3.636813    0.387325   -1.190766
     14          8           0       -3.205155    1.196706    0.789056
     15          6           0        1.640758    1.318663   -0.296123
     16          6           0        1.417414    2.754339    0.180257
     17          6           0        0.011438    3.268420   -0.130778
     18          1           0        1.460706    1.266074   -1.378602
     19          1           0        0.896619    0.662879    0.176738
     20          1           0        2.162629    3.407001   -0.292294
     21          1           0        1.598206    2.803556    1.261695
     22          1           0       -0.743971    2.641293    0.353648
     23          1           0       -0.176341    3.248167   -1.209170
     24          1           0       -0.126480    4.296499    0.218352
     25          6           0        3.041685    0.790593    0.007645
     26          6           0        3.265028   -0.645082   -0.468736
     27          6           0        4.671005   -1.159164   -0.157699
     28          1           0        3.785824    1.446378   -0.465216
     29          1           0        3.221737    0.843183    1.090124
     30          1           0        3.084237   -0.694300   -1.550174
     31          1           0        2.519814   -1.297744    0.003816
     32          1           0        4.858785   -1.138910    0.920692
     33          1           0        5.426415   -0.532037   -0.642126
     34          1           0        4.808924   -2.187243   -0.506830
 ---------------------------------------------------------------------

 SCF Done:  E(RHF) =  -669.534202898     A.U. after   15 cycles
 E2 =    -0.2096696453D+01 EUMP2 =    -0.67163089935145D+03

 The electronic state is 1-A.
 Alpha  occ. eigenvalues --  -20.60978 -20.60973 -15.85989 -11.31349 -11.27921
 Alpha  occ. eigenvalues --  -11.27907 -11.27660 -11.26930 -11.26920 -11.21901
 Alpha  occ. eigenvalues --  -11.21532 -11.21497 -11.21371 -11.21172 -11.20518
 Alpha  occ. eigenvalues --   -1.60024  -1.39583  -1.19547  -1.08937  -1.08469
 Alpha  occ. eigenvalues --   -1.04946  -1.03549  -0.95970  -0.95768  -0.86981
 Alpha  occ. eigenvalues --   -0.86335  -0.82597  -0.79640  -0.78271  -0.77642
 Alpha  occ. eigenvalues --   -0.72220  -0.71337  -0.70648  -0.65203  -0.65150
 Alpha  occ. eigenvalues --   -0.64931  -0.62280  -0.60965  -0.59400  -0.57584
 Alpha  occ. eigenvalues --   -0.55436  -0.55301  -0.53430  -0.53022  -0.52638
 Alpha  occ. eigenvalues --   -0.52345  -0.49936  -0.48982  -0.48977  -0.47960
 Alpha  occ. eigenvalues --   -0.46738  -0.45773  -0.45694  -0.44815  -0.43773
 Alpha  occ. eigenvalues --   -0.37441  -0.36436
 Alpha virt. eigenvalues --    0.04825   0.10982   0.16235   0.20789   0.23112
 Alpha virt. eigenvalues --    0.24058   0.26457   0.27182   0.27595   0.27707
 Alpha virt. eigenvalues --    0.28324   0.30818   0.31315   0.31569   0.31975

 Mulliken charges:
               1
     1  C   -0.168471
     2  C   -0.216730
     3  C   -0.179641
     4  C    0.165331
     5  C   -0.170467
     6  C   -0.217284
     7  H    0.227344
     8  H    0.224805
     9  H    0.276332
    10  H    0.276308
    11  H    0.224642
    12  N    0.488631
    13  O   -0.457765
    14  O   -0.458774
    15  C   -0.307909
    16  C   -0.299343
    17  C   -0.482512
    18  H    0.148611
    19  H    0.158980
    20  H    0.150609
    21  H    0.147491
    22  H    0.163680
    23  H    0.155555
    24  H    0.161476
    25  C   -0.296435
    26  C   -0.303015
    27  C   -0.475382
    28  H    0.150476
    29  H    0.145444
    30  H    0.151809
    31  H    0.148514
    32  H    0.153276
    33  H    0.157879
    34  H    0.156535
 Sum of Mulliken charges =  -0.00000

 Dipole moment (field-independent basis, Debye):
    X=              3.3470    Y=             -3.7508    Z=              0.6747  Tot=              5.0721
 Quadrupole moment (field-independent basis, Debye-Ang):
   XX=           -111.0311   YY=            -89.9446   ZZ=            -89.8307
   XY=              5.9953   XZ=             -0.5518   YZ=              0.9259

 Normal termination of Gaussian 16 at Wed May  5 19:03:57 2021.
