 Gaussian 16, Revision A.03,
 Gaussian 16:  EM64L-G16RevA.03 25-Dec-2016

 -------------
 #p 6-31g* mp2
 -------------

 ------------------------------------------------------
 Input file generated by CHIRIPA (05-May-2021 14:51:11)
 ------------------------------------------------------
 Symbolic Z-matrix:
 Charge =  0 Multiplicity = 1

                         Standard orientation:
 ---------------------------------------------------------------------
 Center     Atomic      Atomic             Coordinates (Angstroms)
 Number     Number       Type             X           Y           Z
 ---------------------------------------------------------------------
      1          6           0        3.612422    0.485058    0.083835
      2          6           0        3.857402   -0.785251   -0.731201
      3          6           0        5.235173   -1.396235   -0.473831
      4          1           0        4.392004    1.221702   -0.153975
      5          1           0        3.717621    0.252603    1.152616
      6          1           0        3.750409   -0.550773   -1.798061
      7          1           0        3.077035   -1.518886   -0.491567
      8          1           0        5.349137   -1.658086    0.583074
      9          1           0        6.026337   -0.684473   -0.730843
     10          1           0        5.389181   -2.303305   -1.066592
     11          6           0        2.239295    1.107569   -0.162601
     12          6           0        1.994315    2.377879    0.652435
     13          6           0        0.616544    2.988863    0.395064
     14          1           0        2.134095    1.340025   -1.231382
     15          1           0        1.459713    0.370926    0.075208
     16          1           0        2.774681    3.111513    0.412800
     17          1           0        2.101307    2.143401    1.719294
     18          1           0       -0.174620    2.277101    0.652076
     19          1           0        0.502580    3.250714   -0.661841
     20          1           0        0.462535    3.895932    0.987826
     21          6           0       -3.301985   -0.316112   -0.420364
     22          6           0       -4.663929    0.108477    0.129924
     23          6           0       -5.404288    1.069150   -0.801081
     24          1           0       -2.687355    0.578425   -0.590601
     25          1           0       -3.442411   -0.790244   -1.401625
     26          1           0       -4.521110    0.580422    1.110478
     27          1           0       -5.275318   -0.787188    0.299051
     28          1           0       -5.575929    0.604032   -1.777198
     29          1           0       -4.817435    1.979412   -0.961162
     30          1           0       -6.375374    1.359769   -0.388292
     31          6           0       -2.549732   -1.276516    0.499131
     32          6           0       -1.187787   -1.701104   -0.051157
     33          6           0       -0.447429   -2.661778    0.879848
     34          1           0       -2.409305   -0.802384    1.480393
     35          1           0       -3.164361   -2.171052    0.669369
     36          1           0       -0.576398   -0.805440   -0.220285
     37          1           0       -1.330606   -2.173049   -1.031711
     38          1           0       -1.034281   -3.572041    1.039929
     39          1           0       -0.275788   -2.196660    1.855965
     40          1           0        0.523657   -2.952397    0.467059
 ---------------------------------------------------------------------

 SCF Done:  E(RHF) =  -470.733377888     A.U. after   11 cycles
 E2 =    -0.1583508619D+01 EUMP2 =    -0.47231688650661D+03

 The electronic state is 1-A.
 Alpha  occ. eigenvalues --  -11.21646 -11.21613 -11.21604 -11.21594 -11.21418
 Alpha  occ. eigenvalues --  -11.21413 -11.21359 -11.21350 -11.21148 -11.21133
 Alpha  occ. eigenvalues --  -11.21076 -11.21055  -1.08470  -1.08426  -1.03564
 Alpha  occ. eigenvalues --   -1.03541  -0.96019  -0.95987  -0.87034  -0.87004
 Alpha  occ. eigenvalues --   -0.79656  -0.79577  -0.78347  -0.78174  -0.65226
 Alpha  occ. eigenvalues --   -0.64952  -0.61020  -0.60887  -0.59378  -0.59364
 Alpha  occ. eigenvalues --   -0.57656  -0.57572  -0.55378  -0.55206  -0.52717
 Alpha  occ. eigenvalues --   -0.52680  -0.52467  -0.52390  -0.50000  -0.49898
 Alpha  occ. eigenvalues --   -0.48043  -0.47858  -0.46832  -0.46582  -0.46043
 Alpha  occ. eigenvalues --   -0.45759  -0.45755  -0.45284  -0.43811  -0.43794
 Alpha virt. eigenvalues --    0.19848   0.22254   0.24013   0.24072   0.25883
 Alpha virt. eigenvalues --    0.26523   0.27026   0.27186   0.28439   0.29489
 Alpha virt. eigenvalues --    0.29978   0.31538   0.31632   0.31804   0.32246

 Mulliken charges:
               1
     1  C   -0.297402
     2  C   -0.301631
     3  C   -0.475720
     4  H    0.149724
     5  H    0.149560
     6  H    0.152050
     7  H    0.153419
     8  H    0.155337
     9  H    0.155230
    10  H    0.160271
    11  C   -0.307779
    12  C   -0.299142
    13  C   -0.477499
    14  H    0.149442
    15  H    0.159205
    16  H    0.152317
    17  H    0.151848
    18  H    0.155153
    19  H    0.155586
    20  H    0.160717
    21  C   -0.299902
    22  C   -0.299565
    23  C   -0.475821
    24  H    0.151291
    25  H    0.149687
    26  H    0.151911
    27  H    0.151866
    28  H    0.155111
    29  H    0.155627
    30  H    0.160202
    31  C   -0.297546
    32  C   -0.308408
    33  C   -0.477356
    34  H    0.148913
    35  H    0.149762
    36  H    0.159287
    37  H    0.152530
    38  H    0.155842
    39  H    0.154653
    40  H    0.161229
 Sum of Mulliken charges =  -0.00000

 Dipole moment (field-independent basis, Debye):
    X=              0.0076    Y=              0.0055    Z=             -0.0111  Tot=              0.0145
 Quadrupole moment (field-independent basis, Debye-Ang):
   XX=            -85.7812   YY=            -84.6070   ZZ=            -84.3120
   XY=              1.5918   XZ=             -0.5176   YZ=              0.3921

 Normal termination of Gaussian 16 at Wed May  5 18:17:05 2021.
