 Gaussian 16, Revision A.03,
 Gaussian 16:  EM64L-G16RevA.03 25-Dec-2016

 -------------
 #p 6-31g* mp2
 -------------

 ------------------------------------------------------
 Input file generated by CHIRIPA (05-May-2021 14:55:25)
 ------------------------------------------------------
 Symbolic Z-matrix:
 Charge =  0 Multiplicity = 1

                         Standard orientation:
 ---------------------------------------------------------------------
 Center     Atomic      Atomic             Coordinates (Angstroms)
 Number     Number       Type             X           Y           Z
 ---------------------------------------------------------------------
      1          6           0        2.051742    2.051804   -0.640270
      2          6           0        3.286324    2.218122   -0.004135
      3          6           0        4.108070    1.116078    0.250385
      4          6           0        3.661964   -0.143578   -0.146535
      5          6           0        2.437225   -0.341643   -0.782204
      6          6           0        1.631873    0.774704   -1.026593
      7          1           0        1.419758    2.913454   -0.834052
      8          1           0        3.614969    3.208756    0.297000
      9          1           0        5.068523    1.216284    0.741207
     10          1           0        2.136689   -1.341583   -1.070678
     11          1           0        0.673571    0.642546   -1.520796
     12          7           0        4.523231   -1.317833    0.117552
     13          8           0        4.107354   -2.417101   -0.242023
     14          8           0        5.597862   -1.116713    0.679117
     15          6           0       -3.971603    0.143389    0.748519
     16          6           0       -2.554544    0.126548    0.174371
     17          6           0       -1.497319    0.543678    1.197147
     18          1           0       -4.197513    1.151945    1.120978
     19          1           0       -4.015697   -0.527834    1.617376
     20          1           0       -2.513489    0.796542   -0.693983
     21          1           0       -2.332052   -0.882037   -0.196937
     22          1           0       -1.509158   -0.130015    2.060048
     23          1           0       -1.691627    1.558100    1.560179
     24          1           0       -0.491701    0.524592    0.765607
     25          6           0       -5.039639   -0.271271   -0.261967
     26          6           0       -6.456697   -0.254429    0.312181
     27          6           0       -7.513923   -0.671559   -0.710595
     28          1           0       -4.995545    0.399952   -1.130824
     29          1           0       -4.813729   -1.279827   -0.634426
     30          1           0       -6.679191    0.754155    0.683490
     31          1           0       -6.497753   -0.924424    1.180535
     32          1           0       -7.319615   -1.685982   -1.073627
     33          1           0       -7.502083    0.002134   -1.573496
     34          1           0       -8.519541   -0.652473   -0.279054
 ---------------------------------------------------------------------

 SCF Done:  E(RHF) =  -669.535049790     A.U. after   15 cycles
 E2 =    -0.2092015014D+01 EUMP2 =    -0.67162706480405D+03

 The electronic state is 1-A.
 Alpha  occ. eigenvalues --  -20.60791 -20.60786 -15.85846 -11.31233 -11.27807
 Alpha  occ. eigenvalues --  -11.27801 -11.27550 -11.26818 -11.26804 -11.22254
 Alpha  occ. eigenvalues --  -11.21937 -11.21872 -11.21776 -11.21510 -11.21356
 Alpha  occ. eigenvalues --   -1.59866  -1.39419  -1.19417  -1.08894  -1.08802
 Alpha  occ. eigenvalues --   -1.04830  -1.03982  -0.96412  -0.95631  -0.87429
 Alpha  occ. eigenvalues --   -0.86214  -0.82464  -0.80059  -0.78701  -0.77510
 Alpha  occ. eigenvalues --   -0.72064  -0.71189  -0.70509  -0.65521  -0.65065
 Alpha  occ. eigenvalues --   -0.64844  -0.62191  -0.61378  -0.59802  -0.58048
 Alpha  occ. eigenvalues --   -0.55684  -0.55310  -0.53519  -0.52953  -0.52933
 Alpha  occ. eigenvalues --   -0.52560  -0.50344  -0.48824  -0.48817  -0.48368
 Alpha  occ. eigenvalues --   -0.47102  -0.46238  -0.46160  -0.44820  -0.44240
 Alpha  occ. eigenvalues --   -0.37362  -0.36375
 Alpha virt. eigenvalues --    0.05026   0.11141   0.16473   0.20589   0.22590
 Alpha virt. eigenvalues --    0.23955   0.26036   0.26356   0.27289   0.28173
 Alpha virt. eigenvalues --    0.28680   0.30368   0.31000   0.31785   0.32060

 Mulliken charges:
               1
     1  C   -0.169765
     2  C   -0.218310
     3  C   -0.170523
     4  C    0.158811
     5  C   -0.171476
     6  C   -0.221432
     7  H    0.226535
     8  H    0.223799
     9  H    0.275907
    10  H    0.276202
    11  H    0.228084
    12  N    0.488122
    13  O   -0.460234
    14  O   -0.460259
    15  C   -0.297933
    16  C   -0.300850
    17  C   -0.484929
    18  H    0.149946
    19  H    0.152345
    20  H    0.144723
    21  H    0.151956
    22  H    0.159503
    23  H    0.153249
    24  H    0.164932
    25  C   -0.298595
    26  C   -0.300013
    27  C   -0.475942
    28  H    0.148272
    29  H    0.150495
    30  H    0.152019
    31  H    0.153190
    32  H    0.155907
    33  H    0.154885
    34  H    0.161380
 Sum of Mulliken charges =  -0.00000

 Dipole moment (field-independent basis, Debye):
    X=             -3.0368    Y=              4.1284    Z=             -0.9042  Tot=              5.2042
 Quadrupole moment (field-independent basis, Debye-Ang):
   XX=           -115.3406   YY=            -93.6512   ZZ=            -94.5843
   XY=             17.9087   XZ=             -1.9483   YZ=              0.4744

 Normal termination of Gaussian 16 at Wed May  5 22:28:58 2021.
