 Gaussian 16, Revision A.03,
 Gaussian 16:  EM64L-G16RevA.03 25-Dec-2016

 -------------
 #p 6-31g* mp2
 -------------

 ------------------------------------------------------
 Input file generated by CHIRIPA (05-May-2021 14:57:26)
 ------------------------------------------------------
 Symbolic Z-matrix:
 Charge =  0 Multiplicity = 1

                         Standard orientation:
 ---------------------------------------------------------------------
 Center     Atomic      Atomic             Coordinates (Angstroms)
 Number     Number       Type             X           Y           Z
 ---------------------------------------------------------------------
      1          6           0        5.448110   -0.891778   -1.475056
      2          6           0        4.939097    0.404684   -1.603942
      3          6           0        3.955885    0.871900   -0.726701
      4          6           0        3.502411    0.012019    0.272427
      5          6           0        3.989792   -1.284899    0.426548
      6          6           0        4.972671   -1.730953   -0.462009
      7          1           0        6.211763   -1.246503   -2.160913
      8          1           0        5.306459    1.058599   -2.389745
      9          1           0        3.544387    1.870972   -0.803795
     10          1           0        3.603884   -1.913567    1.219813
     11          1           0        5.366150   -2.738285   -0.359537
     12          7           0        2.461705    0.495438    1.207112
     13          8           0        2.078829   -0.281694    2.078955
     14          8           0        2.048581    1.642320    1.050178
     15          6           0       -2.022641    1.963169    0.096527
     16          6           0       -1.813379    0.769853    0.795619
     17          6           0       -2.721722   -0.287037    0.684061
     18          6           0       -3.833573   -0.115597   -0.139155
     19          6           0       -4.069736    1.061043   -0.848406
     20          6           0       -3.148168    2.104705   -0.721811
     21          1           0       -1.311880    2.779048    0.189029
     22          1           0       -0.940162    0.657122    1.431881
     23          1           0       -2.584134   -1.221705    1.214043
     24          1           0       -4.949499    1.143770   -1.474978
     25          1           0       -3.313242    3.030313   -1.265912
     26          7           0       -4.802195   -1.227478   -0.265217
     27          8           0       -5.773890   -1.051407   -0.996959
     28          8           0       -4.571367   -2.253987    0.370107
 ---------------------------------------------------------------------

 SCF Done:  E(RHF) =  -868.341422182     A.U. after   16 cycles
 E2 =    -0.2598673189D+01 EUMP2 =    -0.87094009537146D+03

 The electronic state is 1-A.
 Alpha  occ. eigenvalues --  -20.61990 -20.61958 -20.60071 -20.60062 -15.86967
 Alpha  occ. eigenvalues --  -15.85111 -11.31952 -11.30265 -11.28488 -11.28456
 Alpha  occ. eigenvalues --  -11.28140 -11.27404 -11.27379 -11.26848 -11.26711
 Alpha  occ. eigenvalues --  -11.26370 -11.25820 -11.25484  -1.61025  -1.59150
 Alpha  occ. eigenvalues --   -1.40584  -1.38709  -1.20086  -1.18388  -1.09552
 Alpha  occ. eigenvalues --   -1.07799  -1.05429  -1.03740  -0.96450  -0.94681
 Alpha  occ. eigenvalues --   -0.86845  -0.85127  -0.83298  -0.81514  -0.78387
 Alpha  occ. eigenvalues --   -0.76608  -0.73193  -0.72314  -0.71333  -0.71188
 Alpha  occ. eigenvalues --   -0.70471  -0.69442  -0.65741  -0.65429  -0.64013
 Alpha  occ. eigenvalues --   -0.63676  -0.62781  -0.61069  -0.55943  -0.54175
 Alpha  occ. eigenvalues --   -0.53777  -0.53515  -0.52114  -0.51794  -0.49967
 Alpha  occ. eigenvalues --   -0.49913  -0.48103  -0.48064  -0.46071  -0.44162
 Alpha  occ. eigenvalues --   -0.38038  -0.37012  -0.36344  -0.35361
 Alpha virt. eigenvalues --    0.04079   0.05885   0.10650   0.12294   0.15656
 Alpha virt. eigenvalues --    0.17455   0.20818   0.22675   0.26763   0.27654
 Alpha virt. eigenvalues --    0.28617   0.29403   0.30466   0.31838   0.32297

 Mulliken charges:
               1
     1  C   -0.169187
     2  C   -0.218447
     3  C   -0.170078
     4  C    0.158929
     5  C   -0.169861
     6  C   -0.218410
     7  H    0.228615
     8  H    0.225467
     9  H    0.274239
    10  H    0.276996
    11  H    0.226580
    12  N    0.489209
    13  O   -0.461179
    14  O   -0.467726
    15  C   -0.173439
    16  C   -0.229533
    17  C   -0.174251
    18  C    0.157818
    19  C   -0.173486
    20  C   -0.219591
    21  H    0.232529
    22  H    0.247474
    23  H    0.274633
    24  H    0.271604
    25  H    0.219073
    26  N    0.488113
    27  O   -0.463783
    28  O   -0.462307
 Sum of Mulliken charges =  -0.00000

 Dipole moment (field-independent basis, Debye):
    X=              7.7131    Y=              2.1678    Z=             -2.7923  Tot=              8.4846
 Quadrupole moment (field-independent basis, Debye-Ang):
   XX=           -105.2000   YY=           -100.9590   ZZ=           -104.6482
   XY=            -23.7701   XZ=            -11.6224   YZ=             -5.4056

 Normal termination of Gaussian 16 at Thu May  6 05:09:59 2021.
