 Gaussian 16, Revision A.03,
 Gaussian 16:  EM64L-G16RevA.03 25-Dec-2016

 -------------
 #p 6-31g* mp2
 -------------

 ------------------------------------------------------
 Input file generated by CHIRIPA (05-May-2021 14:53:15)
 ------------------------------------------------------
 Symbolic Z-matrix:
 Charge =  0 Multiplicity = 1

                         Standard orientation:
 ---------------------------------------------------------------------
 Center     Atomic      Atomic             Coordinates (Angstroms)
 Number     Number       Type             X           Y           Z
 ---------------------------------------------------------------------
      1          6           0       -3.075365    1.296574    0.046616
      2          6           0       -1.689996    1.743291   -0.421553
      3          6           0       -1.381006    3.194677   -0.053044
      4          1           0       -3.834778    1.957631   -0.392976
      5          1           0       -3.144665    1.421962    1.136052
      6          1           0       -1.622851    1.615797   -1.509603
      7          1           0       -0.933806    1.080977    0.019052
      8          1           0       -1.420513    3.333370    1.032223
      9          1           0       -2.113473    3.871229   -0.505117
     10          1           0       -0.385845    3.493125   -0.397199
     11          6           0       -3.398873   -0.152125   -0.314409
     12          6           0       -4.784242   -0.598842    0.153760
     13          6           0       -5.093232   -2.050228   -0.214749
     14          1           0       -3.329573   -0.277513   -1.403845
     15          1           0       -2.639460   -0.813182    0.125183
     16          1           0       -5.540432    0.063473   -0.286845
     17          1           0       -4.851387   -0.471348    1.241810
     18          1           0       -4.360765   -2.726780    0.237324
     19          1           0       -5.053725   -2.188921   -1.300016
     20          1           0       -6.088393   -2.348676    0.129406
     21          6           0        1.771945   -2.852943    0.171494
     22          6           0        2.925307   -2.501484   -0.537557
     23          6           0        3.354127   -1.171547   -0.581461
     24          6           0        2.602188   -0.214458    0.098141
     25          6           0        1.448780   -0.533224    0.813213
     26          6           0        1.038656   -1.869425    0.843432
     27          1           0        1.446089   -3.888503    0.200285
     28          1           0        3.496763   -3.263188   -1.060330
     29          1           0        4.243241   -0.871753   -1.122774
     30          1           0        0.899926    0.248313    1.324463
     31          1           0        0.142544   -2.139468    1.394889
     32          7           0        3.046265    1.196803    0.058905
     33          8           0        2.366244    2.021229    0.665973
     34          8           0        4.065944    1.451801   -0.578173
 ---------------------------------------------------------------------

 SCF Done:  E(RHF) =  -669.535434939     A.U. after   15 cycles
 E2 =    -0.2092525843D+01 EUMP2 =    -0.67162796078269D+03

 The electronic state is 1-A.
 Alpha  occ. eigenvalues --  -20.60851 -20.60845 -15.85890 -11.31242 -11.27815
 Alpha  occ. eigenvalues --  -11.27806 -11.27554 -11.26834 -11.26819 -11.21884
 Alpha  occ. eigenvalues --  -11.21664 -11.21483 -11.21427 -11.21418 -11.20515
 Alpha  occ. eigenvalues --   -1.59915  -1.39469  -1.19420  -1.08813  -1.08558
 Alpha  occ. eigenvalues --   -1.04826  -1.03556  -0.95986  -0.95649  -0.86997
 Alpha  occ. eigenvalues --   -0.86222  -0.82485  -0.79649  -0.78375  -0.77526
 Alpha  occ. eigenvalues --   -0.72111  -0.71232  -0.70537  -0.65234  -0.65072
 Alpha  occ. eigenvalues --   -0.64824  -0.62208  -0.60941  -0.59370  -0.57574
 Alpha  occ. eigenvalues --   -0.55350  -0.55271  -0.53155  -0.52924  -0.52615
 Alpha  occ. eigenvalues --   -0.52399  -0.49948  -0.48871  -0.48866  -0.47934
 Alpha  occ. eigenvalues --   -0.46711  -0.45903  -0.45825  -0.44861  -0.43801
 Alpha  occ. eigenvalues --   -0.37389  -0.36390
 Alpha virt. eigenvalues --    0.04943   0.11145   0.16401   0.20210   0.22963
 Alpha virt. eigenvalues --    0.23957   0.25451   0.27001   0.27514   0.28299
 Alpha virt. eigenvalues --    0.29432   0.30374   0.31477   0.31648   0.32475

 Mulliken charges:
               1
     1  C   -0.298494
     2  C   -0.302481
     3  C   -0.476735
     4  H    0.151581
     5  H    0.147652
     6  H    0.152323
     7  H    0.145884
     8  H    0.153877
     9  H    0.151662
    10  H    0.176737
    11  C   -0.296112
    12  C   -0.299766
    13  C   -0.474858
    14  H    0.151178
    15  H    0.140148
    16  H    0.154241
    17  H    0.151326
    18  H    0.150481
    19  H    0.156055
    20  H    0.161372
    21  C   -0.170417
    22  C   -0.218255
    23  C   -0.170889
    24  C    0.157953
    25  C   -0.169327
    26  C   -0.219594
    27  H    0.226034
    28  H    0.223733
    29  H    0.275779
    30  H    0.277050
    31  H    0.224026
    32  N    0.488529
    33  O   -0.460970
    34  O   -0.459727
 Sum of Mulliken charges =  -0.00000

 Dipole moment (field-independent basis, Debye):
    X=             -1.4598    Y=             -4.8720    Z=              0.0787  Tot=              5.0866
 Quadrupole moment (field-independent basis, Debye-Ang):
   XX=           -100.1366   YY=            -93.4535   ZZ=            -92.9573
   XY=            -14.4736   XZ=             -2.0010   YZ=             -0.1678

 Normal termination of Gaussian 16 at Thu May  6 07:26:41 2021.
