 Gaussian 16, Revision A.03,
 Gaussian 16:  EM64L-G16RevA.03 25-Dec-2016

 -------------
 #p 6-31g* mp2
 -------------

 ------------------------------------------------------
 Input file generated by CHIRIPA (05-May-2021 14:53:12)
 ------------------------------------------------------
 Symbolic Z-matrix:
 Charge =  0 Multiplicity = 1

                         Standard orientation:
 ---------------------------------------------------------------------
 Center     Atomic      Atomic             Coordinates (Angstroms)
 Number     Number       Type             X           Y           Z
 ---------------------------------------------------------------------
      1          6           0       -4.488965   -0.358171   -0.318278
      2          6           0       -5.495195    0.221293    0.676563
      3          6           0       -6.938334   -0.163973    0.349895
      4          1           0       -4.742314   -0.012327   -1.329787
      5          1           0       -4.583678   -1.452841   -0.329349
      6          1           0       -5.397658    1.314453    0.686772
      7          1           0       -5.239308   -0.125816    1.685847
      8          1           0       -7.058075   -1.252172    0.359166
      9          1           0       -7.217325    0.196280   -0.645586
     10          1           0       -7.640910    0.260820    1.073634
     11          6           0       -3.041923    0.018219   -0.005025
     12          6           0       -2.035693   -0.561245   -0.999866
     13          6           0       -0.592554   -0.175979   -0.673198
     14          1           0       -2.947210    1.112889    0.006046
     15          1           0       -2.788574   -0.327625    1.006484
     16          1           0       -2.291581   -0.214136   -2.009149
     17          1           0       -2.133230   -1.654405   -1.010074
     18          1           0       -0.313564   -0.536232    0.322283
     19          1           0       -0.472814    0.912221   -0.682468
     20          1           0        0.110022   -0.600772   -1.396937
     21          6           0        2.344406    2.579641   -0.022165
     22          6           0        2.405381    1.948358    1.224545
     23          6           0        2.735323    0.593068    1.318748
     24          6           0        2.999503   -0.103759    0.140642
     25          6           0        2.946906    0.496989   -1.116189
     26          6           0        2.614886    1.853222   -1.186501
     27          1           0        2.087292    3.632829   -0.086064
     28          1           0        2.195813    2.510015    2.130452
     29          1           0        2.789722    0.079455    2.270934
     30          1           0        3.160985   -0.089135   -2.001653
     31          1           0        2.568287    2.340875   -2.156072
     32          7           0        3.349898   -1.539043    0.227724
     33          8           0        3.578273   -2.130796   -0.825039
     34          8           0        3.389528   -2.045087    1.347092
 ---------------------------------------------------------------------

 SCF Done:  E(RHF) =  -669.534489489     A.U. after   15 cycles
 E2 =    -0.2093359079D+01 EUMP2 =    -0.67162784856777D+03

 The electronic state is 1-A.
 Alpha  occ. eigenvalues --  -20.60758 -20.60753 -15.85806 -11.31137 -11.27722
 Alpha  occ. eigenvalues --  -11.27708 -11.27478 -11.26750 -11.26736 -11.21679
 Alpha  occ. eigenvalues --  -11.21568 -11.21461 -11.21401 -11.21133 -11.20989
 Alpha  occ. eigenvalues --   -1.59831  -1.39386  -1.19333  -1.08734  -1.08472
 Alpha  occ. eigenvalues --   -1.04740  -1.03555  -0.96013  -0.95569  -0.87033
 Alpha  occ. eigenvalues --   -0.86143  -0.82406  -0.79631  -0.78293  -0.77452
 Alpha  occ. eigenvalues --   -0.72030  -0.71150  -0.70459  -0.65105  -0.64992
 Alpha  occ. eigenvalues --   -0.64751  -0.62093  -0.60958  -0.59399  -0.57625
 Alpha  occ. eigenvalues --   -0.55314  -0.55249  -0.53568  -0.52841  -0.52545
 Alpha  occ. eigenvalues --   -0.52080  -0.49965  -0.48786  -0.48785  -0.47920
 Alpha  occ. eigenvalues --   -0.46669  -0.45819  -0.45763  -0.44797  -0.43820
 Alpha  occ. eigenvalues --   -0.37258  -0.36272
 Alpha virt. eigenvalues --    0.05066   0.11230   0.16563   0.21396   0.22808
 Alpha virt. eigenvalues --    0.24212   0.26584   0.27199   0.27431   0.27785
 Alpha virt. eigenvalues --    0.28338   0.30814   0.31318   0.31551   0.31820

 Mulliken charges:
               1
     1  C   -0.298239
     2  C   -0.299493
     3  C   -0.475707
     4  H    0.149037
     5  H    0.151199
     6  H    0.150300
     7  H    0.152179
     8  H    0.156130
     9  H    0.154917
    10  H    0.160022
    11  C   -0.297937
    12  C   -0.300838
    13  C   -0.475159
    14  H    0.145990
    15  H    0.150060
    16  H    0.149559
    17  H    0.154928
    18  H    0.155487
    19  H    0.152591
    20  H    0.159821
    21  C   -0.171798
    22  C   -0.216662
    23  C   -0.171981
    24  C    0.164710
    25  C   -0.171187
    26  C   -0.215580
    27  H    0.225251
    28  H    0.223262
    29  H    0.275211
    30  H    0.274922
    31  H    0.223111
    32  N    0.487739
    33  O   -0.461023
    34  O   -0.460823
 Sum of Mulliken charges =  -0.00000

 Dipole moment (field-independent basis, Debye):
    X=             -1.1755    Y=              5.0467    Z=             -0.3000  Tot=              5.1904
 Quadrupole moment (field-independent basis, Debye-Ang):
   XX=           -104.3426   YY=            -95.7880   ZZ=            -89.5969
   XY=             15.2801   XZ=             -1.7185   YZ=              0.4492

 Normal termination of Gaussian 16 at Thu May  6 07:17:52 2021.
