 Gaussian 16, Revision A.03,
 Gaussian 16:  EM64L-G16RevA.03 25-Dec-2016

 -------------
 #p 6-31g* mp2
 -------------

 ------------------------------------------------------
 Input file generated by CHIRIPA (05-May-2021 14:53:12)
 ------------------------------------------------------
 Symbolic Z-matrix:
 Charge =  0 Multiplicity = 1

                         Standard orientation:
 ---------------------------------------------------------------------
 Center     Atomic      Atomic             Coordinates (Angstroms)
 Number     Number       Type             X           Y           Z
 ---------------------------------------------------------------------
      1          6           0       -2.739142    0.273626    0.976414
      2          6           0       -2.145515   -0.910217    1.740684
      3          6           0       -1.027889   -0.495272    2.698037
      4          1           0       -1.940493    0.776421    0.414008
      5          1           0       -3.125456    1.008935    1.695773
      6          1           0       -1.761681   -1.643711    1.020077
      7          1           0       -2.945706   -1.410367    2.301184
      8          1           0       -1.400848    0.219169    3.439033
      9          1           0       -0.210096   -0.015500    2.150647
     10          1           0       -0.617823   -1.356944    3.233974
     11          6           0       -3.857620   -0.125213    0.015341
     12          6           0       -4.451248    1.058630   -0.748929
     13          6           0       -5.568874    0.643685   -1.706282
     14          1           0       -3.471307   -0.860522   -0.704018
     15          1           0       -4.656270   -0.628008    0.577747
     16          1           0       -3.651057    1.558780   -1.309429
     17          1           0       -4.835082    1.792124   -0.028322
     18          1           0       -6.386667    0.163913   -1.158892
     19          1           0       -5.195915   -0.070756   -2.447279
     20          1           0       -5.978940    1.505357   -2.242219
     21          6           0        4.094164    1.877090    0.177609
     22          6           0        4.631850    0.601643   -0.024002
     23          6           0        3.800634   -0.477867   -0.337512
     24          6           0        2.430173   -0.245049   -0.442028
     25          6           0        1.864346    1.013943   -0.246914
     26          6           0        2.714560    2.078814    0.065707
     27          1           0        4.747252    2.709994    0.420805
     28          1           0        5.702892    0.442037    0.062257
     29          1           0        4.190317   -1.475660   -0.498673
     30          1           0        0.792709    1.142020   -0.339700
     31          1           0        2.294201    3.068256    0.221748
     32          7           0        1.540146   -1.380128   -0.773456
     33          8           0        0.336119   -1.148822   -0.859795
     34          8           0        2.063421   -2.479618   -0.940614
 ---------------------------------------------------------------------

 SCF Done:  E(RHF) =  -669.536336262     A.U. after   15 cycles
 E2 =    -0.2092866588D+01 EUMP2 =    -0.67162920284952D+03

 The electronic state is 1-A.
 Alpha  occ. eigenvalues --  -20.61018 -20.61013 -15.86037 -11.31333 -11.27886
 Alpha  occ. eigenvalues --  -11.27877 -11.27609 -11.26888 -11.26878 -11.21090
 Alpha  occ. eigenvalues --  -11.20720 -11.20627 -11.20600 -11.20579 -11.20471
 Alpha  occ. eigenvalues --   -1.60069  -1.39628  -1.19492  -1.08901  -1.07712
 Alpha  occ. eigenvalues --   -1.04884  -1.02858  -0.95750  -0.95354  -0.86382
 Alpha  occ. eigenvalues --   -0.86282  -0.82586  -0.78927  -0.77658  -0.77525
 Alpha  occ. eigenvalues --   -0.72279  -0.71381  -0.70600  -0.65162  -0.64893
 Alpha  occ. eigenvalues --   -0.64284  -0.62236  -0.60217  -0.58726  -0.56967
 Alpha  occ. eigenvalues --   -0.55387  -0.54650  -0.53214  -0.52977  -0.52067
 Alpha  occ. eigenvalues --   -0.51793  -0.49309  -0.49042  -0.49003  -0.47272
 Alpha  occ. eigenvalues --   -0.45932  -0.45206  -0.45039  -0.44769  -0.43115
 Alpha  occ. eigenvalues --   -0.37458  -0.36471
 Alpha virt. eigenvalues --    0.04843   0.11070   0.16341   0.20373   0.23150
 Alpha virt. eigenvalues --    0.24477   0.25949   0.27526   0.28129   0.28443
 Alpha virt. eigenvalues --    0.29213   0.30922   0.31528   0.32346   0.32529

 Mulliken charges:
               1
     1  C   -0.296885
     2  C   -0.303754
     3  C   -0.476341
     4  H    0.146826
     5  H    0.142778
     6  H    0.176692
     7  H    0.146641
     8  H    0.149480
     9  H    0.148305
    10  H    0.159815
    11  C   -0.300072
    12  C   -0.298707
    13  C   -0.475577
    14  H    0.160415
    15  H    0.147419
    16  H    0.149316
    17  H    0.148423
    18  H    0.154410
    19  H    0.157466
    20  H    0.157389
    21  C   -0.170219
    22  C   -0.218450
    23  C   -0.170183
    24  C    0.157642
    25  C   -0.173216
    26  C   -0.220217
    27  H    0.226272
    28  H    0.224030
    29  H    0.275897
    30  H    0.280954
    31  H    0.224762
    32  N    0.489796
    33  O   -0.462938
    34  O   -0.458167
 Sum of Mulliken charges =  -0.00000

 Dipole moment (field-independent basis, Debye):
    X=              3.3437    Y=              3.8084    Z=              0.9960  Tot=              5.1649
 Quadrupole moment (field-independent basis, Debye-Ang):
   XX=            -77.0449   YY=            -95.1169   ZZ=            -97.2293
   XY=              6.6962   XZ=              0.4752   YZ=             -1.9045

 Normal termination of Gaussian 16 at Thu May  6 02:31:47 2021.
