 Gaussian 16, Revision A.03,
 Gaussian 16:  EM64L-G16RevA.03 25-Dec-2016

 -------------
 #p 6-31g* mp2
 -------------

 ------------------------------------------------------
 Input file generated by CHIRIPA (05-May-2021 14:51:11)
 ------------------------------------------------------
 Symbolic Z-matrix:
 Charge =  0 Multiplicity = 1

                         Standard orientation:
 ---------------------------------------------------------------------
 Center     Atomic      Atomic             Coordinates (Angstroms)
 Number     Number       Type             X           Y           Z
 ---------------------------------------------------------------------
      1          6           0       -3.303774    0.682443   -0.110385
      2          6           0       -2.704998    1.909137   -0.799350
      3          6           0       -3.214532    3.225177   -0.210955
      4          1           0       -4.398678    0.722330   -0.191249
      5          1           0       -3.067942    0.721307    0.962121
      6          1           0       -2.940709    1.867260   -1.870472
      7          1           0       -1.611383    1.866227   -0.717002
      8          1           0       -2.966056    3.293212    0.853109
      9          1           0       -4.302935    3.294251   -0.306915
     10          1           0       -2.773731    4.089047   -0.718185
     11          6           0       -2.804021   -0.640771   -0.687515
     12          6           0       -3.402797   -1.867466    0.001450
     13          6           0       -2.893263   -3.183506   -0.586944
     14          1           0       -3.039853   -0.679636   -1.760020
     15          1           0       -1.709117   -0.680659   -0.606650
     16          1           0       -4.496412   -1.824556   -0.080897
     17          1           0       -3.167086   -1.825589    1.072573
     18          1           0       -1.804860   -3.252580   -0.490985
     19          1           0       -3.141738   -3.251541   -1.651008
     20          1           0       -3.334064   -4.047376   -0.079714
     21          6           0        3.672902    0.347764    0.145177
     22          6           0        4.513238   -0.477959   -0.829503
     23          6           0        5.748149    0.272991   -1.328367
     24          1           0        3.363083    1.280080   -0.346498
     25          1           0        4.297160    0.638460    1.001444
     26          1           0        3.887205   -0.768179   -1.683008
     27          1           0        4.820932   -1.408504   -0.335515
     28          1           0        6.395850    0.549156   -0.490025
     29          1           0        5.456819    1.193119   -1.845175
     30          1           0        6.334401   -0.335682   -2.023842
     31          6           0        2.434894   -0.389435    0.652722
     32          6           0        1.594557    0.436287    1.627403
     33          6           0        0.359645   -0.314661    2.126267
     34          1           0        1.810634   -0.680131   -0.203545
     35          1           0        2.744712   -1.321751    1.144397
     36          1           0        1.286863    1.366833    1.133414
     37          1           0        2.220590    0.726507    2.480908
     38          1           0        0.650977   -1.234791    2.643075
     39          1           0       -0.288055   -0.590827    1.287925
     40          1           0       -0.226606    0.294012    2.821742
 ---------------------------------------------------------------------

 SCF Done:  E(RHF) =  -470.733311604     A.U. after   11 cycles
 E2 =    -0.1583334702D+01 EUMP2 =    -0.47231664630622D+03

 The electronic state is 1-A.
 Alpha  occ. eigenvalues --  -11.21674 -11.21626 -11.21616 -11.21587 -11.21457
 Alpha  occ. eigenvalues --  -11.21407 -11.21393 -11.21344 -11.21138 -11.21088
 Alpha  occ. eigenvalues --  -11.21079 -11.21058  -1.08488  -1.08428  -1.03581
 Alpha  occ. eigenvalues --   -1.03528  -0.96044  -0.95966  -0.87055  -0.86989
 Alpha  occ. eigenvalues --   -0.79652  -0.79582  -0.78300  -0.78243  -0.65272
 Alpha  occ. eigenvalues --   -0.64951  -0.60990  -0.60909  -0.59398  -0.59345
 Alpha  occ. eigenvalues --   -0.57652  -0.57576  -0.55477  -0.55116  -0.52724
 Alpha  occ. eigenvalues --   -0.52670  -0.52471  -0.52390  -0.50057  -0.49839
 Alpha  occ. eigenvalues --   -0.47994  -0.47888  -0.46770  -0.46552  -0.45939
 Alpha  occ. eigenvalues --   -0.45786  -0.45734  -0.45547  -0.43831  -0.43785
 Alpha virt. eigenvalues --    0.19573   0.23054   0.23785   0.24624   0.25974
 Alpha virt. eigenvalues --    0.26398   0.27229   0.27839   0.28122   0.29540
 Alpha virt. eigenvalues --    0.30508   0.31472   0.31748   0.31859   0.32179

 Mulliken charges:
               1
     1  C   -0.299301
     2  C   -0.300045
     3  C   -0.475708
     4  H    0.149778
     5  H    0.151498
     6  H    0.151858
     7  H    0.151621
     8  H    0.155366
     9  H    0.155269
    10  H    0.160116
    11  C   -0.302070
    12  C   -0.300838
    13  C   -0.475821
    14  H    0.150101
    15  H    0.151286
    16  H    0.152089
    17  H    0.153685
    18  H    0.155248
    19  H    0.154994
    20  H    0.160393
    21  C   -0.298345
    22  C   -0.299757
    23  C   -0.475753
    24  H    0.149805
    25  H    0.149715
    26  H    0.152147
    27  H    0.151999
    28  H    0.155203
    29  H    0.155273
    30  H    0.160390
    31  C   -0.298696
    32  C   -0.299928
    33  C   -0.483632
    34  H    0.149090
    35  H    0.149959
    36  H    0.152067
    37  H    0.152462
    38  H    0.155644
    39  H    0.162660
    40  H    0.160179
 Sum of Mulliken charges =  -0.00000

 Dipole moment (field-independent basis, Debye):
    X=              0.0041    Y=             -0.0059    Z=              0.0128  Tot=              0.0147
 Quadrupole moment (field-independent basis, Debye-Ang):
   XX=            -84.7206   YY=            -85.8929   ZZ=            -84.0283
   XY=             -0.3019   XZ=              1.4308   YZ=             -0.4543

 Normal termination of Gaussian 16 at Wed May  5 23:04:31 2021.
