 Gaussian 16, Revision A.03,
 Gaussian 16:  EM64L-G16RevA.03 25-Dec-2016

 -------------
 #p 6-31g* mp2
 -------------

 ------------------------------------------------------
 Input file generated by CHIRIPA (05-May-2021 14:53:17)
 ------------------------------------------------------
 Symbolic Z-matrix:
 Charge =  0 Multiplicity = 1

                         Standard orientation:
 ---------------------------------------------------------------------
 Center     Atomic      Atomic             Coordinates (Angstroms)
 Number     Number       Type             X           Y           Z
 ---------------------------------------------------------------------
      1          6           0        3.817481    1.167441    0.275079
      2          6           0        2.557115    1.993348    0.015581
      3          6           0        2.681144    3.433573    0.513740
      4          1           0        4.032549    1.167049    1.352433
      5          1           0        4.672999    1.653269   -0.214263
      6          1           0        1.703984    1.505367    0.504107
      7          1           0        2.344914    1.991615   -1.061259
      8          1           0        3.514063    3.942369    0.017781
      9          1           0        2.869491    3.453358    1.592042
     10          1           0        1.769050    4.005998    0.318100
     11          6           0        3.708869   -0.274594   -0.217330
     12          6           0        4.969235   -1.100501    0.042169
     13          6           0        4.845206   -2.540726   -0.455990
     14          1           0        2.853351   -0.760422    0.272012
     15          1           0        3.493801   -0.274202   -1.294683
     16          1           0        5.181435   -1.098768    1.119008
     17          1           0        5.822365   -0.612520   -0.446358
     18          1           0        4.656859   -2.560511   -1.534292
     19          1           0        4.012287   -3.049522    0.039968
     20          1           0        5.757300   -3.113151   -0.260350
     21          6           0       -0.733724   -1.560041    0.154009
     22          6           0       -0.784789   -0.275209   -0.396555
     23          6           0       -2.001683    0.405341   -0.499359
     24          6           0       -3.153273   -0.231667   -0.039628
     25          6           0       -3.134875   -1.511018    0.513737
     26          6           0       -1.906862   -2.172764    0.606600
     27          1           0        0.215907   -2.081405    0.230008
     28          1           0        0.124691    0.203094   -0.748857
     29          1           0       -2.069874    1.400684   -0.921331
     30          1           0       -4.058288   -1.961953    0.856350
     31          1           0       -1.870208   -3.170511    1.034622
     32          7           0       -4.447430    0.478847   -0.143200
     33          8           0       -5.447800   -0.104191    0.269066
     34          8           0       -4.436916    1.605332   -0.634685
 ---------------------------------------------------------------------

 SCF Done:  E(RHF) =  -669.535542465     A.U. after   15 cycles
 E2 =    -0.2092062094D+01 EUMP2 =    -0.67162760455956D+03

 The electronic state is 1-A.
 Alpha  occ. eigenvalues --  -20.60715 -20.60710 -15.85767 -11.31121 -11.27691
 Alpha  occ. eigenvalues --  -11.27670 -11.27414 -11.26706 -11.26607 -11.22617
 Alpha  occ. eigenvalues --  -11.22544 -11.22481 -11.22311 -11.21955 -11.21794
 Alpha  occ. eigenvalues --   -1.59791  -1.39345  -1.19287  -1.09425  -1.08682
 Alpha  occ. eigenvalues --   -1.04687  -1.04441  -0.96872  -0.95522  -0.87886
 Alpha  occ. eigenvalues --   -0.86086  -0.82357  -0.80536  -0.79297  -0.77392
 Alpha  occ. eigenvalues --   -0.71986  -0.71114  -0.70398  -0.66058  -0.64934
 Alpha  occ. eigenvalues --   -0.64678  -0.62074  -0.61801  -0.60237  -0.58501
 Alpha  occ. eigenvalues --   -0.56154  -0.55186  -0.53552  -0.53304  -0.53019
 Alpha  occ. eigenvalues --   -0.52771  -0.50804  -0.48861  -0.48742  -0.48701
 Alpha  occ. eigenvalues --   -0.47555  -0.46759  -0.46719  -0.44753  -0.44713
 Alpha  occ. eigenvalues --   -0.37265  -0.36279
 Alpha virt. eigenvalues --    0.05121   0.11263   0.16576   0.19423   0.22540
 Alpha virt. eigenvalues --    0.22921   0.25014   0.25190   0.27009   0.27784
 Alpha virt. eigenvalues --    0.29661   0.30196   0.30960   0.31269   0.31883

 Mulliken charges:
               1
     1  C   -0.297384
     2  C   -0.308969
     3  C   -0.475392
     4  H    0.153162
     5  H    0.153778
     6  H    0.151946
     7  H    0.149553
     8  H    0.158036
     9  H    0.158373
    10  H    0.163033
    11  C   -0.301960
    12  C   -0.300160
    13  C   -0.475836
    14  H    0.141637
    15  H    0.149880
    16  H    0.154524
    17  H    0.155905
    18  H    0.156534
    19  H    0.150354
    20  H    0.164368
    21  C   -0.175016
    22  C   -0.224377
    23  C   -0.173220
    24  C    0.158732
    25  C   -0.171111
    26  C   -0.218397
    27  H    0.227124
    28  H    0.234263
    29  H    0.275446
    30  H    0.275296
    31  H    0.223067
    32  N    0.488082
    33  O   -0.460686
    34  O   -0.460585
 Sum of Mulliken charges =  -0.00000

 Dipole moment (field-independent basis, Debye):
    X=              4.8310    Y=             -2.4037    Z=              0.3933  Tot=              5.4102
 Quadrupole moment (field-independent basis, Debye-Ang):
   XX=           -121.7374   YY=            -91.4486   ZZ=            -93.9038
   XY=              9.3386   XZ=             -2.6860   YZ=             -2.3623

 Normal termination of Gaussian 16 at Wed May  5 18:47:51 2021.
