 Gaussian 16, Revision A.03,
 Gaussian 16:  EM64L-G16RevA.03 25-Dec-2016

 -------------
 #p 6-31g* mp2
 -------------

 ------------------------------------------------------
 Input file generated by CHIRIPA (05-May-2021 14:51:10)
 ------------------------------------------------------
 Symbolic Z-matrix:
 Charge =  0 Multiplicity = 1

                         Standard orientation:
 ---------------------------------------------------------------------
 Center     Atomic      Atomic             Coordinates (Angstroms)
 Number     Number       Type             X           Y           Z
 ---------------------------------------------------------------------
      1          6           0        2.990064    0.443570   -0.154273
      2          6           0        2.788880    1.349640    1.060860
      3          6           0        3.647444    2.613554    1.004433
      4          1           0        4.050529    0.165351   -0.224656
      5          1           0        2.753766    1.008022   -1.066935
      6          1           0        3.024156    0.783231    1.971047
      7          1           0        1.728737    1.625580    1.128469
      8          1           0        3.407724    3.202638    0.113301
      9          1           0        4.710503    2.355503    0.960667
     10          1           0        3.487925    3.246787    1.882744
     11          6           0        2.138532   -0.824052   -0.112365
     12          6           0        2.339716   -1.730122   -1.327497
     13          6           0        1.481152   -2.994036   -1.271070
     14          1           0        2.374830   -1.388504    0.800298
     15          1           0        1.078068   -0.545833   -0.041981
     16          1           0        3.399859   -2.006061   -1.395106
     17          1           0        2.104440   -1.163713   -2.237685
     18          1           0        0.418093   -2.735985   -1.227304
     19          1           0        1.720872   -3.583120   -0.379938
     20          1           0        1.640671   -3.627269   -2.149381
     21          6           0       -2.630846    0.642790   -0.478402
     22          6           0       -2.684451    2.130450   -0.129144
     23          6           0       -2.817647    3.023014   -1.363397
     24          1           0       -1.785446    0.462054   -1.156323
     25          1           0       -3.539706    0.370432   -1.032649
     26          1           0       -1.776400    2.399614    0.425484
     27          1           0       -3.529707    2.307634    0.548177
     28          1           0       -3.732069    2.783006   -1.915509
     29          1           0       -1.968800    2.875510   -2.038900
     30          1           0       -2.854139    4.082344   -1.090725
     31          6           0       -2.497750   -0.262309    0.745039
     32          6           0       -2.444146   -1.749968    0.395781
     33          6           0       -2.310949   -2.642533    1.630034
     34          1           0       -1.588889    0.010050    1.299286
     35          1           0       -3.343151   -0.081572    1.422960
     36          1           0       -1.598889   -1.927151   -0.281539
     37          1           0       -3.352196   -2.019132   -0.158845
     38          1           0       -3.159796   -2.495027    2.305537
     39          1           0       -1.396526   -2.402524    2.182146
     40          1           0       -2.274457   -3.701862    1.357363
 ---------------------------------------------------------------------

 SCF Done:  E(RHF) =  -470.733352315     A.U. after   11 cycles
 E2 =    -0.1583789136D+01 EUMP2 =    -0.47231714145107D+03

 The electronic state is 1-A.
 Alpha  occ. eigenvalues --  -11.21668 -11.21658 -11.21649 -11.21599 -11.21476
 Alpha  occ. eigenvalues --  -11.21445 -11.21415 -11.21379 -11.21115 -11.21111
 Alpha  occ. eigenvalues --  -11.21098 -11.21047  -1.08507  -1.08451  -1.03597
 Alpha  occ. eigenvalues --   -1.03539  -0.96040  -0.95990  -0.87050  -0.87012
 Alpha  occ. eigenvalues --   -0.79682  -0.79587  -0.78321  -0.78268  -0.65302
 Alpha  occ. eigenvalues --   -0.64935  -0.61120  -0.60830  -0.59410  -0.59353
 Alpha  occ. eigenvalues --   -0.57681  -0.57575  -0.55407  -0.55207  -0.52721
 Alpha  occ. eigenvalues --   -0.52689  -0.52470  -0.52410  -0.50038  -0.49905
 Alpha  occ. eigenvalues --   -0.48088  -0.47842  -0.46823  -0.46530  -0.46051
 Alpha  occ. eigenvalues --   -0.45802  -0.45714  -0.45490  -0.43842  -0.43806
 Alpha virt. eigenvalues --    0.18993   0.22566   0.23756   0.24757   0.25438
 Alpha virt. eigenvalues --    0.26310   0.26884   0.27690   0.28452   0.30394
 Alpha virt. eigenvalues --    0.30700   0.31085   0.31643   0.31818   0.31924

 Mulliken charges:
               1
     1  C   -0.298191
     2  C   -0.299983
     3  C   -0.475756
     4  H    0.150170
     5  H    0.149525
     6  H    0.152169
     7  H    0.151318
     8  H    0.155354
     9  H    0.155412
    10  H    0.160499
    11  C   -0.302503
    12  C   -0.299389
    13  C   -0.482739
    14  H    0.149789
    15  H    0.152561
    16  H    0.152379
    17  H    0.151726
    18  H    0.161636
    19  H    0.155639
    20  H    0.160720
    21  C   -0.299145
    22  C   -0.299831
    23  C   -0.475679
    24  H    0.148997
    25  H    0.149976
    26  H    0.151627
    27  H    0.152373
    28  H    0.155399
    29  H    0.154896
    30  H    0.160485
    31  C   -0.299294
    32  C   -0.308428
    33  C   -0.475359
    34  H    0.150780
    35  H    0.150058
    36  H    0.159323
    37  H    0.152054
    38  H    0.154984
    39  H    0.155887
    40  H    0.160561
 Sum of Mulliken charges =  -0.00000

 Dipole moment (field-independent basis, Debye):
    X=              0.0096    Y=             -0.0108    Z=              0.0058  Tot=              0.0156
 Quadrupole moment (field-independent basis, Debye-Ang):
   XX=            -83.3690   YY=            -86.0105   ZZ=            -85.1778
   XY=             -0.7897   XZ=              0.1703   YZ=              0.2661

 Normal termination of Gaussian 16 at Thu May  6 06:58:09 2021.
