 Gaussian 16, Revision A.03,
 Gaussian 16:  EM64L-G16RevA.03 25-Dec-2016

 -------------
 #p 6-31g* mp2
 -------------

 ------------------------------------------------------
 Input file generated by CHIRIPA (05-May-2021 14:55:20)
 ------------------------------------------------------
 Symbolic Z-matrix:
 Charge =  0 Multiplicity = 1

                         Standard orientation:
 ---------------------------------------------------------------------
 Center     Atomic      Atomic             Coordinates (Angstroms)
 Number     Number       Type             X           Y           Z
 ---------------------------------------------------------------------
      1          6           0       -3.352259    2.026675    0.519457
      2          6           0       -3.755101    1.325038   -0.621571
      3          6           0       -3.241690    0.052876   -0.890942
      4          6           0       -2.323081   -0.489986    0.006135
      5          6           0       -1.902137    0.184099    1.151432
      6          6           0       -2.428691    1.454974    1.400763
      7          1           0       -3.756193    3.014421    0.720927
      8          1           0       -4.472211    1.766556   -1.307763
      9          1           0       -3.536278   -0.512343   -1.766821
     10          1           0       -1.185761   -0.282086    1.816936
     11          1           0       -2.114027    1.997564    2.287684
     12          7           0       -1.772599   -1.836086   -0.268428
     13          8           0       -0.964590   -2.292348    0.537539
     14          8           0       -2.159564   -2.409408   -1.284399
     15          6           0        2.715790    0.998693    0.052489
     16          6           0        3.347142    2.194252   -0.661665
     17          6           0        2.587855    3.498342   -0.415443
     18          1           0        1.675244    0.887565   -0.281965
     19          1           0        2.677157    1.203482    1.131361
     20          1           0        3.385837    1.986691   -1.738715
     21          1           0        4.386365    2.302430   -0.325615
     22          1           0        2.560752    3.732368    0.653715
     23          1           0        1.554537    3.414835   -0.767414
     24          1           0        3.056324    4.339930   -0.935179
     25          6           0        3.463555   -0.312272   -0.184039
     26          6           0        2.832203   -1.507833    0.530115
     27          6           0        3.591491   -2.811923    0.283893
     28          1           0        3.502188   -0.517063   -1.262910
     29          1           0        4.504102   -0.201145    0.150415
     30          1           0        1.792980   -1.616011    0.194065
     31          1           0        2.793508   -1.300271    1.607165
     32          1           0        4.624807   -2.728415    0.635864
     33          1           0        3.618594   -3.045948   -0.785265
     34          1           0        3.123022   -3.653511    0.803629
 ---------------------------------------------------------------------

 SCF Done:  E(RHF) =  -669.536385158     A.U. after   15 cycles
 E2 =    -0.2091558972D+01 EUMP2 =    -0.67162794412962D+03

 The electronic state is 1-A.
 Alpha  occ. eigenvalues --  -20.60962 -20.60956 -15.85980 -11.31287 -11.27846
 Alpha  occ. eigenvalues --  -11.27838 -11.27577 -11.26850 -11.26836 -11.21497
 Alpha  occ. eigenvalues --  -11.21173 -11.21135 -11.20868 -11.20672 -11.20203
 Alpha  occ. eigenvalues --   -1.60018  -1.39574  -1.19452  -1.08859  -1.08038
 Alpha  occ. eigenvalues --   -1.04842  -1.03074  -0.95704  -0.95568  -0.86591
 Alpha  occ. eigenvalues --   -0.86243  -0.82537  -0.79186  -0.77817  -0.77567
 Alpha  occ. eigenvalues --   -0.72202  -0.71329  -0.70555  -0.65107  -0.64842
 Alpha  occ. eigenvalues --   -0.64670  -0.62187  -0.60467  -0.58969  -0.57141
 Alpha  occ. eigenvalues --   -0.55347  -0.54877  -0.53176  -0.52931  -0.52250
 Alpha  occ. eigenvalues --   -0.51992  -0.49537  -0.48973  -0.48962  -0.47497
 Alpha  occ. eigenvalues --   -0.46257  -0.45515  -0.45314  -0.44646  -0.43344
 Alpha  occ. eigenvalues --   -0.37429  -0.36438
 Alpha virt. eigenvalues --    0.04897   0.11184   0.16365   0.21290   0.23156
 Alpha virt. eigenvalues --    0.24774   0.26832   0.26987   0.27634   0.28324
 Alpha virt. eigenvalues --    0.28677   0.30892   0.31816   0.31876   0.32624

 Mulliken charges:
               1
     1  C   -0.170622
     2  C   -0.218619
     3  C   -0.171034
     4  C    0.157466
     5  C   -0.170523
     6  C   -0.218335
     7  H    0.226150
     8  H    0.223794
     9  H    0.275690
    10  H    0.276990
    11  H    0.224292
    12  N    0.487704
    13  O   -0.458672
    14  O   -0.458825
    15  C   -0.297476
    16  C   -0.298932
    17  C   -0.475475
    18  H    0.147559
    19  H    0.145154
    20  H    0.152816
    21  H    0.152166
    22  H    0.152383
    23  H    0.153364
    24  H    0.159804
    25  C   -0.298190
    26  C   -0.307290
    27  C   -0.474824
    28  H    0.149595
    29  H    0.147003
    30  H    0.171670
    31  H    0.145548
    32  H    0.149353
    33  H    0.154962
    34  H    0.165354
 Sum of Mulliken charges =  -0.00000

 Dipole moment (field-independent basis, Debye):
    X=             -2.1348    Y=              4.6199    Z=              0.9405  Tot=              5.1754
 Quadrupole moment (field-independent basis, Debye-Ang):
   XX=            -85.1733   YY=           -101.0625   ZZ=            -90.8624
   XY=             -9.7144   XZ=              0.7546   YZ=             -0.0455

 Normal termination of Gaussian 16 at Thu May  6 15:46:35 2021.
