 Gaussian 16, Revision A.03,
 Gaussian 16:  EM64L-G16RevA.03 25-Dec-2016

 -------------
 #p 6-31g* mp2
 -------------

 ------------------------------------------------------
 Input file generated by CHIRIPA (05-May-2021 14:57:22)
 ------------------------------------------------------
 Symbolic Z-matrix:
 Charge =  0 Multiplicity = 1

                         Standard orientation:
 ---------------------------------------------------------------------
 Center     Atomic      Atomic             Coordinates (Angstroms)
 Number     Number       Type             X           Y           Z
 ---------------------------------------------------------------------
      1          6           0        1.815157    2.620756   -0.339844
      2          6           0        1.011323    1.476908   -0.295323
      3          6           0        1.585758    0.210652   -0.149827
      4          6           0        2.973624    0.124561   -0.051313
      5          6           0        3.801307    1.245520   -0.092320
      6          6           0        3.205133    2.501622   -0.238380
      7          1           0        1.360479    3.600470   -0.453088
      8          1           0       -0.068428    1.566414   -0.373883
      9          1           0        0.987106   -0.691364   -0.112403
     10          1           0        4.874733    1.124520   -0.011495
     11          1           0        3.831881    3.388221   -0.272646
     12          7           0        3.593260   -1.210593    0.103016
     13          8           0        4.818439   -1.259612    0.187686
     14          8           0        2.842017   -2.182785    0.136386
     15          6           0       -3.899325    1.948211    0.305817
     16          6           0       -3.161423    1.403204    1.361748
     17          6           0       -2.587435    0.133689    1.245917
     18          6           0       -2.772135   -0.566272    0.054602
     19          6           0       -3.501895   -0.050338   -1.015236
     20          6           0       -4.066910    1.220982   -0.877219
     21          1           0       -4.341727    2.935102    0.404414
     22          1           0       -3.029634    1.965704    2.281677
     23          1           0       -2.011385   -0.312123    2.047688
     24          1           0       -3.615988   -0.635037   -1.919962
     25          1           0       -4.639471    1.641737   -1.698914
     26          7           0       -2.169229   -1.911207   -0.079767
     27          8           0       -2.346538   -2.507635   -1.139705
     28          8           0       -1.530777   -2.343471    0.877399
 ---------------------------------------------------------------------

 SCF Done:  E(RHF) =  -868.337211249     A.U. after   16 cycles
 E2 =    -0.2601455371D+01 EUMP2 =    -0.87093866661930D+03

 The electronic state is 1-A.
 Alpha  occ. eigenvalues --  -20.61388 -20.61369 -20.60258 -20.60201 -15.86416
 Alpha  occ. eigenvalues --  -15.85289 -11.31988 -11.30845 -11.28554 -11.28531
 Alpha  occ. eigenvalues --  -11.28306 -11.27590 -11.27564 -11.27473 -11.27373
 Alpha  occ. eigenvalues --  -11.27284 -11.26543 -11.26476  -1.60451  -1.59312
 Alpha  occ. eigenvalues --   -1.39992  -1.38854  -1.20180  -1.19050  -1.09524
 Alpha  occ. eigenvalues --   -1.08424  -1.05574  -1.04479  -0.96315  -0.95219
 Alpha  occ. eigenvalues --   -0.86951  -0.85867  -0.83119  -0.82043  -0.78150
 Alpha  occ. eigenvalues --   -0.77044  -0.72598  -0.71823  -0.71493  -0.71221
 Alpha  occ. eigenvalues --   -0.70645  -0.70163  -0.65789  -0.65531  -0.64701
 Alpha  occ. eigenvalues --   -0.64493  -0.62884  -0.61810  -0.56038  -0.55022
 Alpha  occ. eigenvalues --   -0.53977  -0.53625  -0.52812  -0.52506  -0.49382
 Alpha  occ. eigenvalues --   -0.49366  -0.48292  -0.48238  -0.45322  -0.44218
 Alpha  occ. eigenvalues --   -0.38181  -0.37232  -0.37054  -0.36076
 Alpha virt. eigenvalues --    0.04337   0.05486   0.10430   0.11551   0.15786
 Alpha virt. eigenvalues --    0.16921   0.20704   0.21498   0.26640   0.26963
 Alpha virt. eigenvalues --    0.27632   0.28381   0.30338   0.30994   0.31858

 Mulliken charges:
               1
     1  C   -0.172234
     2  C   -0.224923
     3  C   -0.175840
     4  C    0.157467
     5  C   -0.171129
     6  C   -0.218921
     7  H    0.221294
     8  H    0.224629
     9  H    0.284773
    10  H    0.275064
    11  H    0.221398
    12  N    0.486703
    13  O   -0.463894
    14  O   -0.451352
    15  C   -0.173476
    16  C   -0.221157
    17  C   -0.177008
    18  C    0.152865
    19  C   -0.171863
    20  C   -0.219525
    21  H    0.227732
    22  H    0.226604
    23  H    0.280321
    24  H    0.279095
    25  H    0.226382
    26  N    0.484971
    27  O   -0.454190
    28  O   -0.453785
 Sum of Mulliken charges =  -0.00000

 Dipole moment (field-independent basis, Debye):
    X=             -4.5580    Y=              9.1526    Z=             -0.0460  Tot=             10.2248
 Quadrupole moment (field-independent basis, Debye-Ang):
   XX=           -101.6865   YY=           -109.1174   ZZ=           -101.2111
   XY=              3.8289   XZ=             -0.7796   YZ=              0.1914

 Normal termination of Gaussian 16 at Thu May  6 17:53:31 2021.
