 Gaussian 16, Revision A.03,
 Gaussian 16:  EM64L-G16RevA.03 25-Dec-2016

 -------------
 #p 6-31g* mp2
 -------------

 ------------------------------------------------------
 Input file generated by CHIRIPA (05-May-2021 14:53:14)
 ------------------------------------------------------
 Symbolic Z-matrix:
 Charge =  0 Multiplicity = 1

                         Standard orientation:
 ---------------------------------------------------------------------
 Center     Atomic      Atomic             Coordinates (Angstroms)
 Number     Number       Type             X           Y           Z
 ---------------------------------------------------------------------
      1          6           0        3.368525    0.687704    0.889063
      2          6           0        1.971713    1.254606    1.145043
      3          6           0        1.943530    2.259373    2.297190
      4          1           0        3.735796    0.206735    1.805974
      5          1           0        4.058352    1.515061    0.672234
      6          1           0        1.284431    0.426313    1.359963
      7          1           0        1.607646    1.734113    0.227360
      8          1           0        2.606768    3.104773    2.087393
      9          1           0        2.281717    1.789542    3.226431
     10          1           0        0.935444    2.652015    2.462888
     11          6           0        3.412891   -0.318217   -0.259798
     12          6           0        4.809702   -0.885119   -0.515779
     13          6           0        4.837886   -1.889886   -1.667926
     14          1           0        2.723064   -1.145573   -0.042970
     15          1           0        3.045619    0.162752   -1.176709
     16          1           0        5.173770   -1.364626    0.401905
     17          1           0        5.496984   -0.056826   -0.730699
     18          1           0        4.499699   -1.420055   -2.597167
     19          1           0        4.174648   -2.735286   -1.458128
     20          1           0        5.845972   -2.282528   -1.833623
     21          6           0       -2.007127    1.623342   -1.927849
     22          6           0       -3.356230    1.368638   -1.660329
     23          6           0       -3.723481    0.391532   -0.730307
     24          6           0       -2.711044   -0.315223   -0.083192
     25          6           0       -1.358223   -0.084573   -0.328074
     26          6           0       -1.014180    0.897203   -1.262041
     27          1           0       -1.730851    2.384195   -2.651846
     28          1           0       -4.129506    1.931020   -2.175901
     29          1           0       -4.760257    0.173950   -0.504093
     30          1           0       -0.609934   -0.661473    0.201708
     31          1           0        0.034354    1.092872   -1.467798
     32          7           0       -3.087551   -1.352114    0.903469
     33          8           0       -2.176553   -1.961014    1.460210
     34          8           0       -4.286526   -1.536294    1.101390
 ---------------------------------------------------------------------

 SCF Done:  E(RHF) =  -669.534833379     A.U. after   15 cycles
 E2 =    -0.2092655198D+01 EUMP2 =    -0.67162748857743D+03

 The electronic state is 1-A.
 Alpha  occ. eigenvalues --  -20.60731 -20.60725 -15.85781 -11.31113 -11.27688
 Alpha  occ. eigenvalues --  -11.27647 -11.27421 -11.26705 -11.26639 -11.22340
 Alpha  occ. eigenvalues --  -11.22090 -11.22032 -11.21943 -11.21527 -11.21438
 Alpha  occ. eigenvalues --   -1.59805  -1.39360  -1.19286  -1.09036  -1.08689
 Alpha  occ. eigenvalues --   -1.04689  -1.04054  -0.96478  -0.95529  -0.87498
 Alpha  occ. eigenvalues --   -0.86088  -0.82376  -0.80171  -0.78908  -0.77375
 Alpha  occ. eigenvalues --   -0.72002  -0.71127  -0.70405  -0.65709  -0.64936
 Alpha  occ. eigenvalues --   -0.64667  -0.62069  -0.61446  -0.59834  -0.58106
 Alpha  occ. eigenvalues --   -0.55753  -0.55199  -0.53170  -0.53018  -0.52891
 Alpha  occ. eigenvalues --   -0.52809  -0.50410  -0.48765  -0.48760  -0.48436
 Alpha  occ. eigenvalues --   -0.47170  -0.46381  -0.46304  -0.44772  -0.44326
 Alpha  occ. eigenvalues --   -0.37273  -0.36255
 Alpha virt. eigenvalues --    0.05100   0.11306   0.16546   0.19601   0.22852
 Alpha virt. eigenvalues --    0.23857   0.24093   0.24884   0.27503   0.28455
 Alpha virt. eigenvalues --    0.29801   0.30619   0.31441   0.31560   0.31934

 Mulliken charges:
               1
     1  C   -0.297859
     2  C   -0.306647
     3  C   -0.475480
     4  H    0.154866
     5  H    0.150792
     6  H    0.154626
     7  H    0.144325
     8  H    0.155425
     9  H    0.159917
    10  H    0.163287
    11  C   -0.300987
    12  C   -0.299846
    13  C   -0.476470
    14  H    0.150772
    15  H    0.142516
    16  H    0.155482
    17  H    0.152686
    18  H    0.153609
    19  H    0.157622
    20  H    0.162406
    21  C   -0.171913
    22  C   -0.218529
    23  C   -0.171027
    24  C    0.158749
    25  C   -0.173945
    26  C   -0.220321
    27  H    0.225157
    28  H    0.223023
    29  H    0.275235
    30  H    0.278430
    31  H    0.227729
    32  N    0.488069
    33  O   -0.461143
    34  O   -0.460555
 Sum of Mulliken charges =  -0.00000

 Dipole moment (field-independent basis, Debye):
    X=              1.4978    Y=              3.6391    Z=             -3.3567  Tot=              5.1724
 Quadrupole moment (field-independent basis, Debye-Ang):
   XX=            -96.7265   YY=            -97.4849   ZZ=            -94.7646
   XY=            -11.4133   XZ=             10.6250   YZ=             -0.4072

 Normal termination of Gaussian 16 at Thu May  6 20:19:23 2021.
