 Gaussian 16, Revision A.03,
 Gaussian 16:  EM64L-G16RevA.03 25-Dec-2016

 -------------
 #p 6-31g* mp2
 -------------

 ------------------------------------------------------
 Input file generated by CHIRIPA (05-May-2021 14:51:13)
 ------------------------------------------------------
 Symbolic Z-matrix:
 Charge =  0 Multiplicity = 1

                         Standard orientation:
 ---------------------------------------------------------------------
 Center     Atomic      Atomic             Coordinates (Angstroms)
 Number     Number       Type             X           Y           Z
 ---------------------------------------------------------------------
      1          6           0        3.269636    0.538666   -0.022652
      2          6           0        3.371996    2.056259   -0.178916
      3          6           0        2.019471    2.756802   -0.045831
      4          1           0        2.575230    0.144744   -0.777351
      5          1           0        2.830426    0.306778    0.957510
      6          1           0        3.812161    2.285187   -1.157927
      7          1           0        4.066386    2.446591    0.576119
      8          1           0        1.577411    2.557653    0.935761
      9          1           0        1.321741    2.395331   -0.808138
     10          1           0        2.115837    3.840933   -0.160870
     11          6           0        4.613592   -0.175807   -0.153184
     12          6           0        4.511233   -1.693401    0.003080
     13          6           0        5.863757   -2.393943   -0.130005
     14          1           0        5.052803    0.056081   -1.133346
     15          1           0        5.307998    0.218115    0.601515
     16          1           0        3.816842   -2.083733   -0.751955
     17          1           0        4.071068   -1.922328    0.982091
     18          1           0        6.561487   -2.032472    0.632303
     19          1           0        6.305817   -2.194794   -1.111597
     20          1           0        5.767392   -3.478074   -0.014966
     21          6           0       -3.323099    0.261192    0.017501
     22          6           0       -2.059333   -0.364319    0.608783
     23          6           0       -0.830386    0.533129    0.460224
     24          1           0       -3.153385    0.479914   -1.045656
     25          1           0       -3.510814    1.225866    0.508989
     26          1           0       -1.874832   -1.328173    0.117295
     27          1           0       -2.232141   -0.581753    1.670610
     28          1           0       -0.989367    1.490913    0.966166
     29          1           0       -0.630027    0.740253   -0.595975
     30          1           0        0.061698    0.066585    0.889620
     31          6           0       -4.560129   -0.624050    0.158335
     32          6           0       -5.823896    0.001460   -0.432947
     33          6           0       -7.052842   -0.895988   -0.284389
     34          1           0       -4.372414   -1.588725   -0.333153
     35          1           0       -4.729843   -0.842773    1.221492
     36          1           0       -5.651087    0.218895   -1.494774
     37          1           0       -6.008396    0.965314    0.058542
     38          1           0       -7.253200   -1.103112    0.771811
     39          1           0       -6.893862   -1.853771   -0.790330
     40          1           0       -7.944928   -0.429443   -0.713785
 ---------------------------------------------------------------------

 SCF Done:  E(RHF) =  -470.732475669     A.U. after   11 cycles
 E2 =    -0.1583337330D+01 EUMP2 =    -0.47231581299864D+03

 The electronic state is 1-A.
 Alpha  occ. eigenvalues --  -11.21589 -11.21580 -11.21525 -11.21521 -11.21370
 Alpha  occ. eigenvalues --  -11.21367 -11.21310 -11.21304 -11.21061 -11.21056
 Alpha  occ. eigenvalues --  -11.20952 -11.20893  -1.08407  -1.08373  -1.03529
 Alpha  occ. eigenvalues --   -1.03431  -0.95995  -0.95862  -0.87047  -0.86852
 Alpha  occ. eigenvalues --   -0.79712  -0.79397  -0.78254  -0.78135  -0.65054
 Alpha  occ. eigenvalues --   -0.64994  -0.60970  -0.60798  -0.59433  -0.59168
 Alpha  occ. eigenvalues --   -0.57687  -0.57414  -0.55340  -0.55100  -0.52743
 Alpha  occ. eigenvalues --   -0.52649  -0.52530  -0.52051  -0.50019  -0.49731
 Alpha  occ. eigenvalues --   -0.48020  -0.47666  -0.46706  -0.46453  -0.45837
 Alpha  occ. eigenvalues --   -0.45710  -0.45660  -0.45582  -0.43746  -0.43662
 Alpha virt. eigenvalues --    0.21921   0.23063   0.23576   0.24849   0.25719
 Alpha virt. eigenvalues --    0.26513   0.26686   0.27359   0.27917   0.29498
 Alpha virt. eigenvalues --    0.29760   0.30700   0.31607   0.32020   0.32385

 Mulliken charges:
               1
     1  C   -0.299699
     2  C   -0.299982
     3  C   -0.477169
     4  H    0.150898
     5  H    0.149844
     6  H    0.151221
     7  H    0.151217
     8  H    0.157570
     9  H    0.158557
    10  H    0.158488
    11  C   -0.298097
    12  C   -0.299587
    13  C   -0.475652
    14  H    0.149426
    15  H    0.149512
    16  H    0.151820
    17  H    0.151591
    18  H    0.155176
    19  H    0.155168
    20  H    0.160155
    21  C   -0.298280
    22  C   -0.301551
    23  C   -0.475978
    24  H    0.149250
    25  H    0.149483
    26  H    0.151373
    27  H    0.151258
    28  H    0.155577
    29  H    0.154478
    30  H    0.164192
    31  C   -0.298116
    32  C   -0.299576
    33  C   -0.475672
    34  H    0.149388
    35  H    0.149552
    36  H    0.151832
    37  H    0.151903
    38  H    0.155139
    39  H    0.155119
    40  H    0.160172
 Sum of Mulliken charges =  -0.00000

 Dipole moment (field-independent basis, Debye):
    X=              0.0033    Y=              0.0107    Z=              0.0031  Tot=              0.0116
 Quadrupole moment (field-independent basis, Debye-Ang):
   XX=            -86.7688   YY=            -85.4004   ZZ=            -82.9207
   XY=             -0.0793   XZ=              0.0618   YZ=              0.4919

 Normal termination of Gaussian 16 at Wed May  5 15:19:42 2021.
