 Gaussian 16, Revision A.03,
 Gaussian 16:  EM64L-G16RevA.03 25-Dec-2016

 -------------
 #p 6-31g* mp2
 -------------

 ------------------------------------------------------
 Input file generated by CHIRIPA (05-May-2021 14:57:27)
 ------------------------------------------------------
 Symbolic Z-matrix:
 Charge =  0 Multiplicity = 1

                         Standard orientation:
 ---------------------------------------------------------------------
 Center     Atomic      Atomic             Coordinates (Angstroms)
 Number     Number       Type             X           Y           Z
 ---------------------------------------------------------------------
      1          6           0       -5.304532    1.606404   -0.553314
      2          6           0       -3.935102    1.888015   -0.596647
      3          6           0       -2.994963    0.876211   -0.379991
      4          6           0       -3.461470   -0.411751   -0.121503
      5          6           0       -4.819201   -0.723821   -0.071820
      6          6           0       -5.741441    0.303682   -0.291500
      7          1           0       -6.027903    2.398496   -0.722792
      8          1           0       -3.592907    2.898804   -0.799756
      9          1           0       -1.928914    1.066434   -0.407795
     10          1           0       -5.129907   -1.741145    0.132953
     11          1           0       -6.804342    0.082067   -0.257245
     12          7           0       -2.475661   -1.491212    0.109462
     13          8           0       -2.912329   -2.617702    0.335245
     14          8           0       -1.284983   -1.190364    0.060335
     15          6           0        1.716793    1.217455    1.486674
     16          6           0        2.596137    2.058174    0.796409
     17          6           0        3.656330    1.524204    0.057887
     18          6           0        3.808319    0.138750    0.031269
     19          6           0        2.948937   -0.725089    0.708422
     20          6           0        1.895685   -0.169049    1.440560
     21          1           0        0.895905    1.640828    2.057897
     22          1           0        2.459635    3.135325    0.830435
     23          1           0        4.351851    2.151933   -0.485826
     24          1           0        3.110586   -1.794904    0.655666
     25          1           0        1.214322   -0.824386    1.975651
     26          7           0        4.927025   -0.438223   -0.747191
     27          8           0        5.039332   -1.662137   -0.754739
     28          8           0        5.670376    0.344387   -1.335060
 ---------------------------------------------------------------------

 SCF Done:  E(RHF) =  -868.338791375     A.U. after   16 cycles
 E2 =    -0.2599234762D+01 EUMP2 =    -0.87093802613677D+03

 The electronic state is 1-A.
 Alpha  occ. eigenvalues --  -20.61518 -20.61477 -20.60182 -20.60163 -15.86537
 Alpha  occ. eigenvalues --  -15.85220 -11.31799 -11.30494 -11.28372 -11.28332
 Alpha  occ. eigenvalues --  -11.28062 -11.27353 -11.27316 -11.27085 -11.26911
 Alpha  occ. eigenvalues --  -11.26786 -11.26170 -11.25883  -1.60573  -1.59251
 Alpha  occ. eigenvalues --   -1.40129  -1.38806  -1.19960  -1.18639  -1.09372
 Alpha  occ. eigenvalues --   -1.08070  -1.05346  -1.04004  -0.96225  -0.94924
 Alpha  occ. eigenvalues --   -0.86747  -0.85421  -0.83058  -0.81741  -0.78123
 Alpha  occ. eigenvalues --   -0.76790  -0.72763  -0.71891  -0.71444  -0.71058
 Alpha  occ. eigenvalues --   -0.70569  -0.69791  -0.65613  -0.65344  -0.64293
 Alpha  occ. eigenvalues --   -0.63996  -0.62694  -0.61342  -0.55839  -0.54577
 Alpha  occ. eigenvalues --   -0.53682  -0.53433  -0.52358  -0.52090  -0.49526
 Alpha  occ. eigenvalues --   -0.49506  -0.48204  -0.48192  -0.45556  -0.44232
 Alpha  occ. eigenvalues --   -0.37929  -0.36948  -0.36649  -0.35564
 Alpha virt. eigenvalues --    0.04386   0.05698   0.10707   0.12055   0.15903
 Alpha virt. eigenvalues --    0.17193   0.20818   0.22134   0.26702   0.27577
 Alpha virt. eigenvalues --    0.28219   0.28929   0.30515   0.31518   0.32215

 Mulliken charges:
               1
     1  C   -0.170213
     2  C   -0.218462
     3  C   -0.173105
     4  C    0.157896
     5  C   -0.170471
     6  C   -0.218393
     7  H    0.227444
     8  H    0.223747
     9  H    0.274267
    10  H    0.276929
    11  H    0.225489
    12  N    0.489458
    13  O   -0.457306
    14  O   -0.466722
    15  C   -0.175851
    16  C   -0.219825
    17  C   -0.173343
    18  C    0.158238
    19  C   -0.171089
    20  C   -0.205222
    21  H    0.219823
    22  H    0.217487
    23  H    0.272219
    24  H    0.277723
    25  H    0.234467
    26  N    0.488028
    27  O   -0.459558
    28  O   -0.463655
 Sum of Mulliken charges =  -0.00000

 Dipole moment (field-independent basis, Debye):
    X=             -7.7585    Y=              5.5957    Z=              1.9566  Tot=              9.7639
 Quadrupole moment (field-independent basis, Debye-Ang):
   XX=           -108.4413   YY=           -101.6224   ZZ=           -105.6208
   XY=             -0.9599   XZ=             12.8786   YZ=             -1.8368

 Normal termination of Gaussian 16 at Fri May  7 06:38:58 2021.
