 Gaussian 16, Revision A.03,
 Gaussian 16:  EM64L-G16RevA.03 25-Dec-2016

 -------------
 #p 6-31g* mp2
 -------------

 ------------------------------------------------------
 Input file generated by CHIRIPA (05-May-2021 14:55:24)
 ------------------------------------------------------
 Symbolic Z-matrix:
 Charge =  0 Multiplicity = 1

                         Standard orientation:
 ---------------------------------------------------------------------
 Center     Atomic      Atomic             Coordinates (Angstroms)
 Number     Number       Type             X           Y           Z
 ---------------------------------------------------------------------
      1          6           0       -1.169332    0.204057    2.498505
      2          6           0       -2.304461    0.904460    2.077268
      3          6           0       -2.863352    0.660060    0.819311
      4          6           0       -2.258662   -0.295891    0.004572
      5          6           0       -1.127221   -1.010089    0.395790
      6          6           0       -0.585365   -0.749301    1.657903
      7          1           0       -0.741789    0.400278    3.477331
      8          1           0       -2.760092    1.645415    2.727984
      9          1           0       -3.741702    1.187845    0.468082
     10          1           0       -0.695311   -1.742768   -0.275070
     11          1           0        0.296236   -1.294757    1.982408
     12          7           0       -2.841318   -0.563301   -1.329371
     13          8           0       -2.289771   -1.410511   -2.028419
     14          8           0       -3.838519    0.079377   -1.650610
     15          6           0        2.942390    1.028976   -0.519056
     16          6           0        1.795277    2.024681   -0.343874
     17          6           0        2.159113    3.434012   -0.812066
     18          1           0        3.818755    1.387214    0.038252
     19          1           0        3.235439    1.000433   -1.577688
     20          1           0        1.503556    2.050311    0.713887
     21          1           0        0.921480    1.663933   -0.901507
     22          1           0        2.429951    3.429638   -1.872834
     23          1           0        3.015334    3.818212   -0.248261
     24          1           0        1.324811    4.129549   -0.677804
     25          6           0        2.593953   -0.384320   -0.055465
     26          6           0        3.741065   -1.380025   -0.230646
     27          6           0        3.377230   -2.789356    0.237547
     28          1           0        2.300903   -0.355778    1.003168
     29          1           0        1.717587   -0.742559   -0.612772
     30          1           0        4.614862   -1.019277    0.326987
     31          1           0        4.032787   -1.405656   -1.288407
     32          1           0        2.521008   -3.173557   -0.326259
     33          1           0        3.106391   -2.784983    1.298314
     34          1           0        4.211532   -3.484894    0.103284
 ---------------------------------------------------------------------

 SCF Done:  E(RHF) =  -669.534210149     A.U. after   15 cycles
 E2 =    -0.2094317553D+01 EUMP2 =    -0.67162852770216D+03

 The electronic state is 1-A.
 Alpha  occ. eigenvalues --  -20.60778 -20.60771 -15.85829 -11.31178 -11.27715
 Alpha  occ. eigenvalues --  -11.27706 -11.27458 -11.26752 -11.26694 -11.22109
 Alpha  occ. eigenvalues --  -11.21943 -11.21817 -11.21748 -11.21720 -11.21244
 Alpha  occ. eigenvalues --   -1.59853  -1.39407  -1.19336  -1.08886  -1.08729
 Alpha  occ. eigenvalues --   -1.04733  -1.03936  -0.96413  -0.95578  -0.87428
 Alpha  occ. eigenvalues --   -0.86141  -0.82424  -0.80011  -0.78747  -0.77413
 Alpha  occ. eigenvalues --   -0.72048  -0.71177  -0.70452  -0.65574  -0.64985
 Alpha  occ. eigenvalues --   -0.64691  -0.62106  -0.61325  -0.59778  -0.58020
 Alpha  occ. eigenvalues --   -0.55718  -0.55244  -0.53253  -0.52949  -0.52898
 Alpha  occ. eigenvalues --   -0.52760  -0.50352  -0.48809  -0.48805  -0.48317
 Alpha  occ. eigenvalues --   -0.47031  -0.46194  -0.46135  -0.44814  -0.44197
 Alpha  occ. eigenvalues --   -0.37301  -0.36229
 Alpha virt. eigenvalues --    0.05047   0.11193   0.16511   0.19714   0.22867
 Alpha virt. eigenvalues --    0.23624   0.24689   0.26107   0.27542   0.28489
 Alpha virt. eigenvalues --    0.29417   0.29795   0.31356   0.31517   0.32067

 Mulliken charges:
               1
     1  C   -0.173271
     2  C   -0.217712
     3  C   -0.171592
     4  C    0.157999
     5  C   -0.171627
     6  C   -0.212419
     7  H    0.225043
     8  H    0.223218
     9  H    0.275303
    10  H    0.274907
    11  H    0.226235
    12  N    0.487927
    13  O   -0.461047
    14  O   -0.460260
    15  C   -0.298499
    16  C   -0.300011
    17  C   -0.476186
    18  H    0.149105
    19  H    0.153129
    20  H    0.148709
    21  H    0.155847
    22  H    0.157524
    23  H    0.153793
    24  H    0.160747
    25  C   -0.300848
    26  C   -0.299421
    27  C   -0.477899
    28  H    0.141331
    29  H    0.151584
    30  H    0.152867
    31  H    0.156631
    32  H    0.155085
    33  H    0.148416
    34  H    0.165394
 Sum of Mulliken charges =  -0.00000

 Dipole moment (field-independent basis, Debye):
    X=              2.1159    Y=              0.9660    Z=              4.6141  Tot=              5.1672
 Quadrupole moment (field-independent basis, Debye-Ang):
   XX=           -101.6416   YY=            -94.5121   ZZ=            -94.4052
   XY=             -5.7244   XZ=            -11.3504   YZ=             -0.1408

 Normal termination of Gaussian 16 at Thu May  6 12:40:07 2021.
