 Gaussian 16, Revision A.03,
 Gaussian 16:  EM64L-G16RevA.03 25-Dec-2016

 -------------
 #p 6-31g* mp2
 -------------

 ------------------------------------------------------
 Input file generated by CHIRIPA (05-May-2021 14:55:24)
 ------------------------------------------------------
 Symbolic Z-matrix:
 Charge =  0 Multiplicity = 1

                         Standard orientation:
 ---------------------------------------------------------------------
 Center     Atomic      Atomic             Coordinates (Angstroms)
 Number     Number       Type             X           Y           Z
 ---------------------------------------------------------------------
      1          6           0       -5.318480    1.673563    0.031996
      2          6           0       -5.331697    0.555976    0.873033
      3          6           0       -4.257513   -0.338788    0.881775
      4          6           0       -3.181534   -0.084205    0.032807
      5          6           0       -3.138889    1.020357   -0.816554
      6          6           0       -4.224048    1.901785   -0.808631
      7          1           0       -6.157195    2.363457    0.031678
      8          1           0       -6.180312    0.376220    1.526933
      9          1           0       -4.241735   -1.211856    1.522807
     10          1           0       -2.278883    1.173038   -1.457253
     11          1           0       -4.211058    2.768893   -1.462848
     12          7           0       -2.038535   -1.024393    0.033240
     13          8           0       -1.102470   -0.777725   -0.724107
     14          8           0       -2.100360   -1.990176    0.790919
     15          6           0        3.927256   -0.730289    0.116208
     16          6           0        2.764528   -0.989216   -0.842439
     17          6           0        2.001498   -2.272646   -0.513213
     18          1           0        4.615896   -1.585773    0.086757
     19          1           0        3.541082   -0.675113    1.143448
     20          1           0        3.152594   -1.042511   -1.867710
     21          1           0        2.078675   -0.132933   -0.810844
     22          1           0        1.587175   -2.225591    0.499074
     23          1           0        2.667196   -3.140337   -0.563797
     24          1           0        1.174632   -2.438291   -1.210861
     25          6           0        4.699726    0.549173   -0.200011
     26          6           0        5.862454    0.808100    0.758636
     27          6           0        6.625483    2.091529    0.429411
     28          1           0        5.085898    0.493996   -1.227250
     29          1           0        4.011085    1.404656   -0.170559
     30          1           0        6.548307   -0.048185    0.727042
     31          1           0        5.474388    0.861394    1.783907
     32          1           0        5.959786    2.959221    0.479995
     33          1           0        7.039807    2.044474   -0.582875
     34          1           0        7.452349    2.257175    1.127059
 ---------------------------------------------------------------------

 SCF Done:  E(RHF) =  -669.535891326     A.U. after   15 cycles
 E2 =    -0.2091427307D+01 EUMP2 =    -0.67162731863300D+03

 The electronic state is 1-A.
 Alpha  occ. eigenvalues --  -20.60982 -20.60976 -15.86010 -11.31325 -11.27887
 Alpha  occ. eigenvalues --  -11.27883 -11.27622 -11.26891 -11.26882 -11.20954
 Alpha  occ. eigenvalues --  -11.20574 -11.20555 -11.20253 -11.20054 -11.18997
 Alpha  occ. eigenvalues --   -1.60038  -1.39595  -1.19492  -1.08898  -1.07413
 Alpha  occ. eigenvalues --   -1.04887  -1.02372  -0.95745  -0.94799  -0.86288
 Alpha  occ. eigenvalues --   -0.85826  -0.82573  -0.78517  -0.77629  -0.77147
 Alpha  occ. eigenvalues --   -0.72233  -0.71353  -0.70600  -0.65149  -0.64890
 Alpha  occ. eigenvalues --   -0.64057  -0.62234  -0.59776  -0.58285  -0.56382
 Alpha  occ. eigenvalues --   -0.55391  -0.54119  -0.53219  -0.52978  -0.51490
 Alpha  occ. eigenvalues --   -0.51249  -0.49083  -0.48982  -0.48588  -0.46786
 Alpha  occ. eigenvalues --   -0.45584  -0.45024  -0.44682  -0.44567  -0.42604
 Alpha  occ. eigenvalues --   -0.37471  -0.36488
 Alpha virt. eigenvalues --    0.04886   0.11167   0.16379   0.21295   0.23775
 Alpha virt. eigenvalues --    0.25544   0.27219   0.27569   0.28142   0.28483
 Alpha virt. eigenvalues --    0.29254   0.30877   0.32297   0.32532   0.32687

 Mulliken charges:
               1
     1  C   -0.170559
     2  C   -0.218584
     3  C   -0.170626
     4  C    0.157730
     5  C   -0.170907
     6  C   -0.218539
     7  H    0.226109
     8  H    0.223929
     9  H    0.275951
    10  H    0.275756
    11  H    0.223952
    12  N    0.489726
    13  O   -0.459998
    14  O   -0.458629
    15  C   -0.297474
    16  C   -0.300678
    17  C   -0.468887
    18  H    0.146617
    19  H    0.148205
    20  H    0.144251
    21  H    0.156561
    22  H    0.158517
    23  H    0.140684
    24  H    0.175218
    25  C   -0.296889
    26  C   -0.298725
    27  C   -0.474977
    28  H    0.147406
    29  H    0.147112
    30  H    0.151120
    31  H    0.150889
    32  H    0.153459
    33  H    0.154141
    34  H    0.158140
 Sum of Mulliken charges =  -0.00000

 Dipole moment (field-independent basis, Debye):
    X=             -4.4732    Y=              3.2826    Z=             -0.0046  Tot=              5.5484
 Quadrupole moment (field-independent basis, Debye-Ang):
   XX=            -70.1395   YY=            -95.0388   ZZ=            -92.5247
   XY=             -9.8596   XZ=             -2.3119   YZ=             -1.8018

 Normal termination of Gaussian 16 at Thu May  6 20:52:33 2021.
