 Gaussian 16, Revision A.03,
 Gaussian 16:  EM64L-G16RevA.03 25-Dec-2016

 -------------
 #p 6-31g* mp2
 -------------

 ------------------------------------------------------
 Input file generated by CHIRIPA (05-May-2021 14:55:25)
 ------------------------------------------------------
 Symbolic Z-matrix:
 Charge =  0 Multiplicity = 1

                         Standard orientation:
 ---------------------------------------------------------------------
 Center     Atomic      Atomic             Coordinates (Angstroms)
 Number     Number       Type             X           Y           Z
 ---------------------------------------------------------------------
      1          6           0        4.206974   -1.735883    0.133775
      2          6           0        3.426225   -1.420901    1.250797
      3          6           0        2.638954   -0.265660    1.263859
      4          6           0        2.656382    0.555828    0.137740
      5          6           0        3.423609    0.269145   -0.990296
      6          6           0        4.203181   -0.891343   -0.981241
      7          1           0        4.815555   -2.635340    0.132219
      8          1           0        3.427209   -2.074937    2.118139
      9          1           0        2.025123    0.002136    2.115279
     10          1           0        3.401960    0.940560   -1.840091
     11          1           0        4.808536   -1.133452   -1.850133
     12          7           0        1.827008    1.781607    0.139861
     13          8           0        1.859812    2.488926   -0.864759
     14          8           0        1.159846    2.011843    1.146103
     15          6           0       -3.013509   -0.965005   -0.251534
     16          6           0       -1.638691   -0.330337   -0.463798
     17          6           0       -0.525453   -1.367686   -0.613481
     18          1           0       -2.981874   -1.602610    0.642561
     19          1           0       -3.239092   -1.626556   -1.099389
     20          1           0       -1.416365    0.330889    0.383532
     21          1           0       -1.673654    0.305981   -1.357382
     22          1           0       -0.720376   -2.021087   -1.470027
     23          1           0       -0.461626   -1.996038    0.280779
     24          1           0        0.448736   -0.892205   -0.764258
     25          6           0       -4.136758    0.059266   -0.100186
     26          6           0       -5.511576   -0.575403    0.112078
     27          6           0       -6.624813    0.461947    0.261761
     28          1           0       -3.911174    0.720817    0.747670
     29          1           0       -4.168392    0.696871   -0.994280
     30          1           0       -5.476612   -1.211720    1.005662
     31          1           0       -5.733901   -1.236628   -0.735252
     32          1           0       -6.688640    1.090299   -0.632498
     33          1           0       -6.429890    1.115348    1.118307
     34          1           0       -7.599002   -0.013535    0.412538
 ---------------------------------------------------------------------

 SCF Done:  E(RHF) =  -669.534817730     A.U. after   15 cycles
 E2 =    -0.2093534734D+01 EUMP2 =    -0.67162835246384D+03

 The electronic state is 1-A.
 Alpha  occ. eigenvalues --  -20.60871 -20.60864 -15.85896 -11.31197 -11.27805
 Alpha  occ. eigenvalues --  -11.27781 -11.27549 -11.26823 -11.26806 -11.21230
 Alpha  occ. eigenvalues --  -11.21005 -11.20946 -11.20878 -11.20749 -11.20712
 Alpha  occ. eigenvalues --   -1.59928  -1.39483  -1.19421  -1.08818  -1.07983
 Alpha  occ. eigenvalues --   -1.04809  -1.03123  -0.95663  -0.95597  -0.86627
 Alpha  occ. eigenvalues --   -0.86207  -0.82484  -0.79168  -0.77779  -0.77532
 Alpha  occ. eigenvalues --   -0.72122  -0.71270  -0.70517  -0.65065  -0.64813
 Alpha  occ. eigenvalues --   -0.64612  -0.62156  -0.60517  -0.59023  -0.57247
 Alpha  occ. eigenvalues --   -0.55312  -0.54909  -0.53441  -0.52899  -0.52094
 Alpha  occ. eigenvalues --   -0.51908  -0.49539  -0.48884  -0.48879  -0.47492
 Alpha  occ. eigenvalues --   -0.46200  -0.45350  -0.45286  -0.44779  -0.43376
 Alpha  occ. eigenvalues --   -0.37321  -0.36400
 Alpha virt. eigenvalues --    0.04966   0.11208   0.16436   0.21352   0.23258
 Alpha virt. eigenvalues --    0.24519   0.27033   0.27344   0.27860   0.28215
 Alpha virt. eigenvalues --    0.28348   0.30891   0.31714   0.31867   0.32236

 Mulliken charges:
               1
     1  C   -0.170717
     2  C   -0.216350
     3  C   -0.168649
     4  C    0.154436
     5  C   -0.173107
     6  C   -0.216651
     7  H    0.225974
     8  H    0.223653
     9  H    0.275244
    10  H    0.275837
    11  H    0.223816
    12  N    0.491588
    13  O   -0.459577
    14  O   -0.460549
    15  C   -0.297792
    16  C   -0.306584
    17  C   -0.478874
    18  H    0.146427
    19  H    0.146783
    20  H    0.165143
    21  H    0.155395
    22  H    0.152443
    23  H    0.149430
    24  H    0.161212
    25  C   -0.298594
    26  C   -0.299293
    27  C   -0.475539
    28  H    0.153068
    29  H    0.151010
    30  H    0.150314
    31  H    0.150350
    32  H    0.155559
    33  H    0.156048
    34  H    0.158548
 Sum of Mulliken charges =  -0.00000

 Dipole moment (field-independent basis, Debye):
    X=              3.0429    Y=             -4.2025    Z=              0.0258  Tot=              5.1886
 Quadrupole moment (field-independent basis, Debye-Ang):
   XX=            -80.3490   YY=           -100.5505   ZZ=            -89.6139
   XY=             -9.4976   XZ=             -1.1220   YZ=             -1.9316

 Normal termination of Gaussian 16 at Thu May  6 17:45:55 2021.
