 Gaussian 16, Revision A.03,
 Gaussian 16:  EM64L-G16RevA.03 25-Dec-2016

 -------------
 #p 6-31g* mp2
 -------------

 ------------------------------------------------------
 Input file generated by CHIRIPA (05-May-2021 14:55:19)
 ------------------------------------------------------
 Symbolic Z-matrix:
 Charge =  0 Multiplicity = 1

                         Standard orientation:
 ---------------------------------------------------------------------
 Center     Atomic      Atomic             Coordinates (Angstroms)
 Number     Number       Type             X           Y           Z
 ---------------------------------------------------------------------
      1          6           0        1.560706    1.025907   -0.575821
      2          6           0        1.640519   -0.359984   -0.404187
      3          6           0        2.872538   -0.976023   -0.165078
      4          6           0        4.009774   -0.172155   -0.103587
      5          6           0        3.962748    1.211043   -0.270447
      6          6           0        2.720032    1.805622   -0.508522
      7          1           0        0.599489    1.496125   -0.761164
      8          1           0        0.741820   -0.968020   -0.455938
      9          1           0        2.962997   -2.046815   -0.028549
     10          1           0        4.875991    1.790833   -0.213440
     11          1           0        2.661054    2.882145   -0.641432
     12          7           0        5.319720   -0.812969    0.149000
     13          8           0        6.306957   -0.082530    0.198599
     14          8           0        5.334414   -2.033543    0.292595
     15          6           0       -5.475604    0.048162   -0.259498
     16          6           0       -6.504534   -0.977678    0.216884
     17          6           0       -7.738100   -1.040043   -0.684348
     18          1           0       -5.948697    1.038647   -0.304970
     19          1           0       -5.169259   -0.199301   -1.285320
     20          1           0       -6.807815   -0.729153    1.242004
     21          1           0       -6.028884   -1.965802    0.261411
     22          1           0       -7.454975   -1.310550   -1.706731
     23          1           0       -8.238333   -0.066874   -0.720567
     24          1           0       -8.460546   -1.779704   -0.325417
     25          6           0       -4.236727    0.122184    0.631251
     26          6           0       -3.207796    1.148024    0.154869
     27          6           0       -1.974230    1.210388    1.056101
     28          1           0       -4.543071    0.369646    1.657072
     29          1           0       -3.763633   -0.868300    0.676723
     30          1           0       -3.683447    2.136149    0.110341
     31          1           0       -2.904515    0.899499   -0.870251
     32          1           0       -1.473997    0.237220    1.092319
     33          1           0       -2.257356    1.480896    2.078483
     34          1           0       -1.251784    1.950051    0.697170
 ---------------------------------------------------------------------

 SCF Done:  E(RHF) =  -669.535150479     A.U. after   15 cycles
 E2 =    -0.2091253989D+01 EUMP2 =    -0.67162640446864D+03

 The electronic state is 1-A.
 Alpha  occ. eigenvalues --  -20.60722 -20.60717 -15.85777 -11.31131 -11.27709
 Alpha  occ. eigenvalues --  -11.27705 -11.27401 -11.26711 -11.26700 -11.22621
 Alpha  occ. eigenvalues --  -11.22268 -11.22196 -11.22138 -11.22023 -11.21519
 Alpha  occ. eigenvalues --   -1.59799  -1.39352  -1.19305  -1.09201  -1.08696
 Alpha  occ. eigenvalues --   -1.04711  -1.04326  -0.96785  -0.95532  -0.87798
 Alpha  occ. eigenvalues --   -0.86105  -0.82372  -0.80393  -0.78969  -0.77421
 Alpha  occ. eigenvalues --   -0.71995  -0.71122  -0.70433  -0.65835  -0.64955
 Alpha  occ. eigenvalues --   -0.64721  -0.62077  -0.61702  -0.60217  -0.58391
 Alpha  occ. eigenvalues --   -0.56073  -0.55230  -0.53460  -0.53172  -0.53003
 Alpha  occ. eigenvalues --   -0.52799  -0.50704  -0.48770  -0.48750  -0.48683
 Alpha  occ. eigenvalues --   -0.47423  -0.46518  -0.46421  -0.44761  -0.44563
 Alpha  occ. eigenvalues --   -0.37259  -0.36317
 Alpha virt. eigenvalues --    0.05106   0.11288   0.16549   0.19523   0.22545
 Alpha virt. eigenvalues --    0.23986   0.25304   0.26039   0.26642   0.27251
 Alpha virt. eigenvalues --    0.29227   0.29851   0.31143   0.31408   0.32155

 Mulliken charges:
               1
     1  C   -0.170574
     2  C   -0.220620
     3  C   -0.171052
     4  C    0.158318
     5  C   -0.170671
     6  C   -0.219966
     7  H    0.230663
     8  H    0.223165
     9  H    0.275302
    10  H    0.275391
    11  H    0.223059
    12  N    0.488100
    13  O   -0.460605
    14  O   -0.460660
    15  C   -0.298788
    16  C   -0.300210
    17  C   -0.476106
    18  H    0.150957
    19  H    0.149443
    20  H    0.153145
    21  H    0.152378
    22  H    0.155528
    23  H    0.155880
    24  H    0.162008
    25  C   -0.298433
    26  C   -0.301595
    27  C   -0.479158
    28  H    0.152456
    29  H    0.149033
    30  H    0.155440
    31  H    0.148244
    32  H    0.153569
    33  H    0.162977
    34  H    0.153386
 Sum of Mulliken charges =  -0.00000

 Dipole moment (field-independent basis, Debye):
    X=             -4.8504    Y=              2.2665    Z=             -0.8296  Tot=              5.4177
 Quadrupole moment (field-independent basis, Debye-Ang):
   XX=           -131.1791   YY=            -91.1583   ZZ=            -95.3466
   XY=             11.7302   XZ=             -4.1821   YZ=              0.0799

 Normal termination of Gaussian 16 at Wed May  5 17:20:10 2021.
