 Gaussian 16, Revision A.03,
 Gaussian 16:  EM64L-G16RevA.03 25-Dec-2016

 -------------
 #p 6-31g* mp2
 -------------

 ------------------------------------------------------
 Input file generated by CHIRIPA (05-May-2021 14:51:08)
 ------------------------------------------------------
 Symbolic Z-matrix:
 Charge =  0 Multiplicity = 1

                         Standard orientation:
 ---------------------------------------------------------------------
 Center     Atomic      Atomic             Coordinates (Angstroms)
 Number     Number       Type             X           Y           Z
 ---------------------------------------------------------------------
      1          6           0       -2.813449   -0.162639   -0.093126
      2          6           0       -3.677136   -0.840942   -1.157050
      3          6           0       -3.739788   -2.359238   -0.987793
      4          1           0       -1.797914   -0.579754   -0.133743
      5          1           0       -3.211533   -0.405474    0.901840
      6          1           0       -3.278361   -0.595770   -2.149766
      7          1           0       -4.690682   -0.422028   -1.114023
      8          1           0       -4.158157   -2.620977   -0.010521
      9          1           0       -2.737812   -2.795706   -1.052149
     10          1           0       -4.362364   -2.823790   -1.758799
     11          6           0       -2.741037    1.355314   -0.249018
     12          6           0       -1.877351    2.033617    0.814907
     13          6           0       -1.814699    3.551912    0.645650
     14          1           0       -2.342954    1.598148   -1.243983
     15          1           0       -3.756572    1.772429   -0.208400
     16          1           0       -0.863804    1.614703    0.771880
     17          1           0       -2.276125    1.788445    1.807623
     18          1           0       -2.816674    3.988381    0.710006
     19          1           0       -1.396329    3.813652   -0.331622
     20          1           0       -1.192122    4.016464    1.416656
     21          6           0        3.526703   -0.483094    0.076637
     22          6           0        3.850693    0.667153   -0.877276
     23          6           0        5.354016    0.881354   -1.055964
     24          1           0        3.988541   -0.282422    1.053049
     25          1           0        3.986908   -1.405816   -0.303087
     26          1           0        3.388853    1.587153   -0.496594
     27          1           0        3.387869    0.463811   -1.851475
     28          1           0        5.826557   -0.020655   -1.458066
     29          1           0        5.827546    1.109070   -0.095486
     30          1           0        5.562988    1.708322   -1.741760
     31          6           0        2.027783   -0.709581    0.265506
     32          6           0        1.703793   -1.859827    1.219419
     33          6           0        0.200470   -2.074029    1.398107
     34          1           0        1.567579    0.213141    0.645230
     35          1           0        1.565946   -0.910253   -0.710906
     36          1           0        2.166617   -1.656486    2.193618
     37          1           0        2.165634   -2.779828    0.838737
     38          1           0       -0.273060   -2.301745    0.437630
     39          1           0       -0.272070   -1.172020    1.800209
     40          1           0       -0.008502   -2.900996    2.083903
 ---------------------------------------------------------------------

 SCF Done:  E(RHF) =  -470.732249128     A.U. after   11 cycles
 E2 =    -0.1584389688D+01 EUMP2 =    -0.47231663881650D+03

 The electronic state is 1-A.
 Alpha  occ. eigenvalues --  -11.21645 -11.21629 -11.21584 -11.21522 -11.21473
 Alpha  occ. eigenvalues --  -11.21408 -11.21309 -11.21169 -11.21103 -11.21063
 Alpha  occ. eigenvalues --  -11.21038 -11.21028  -1.08490  -1.08350  -1.03570
 Alpha  occ. eigenvalues --   -1.03482  -0.96033  -0.95913  -0.87060  -0.86925
 Alpha  occ. eigenvalues --   -0.79689  -0.79530  -0.78404  -0.78043  -0.65115
 Alpha  occ. eigenvalues --   -0.65001  -0.61029  -0.60829  -0.59389  -0.59299
 Alpha  occ. eigenvalues --   -0.57729  -0.57464  -0.55306  -0.55212  -0.52702
 Alpha  occ. eigenvalues --   -0.52673  -0.52560  -0.52240  -0.49968  -0.49865
 Alpha  occ. eigenvalues --   -0.48135  -0.47837  -0.46781  -0.46488  -0.46163
 Alpha  occ. eigenvalues --   -0.45731  -0.45645  -0.45071  -0.43823  -0.43715
 Alpha virt. eigenvalues --    0.20749   0.22655   0.23349   0.24096   0.25911
 Alpha virt. eigenvalues --    0.26201   0.26859   0.27364   0.27766   0.30038
 Alpha virt. eigenvalues --    0.30524   0.31065   0.31809   0.31937   0.32291

 Mulliken charges:
               1
     1  C   -0.305481
     2  C   -0.299521
     3  C   -0.476707
     4  H    0.160747
     5  H    0.148372
     6  H    0.151029
     7  H    0.151384
     8  H    0.155573
     9  H    0.155403
    10  H    0.159913
    11  C   -0.297177
    12  C   -0.305111
    13  C   -0.475459
    14  H    0.149015
    15  H    0.149034
    16  H    0.155831
    17  H    0.151478
    18  H    0.155379
    19  H    0.155334
    20  H    0.159676
    21  C   -0.297983
    22  C   -0.299766
    23  C   -0.475745
    24  H    0.149992
    25  H    0.149871
    26  H    0.151971
    27  H    0.151800
    28  H    0.155269
    29  H    0.155322
    30  H    0.160403
    31  C   -0.302897
    32  C   -0.299710
    33  C   -0.481112
    34  H    0.152928
    35  H    0.148854
    36  H    0.152043
    37  H    0.151888
    38  H    0.157240
    39  H    0.160396
    40  H    0.160527
 Sum of Mulliken charges =  -0.00000

 Dipole moment (field-independent basis, Debye):
    X=              0.0423    Y=             -0.0248    Z=              0.0243  Tot=              0.0547
 Quadrupole moment (field-independent basis, Debye-Ang):
   XX=            -85.3618   YY=            -85.7134   ZZ=            -83.8570
   XY=             -0.4915   XZ=             -0.3098   YZ=              0.5913

 Normal termination of Gaussian 16 at Wed May  5 19:40:35 2021.
