 Gaussian 16, Revision A.03,
 Gaussian 16:  EM64L-G16RevA.03 25-Dec-2016

 -------------
 #p 6-31g* mp2
 -------------

 ------------------------------------------------------
 Input file generated by CHIRIPA (05-May-2021 14:57:22)
 ------------------------------------------------------
 Symbolic Z-matrix:
 Charge =  0 Multiplicity = 1

                         Standard orientation:
 ---------------------------------------------------------------------
 Center     Atomic      Atomic             Coordinates (Angstroms)
 Number     Number       Type             X           Y           Z
 ---------------------------------------------------------------------
      1          6           0       -1.043845    1.735589   -0.775359
      2          6           0       -0.744401    0.388202   -0.548639
      3          6           0       -1.762130   -0.527250   -0.264516
      4          6           0       -3.074136   -0.058801   -0.214671
      5          6           0       -3.404383    1.277337   -0.435951
      6          6           0       -2.370541    2.175081   -0.718392
      7          1           0       -0.246990    2.439856   -0.995419
      8          1           0        0.285021    0.044059   -0.592241
      9          1           0       -1.558462   -1.575909   -0.084931
     10          1           0       -4.440125    1.590601   -0.385749
     11          1           0       -2.606043    3.220898   -0.894039
     12          7           0       -4.160089   -1.018575    0.085226
     13          8           0       -5.307894   -0.580717    0.123451
     14          8           0       -3.842891   -2.190532    0.276383
     15          6           0        1.914299    0.723837    2.438069
     16          6           0        2.188324   -0.636792    2.264525
     17          6           0        2.731822   -1.104145    1.064218
     18          6           0        2.989984   -0.178968    0.053927
     19          6           0        2.727991    1.182767    0.196502
     20          6           0        2.184530    1.627682    1.405324
     21          1           0        1.492111    1.078173    3.373803
     22          1           0        1.979482   -1.341010    3.064843
     23          1           0        2.953692   -2.152113    0.903105
     24          1           0        2.946970    1.860737   -0.619478
     25          1           0        1.972739    2.684929    1.537294
     26          7           0        3.565342   -0.661856   -1.221292
     27          8           0        3.783668    0.173514   -2.096008
     28          8           0        3.787086   -1.866570   -1.321946
 ---------------------------------------------------------------------

 SCF Done:  E(RHF) =  -868.336244244     A.U. after   16 cycles
 E2 =    -0.2603704885D+01 EUMP2 =    -0.87093994912915D+03

 The electronic state is 1-A.
 Alpha  occ. eigenvalues --  -20.61750 -20.61735 -20.60868 -20.60863 -15.86806
 Alpha  occ. eigenvalues --  -15.85917 -11.32320 -11.31264 -11.28895 -11.28847
 Alpha  occ. eigenvalues --  -11.28537 -11.27904 -11.27831 -11.27820 -11.27757
 Alpha  occ. eigenvalues --  -11.27556 -11.26878 -11.26669  -1.60829  -1.59944
 Alpha  occ. eigenvalues --   -1.40372  -1.39498  -1.20533  -1.19417  -1.09837
 Alpha  occ. eigenvalues --   -1.08829  -1.05910  -1.04805  -0.96651  -0.95670
 Alpha  occ. eigenvalues --   -0.87267  -0.86218  -0.83465  -0.82495  -0.78517
 Alpha  occ. eigenvalues --   -0.77552  -0.72998  -0.72209  -0.72126  -0.71510
 Alpha  occ. eigenvalues --   -0.71267  -0.70561  -0.66109  -0.65838  -0.65067
 Alpha  occ. eigenvalues --   -0.64880  -0.63218  -0.62217  -0.56296  -0.55386
 Alpha  occ. eigenvalues --   -0.54455  -0.53938  -0.53134  -0.52553  -0.49778
 Alpha  occ. eigenvalues --   -0.49755  -0.48894  -0.48885  -0.45731  -0.44907
 Alpha  occ. eigenvalues --   -0.38525  -0.37763  -0.37156  -0.36346
 Alpha virt. eigenvalues --    0.03962   0.04961   0.10037   0.11290   0.15392
 Alpha virt. eigenvalues --    0.16499   0.20007   0.21617   0.25613   0.27204
 Alpha virt. eigenvalues --    0.27295   0.28939   0.30013   0.31031   0.31931

 Mulliken charges:
               1
     1  C   -0.175545
     2  C   -0.215352
     3  C   -0.176453
     4  C    0.158902
     5  C   -0.172516
     6  C   -0.218913
     7  H    0.219289
     8  H    0.234286
     9  H    0.275043
    10  H    0.275077
    11  H    0.222142
    12  N    0.487943
    13  O   -0.460615
    14  O   -0.460623
    15  C   -0.168403
    16  C   -0.215982
    17  C   -0.176614
    18  C    0.152034
    19  C   -0.188129
    20  C   -0.211721
    21  H    0.231712
    22  H    0.230447
    23  H    0.280438
    24  H    0.275390
    25  H    0.225275
    26  N    0.488107
    27  O   -0.459258
    28  O   -0.455961
 Sum of Mulliken charges =  -0.00000

 Dipole moment (field-independent basis, Debye):
    X=              2.0467    Y=              4.9620    Z=              3.6749  Tot=              6.5050
 Quadrupole moment (field-independent basis, Debye-Ang):
   XX=           -139.2813   YY=            -99.0808   ZZ=           -103.9059
   XY=             -8.2488   XZ=             16.4883   YZ=             -3.5040

 Normal termination of Gaussian 16 at Fri May  7 00:13:41 2021.
