 Gaussian 16, Revision A.03,
 Gaussian 16:  EM64L-G16RevA.03 25-Dec-2016

 -------------
 #p 6-31g* mp2
 -------------

 ------------------------------------------------------
 Input file generated by CHIRIPA (05-May-2021 14:57:22)
 ------------------------------------------------------
 Symbolic Z-matrix:
 Charge =  0 Multiplicity = 1

                         Standard orientation:
 ---------------------------------------------------------------------
 Center     Atomic      Atomic             Coordinates (Angstroms)
 Number     Number       Type             X           Y           Z
 ---------------------------------------------------------------------
      1          6           0       -4.276989   -2.138919    0.173421
      2          6           0       -3.685617   -1.641102    1.339173
      3          6           0       -2.999691   -0.422992    1.322959
      4          6           0       -2.924254    0.274242    0.118191
      5          6           0       -3.502939   -0.195424   -1.059869
      6          6           0       -4.183927   -1.415766   -1.020275
      7          1           0       -4.807914   -3.086044    0.195097
      8          1           0       -3.756292   -2.200561    2.267643
      9          1           0       -2.532595   -0.014372    2.210804
     10          1           0       -3.415645    0.384943   -1.970349
     11          1           0       -4.642222   -1.799943   -1.927148
     12          7           0       -2.200709    1.564982    0.088651
     13          8           0       -2.148468    2.160106   -0.985470
     14          8           0       -1.699536    1.957100    1.140176
     15          6           0        2.044507    2.253911   -0.205222
     16          6           0        3.036991    1.952643    0.733252
     17          6           0        3.597608    0.673082    0.787851
     18          6           0        3.140082   -0.285358   -0.115117
     19          6           0        2.152784   -0.015920   -1.061656
     20          6           0        1.606343    1.270401   -1.098106
     21          1           0        1.614512    3.250530   -0.240587
     22          1           0        3.379215    2.714465    1.427914
     23          1           0        4.367314    0.412744    1.504227
     24          1           0        1.832078   -0.796251   -1.741104
     25          1           0        0.835709    1.501528   -1.828003
     26          7           0        3.726078   -1.643551   -0.066923
     27          8           0        3.305740   -2.470286   -0.873434
     28          8           0        4.594623   -1.855649    0.776453
 ---------------------------------------------------------------------

 SCF Done:  E(RHF) =  -868.340497141     A.U. after   16 cycles
 E2 =    -0.2598954759D+01 EUMP2 =    -0.87093945190013D+03

 The electronic state is 1-A.
 Alpha  occ. eigenvalues --  -20.61620 -20.61559 -20.60279 -20.60271 -15.86603
 Alpha  occ. eigenvalues --  -15.85323 -11.31671 -11.30436 -11.28224 -11.28182
 Alpha  occ. eigenvalues --  -11.27874 -11.27155 -11.27123 -11.27003 -11.26983
 Alpha  occ. eigenvalues --  -11.26522 -11.25896 -11.25779  -1.60652  -1.59360
 Alpha  occ. eigenvalues --   -1.40214  -1.38921  -1.19813  -1.18567  -1.09262
 Alpha  occ. eigenvalues --   -1.07965  -1.05171  -1.03942  -0.96148  -0.94855
 Alpha  occ. eigenvalues --   -0.86582  -0.85321  -0.82992  -0.81712  -0.78076
 Alpha  occ. eigenvalues --   -0.76824  -0.72842  -0.71954  -0.71544  -0.70914
 Alpha  occ. eigenvalues --   -0.70684  -0.69593  -0.65468  -0.65168  -0.64199
 Alpha  occ. eigenvalues --   -0.63895  -0.62524  -0.61298  -0.55674  -0.54320
 Alpha  occ. eigenvalues --   -0.53514  -0.53258  -0.52273  -0.52005  -0.49615
 Alpha  occ. eigenvalues --   -0.49578  -0.48317  -0.48276  -0.45672  -0.44385
 Alpha  occ. eigenvalues --   -0.37769  -0.36759  -0.36443  -0.35568
 Alpha virt. eigenvalues --    0.04406   0.05719   0.10900   0.12100   0.15960
 Alpha virt. eigenvalues --    0.17302   0.21070   0.22443   0.26995   0.27839
 Alpha virt. eigenvalues --    0.28314   0.29320   0.30672   0.31882   0.32332

 Mulliken charges:
               1
     1  C   -0.169210
     2  C   -0.217898
     3  C   -0.169507
     4  C    0.157854
     5  C   -0.172145
     6  C   -0.218096
     7  H    0.228393
     8  H    0.226232
     9  H    0.276459
    10  H    0.273640
    11  H    0.225121
    12  N    0.489345
    13  O   -0.469348
    14  O   -0.458468
    15  C   -0.162272
    16  C   -0.219340
    17  C   -0.172522
    18  C    0.157114
    19  C   -0.174535
    20  C   -0.225709
    21  H    0.235377
    22  H    0.222066
    23  H    0.272328
    24  H    0.270746
    25  H    0.233389
    26  N    0.488199
    27  O   -0.464313
    28  O   -0.462904
 Sum of Mulliken charges =  -0.00000

 Dipole moment (field-independent basis, Debye):
    X=             -4.9574    Y=              0.3600    Z=              0.0338  Tot=              4.9705
 Quadrupole moment (field-independent basis, Debye-Ang):
   XX=           -102.5283   YY=           -110.4129   ZZ=            -97.5025
   XY=             30.4359   XZ=              2.6479   YZ=             -0.3754

 Normal termination of Gaussian 16 at Thu May  6 17:54:25 2021.
