 Gaussian 16, Revision A.03,
 Gaussian 16:  EM64L-G16RevA.03 25-Dec-2016

 -------------
 #p 6-31g* mp2
 -------------

 ------------------------------------------------------
 Input file generated by CHIRIPA (05-May-2021 14:57:26)
 ------------------------------------------------------
 Symbolic Z-matrix:
 Charge =  0 Multiplicity = 1

                         Standard orientation:
 ---------------------------------------------------------------------
 Center     Atomic      Atomic             Coordinates (Angstroms)
 Number     Number       Type             X           Y           Z
 ---------------------------------------------------------------------
      1          6           0        2.636677    1.928540    0.802515
      2          6           0        3.701030    2.215565   -0.058467
      3          6           0        4.536016    1.193802   -0.520363
      4          6           0        4.276590   -0.109532   -0.099283
      5          6           0        3.224174   -0.427344    0.757867
      6          6           0        2.402059    0.610325    1.207220
      7          1           0        1.993039    2.728448    1.156455
      8          1           0        3.885612    3.238379   -0.374419
      9          1           0        5.367084    1.387911   -1.187496
     10          1           0        3.065192   -1.456716    1.055416
     11          1           0        1.576211    0.384473    1.875808
     12          7           0        5.153739   -1.199646   -0.581632
     13          8           0        4.904062   -2.339628   -0.195964
     14          8           0        6.074316   -0.893454   -1.336232
     15          6           0       -1.938391    0.105797    1.253861
     16          6           0       -2.129318    0.811662    0.061458
     17          6           0       -3.340639    0.721660   -0.630747
     18          6           0       -4.344098   -0.087140   -0.099520
     19          6           0       -4.184261   -0.802646    1.086143
     20          6           0       -2.964663   -0.697688    1.761501
     21          1           0       -0.994192    0.181520    1.785039
     22          1           0       -1.334062    1.436423   -0.335136
     23          1           0       -3.515263    1.257323   -1.555944
     24          1           0       -4.995569   -1.417378    1.456683
     25          1           0       -2.819197   -1.247003    2.687319
     26          7           0       -5.630851   -0.190338   -0.823410
     27          8           0       -6.499232   -0.909696   -0.334457
     28          8           0       -5.746662    0.450090   -1.866040
 ---------------------------------------------------------------------

 SCF Done:  E(RHF) =  -868.336443829     A.U. after   16 cycles
 E2 =    -0.2599763412D+01 EUMP2 =    -0.87093620724126D+03

 The electronic state is 1-A.
 Alpha  occ. eigenvalues --  -20.61381 -20.61374 -20.61151 -20.61146 -15.86442
 Alpha  occ. eigenvalues --  -15.86208 -11.31982 -11.31700 -11.28629 -11.28551
 Alpha  occ. eigenvalues --  -11.28424 -11.28275 -11.28261 -11.28174 -11.27781
 Alpha  occ. eigenvalues --  -11.27593 -11.27377 -11.27350  -1.60452  -1.60223
 Alpha  occ. eigenvalues --   -1.40000  -1.39773  -1.20194  -1.19894  -1.09568
 Alpha  occ. eigenvalues --   -1.09293  -1.05631  -1.05308  -0.96362  -0.96104
 Alpha  occ. eigenvalues --   -0.87034  -0.86714  -0.83198  -0.82922  -0.78205
 Alpha  occ. eigenvalues --   -0.77924  -0.72657  -0.72426  -0.71778  -0.71546
 Alpha  occ. eigenvalues --   -0.71316  -0.71095  -0.65855  -0.65691  -0.65554
 Alpha  occ. eigenvalues --   -0.65309  -0.62979  -0.62646  -0.56192  -0.55894
 Alpha  occ. eigenvalues --   -0.53941  -0.53721  -0.53632  -0.53411  -0.49431
 Alpha  occ. eigenvalues --   -0.49399  -0.49195  -0.49172  -0.45367  -0.45150
 Alpha  occ. eigenvalues --   -0.38206  -0.37919  -0.37226  -0.36896
 Alpha virt. eigenvalues --    0.04346   0.04602   0.10327   0.10753   0.15748
 Alpha virt. eigenvalues --    0.16053   0.17845   0.21970   0.24455   0.26358
 Alpha virt. eigenvalues --    0.27613   0.28814   0.29589   0.31386   0.32142

 Mulliken charges:
               1
     1  C   -0.174056
     2  C   -0.218230
     3  C   -0.169293
     4  C    0.159311
     5  C   -0.169470
     6  C   -0.222929
     7  H    0.224716
     8  H    0.226346
     9  H    0.278669
    10  H    0.277364
    11  H    0.217484
    12  N    0.488014
    13  O   -0.458784
    14  O   -0.457886
    15  C   -0.172012
    16  C   -0.219027
    17  C   -0.170032
    18  C    0.159388
    19  C   -0.169967
    20  C   -0.218819
    21  H    0.217982
    22  H    0.221792
    23  H    0.277160
    24  H    0.277588
    25  H    0.224623
    26  N    0.487913
    27  O   -0.458755
    28  O   -0.459091
 Sum of Mulliken charges =  -0.00000

 Dipole moment (field-independent basis, Debye):
    X=              1.5210    Y=              4.1638    Z=              4.0965  Tot=              6.0359
 Quadrupole moment (field-independent basis, Debye-Ang):
   XX=           -167.8218   YY=           -102.2611   ZZ=           -102.9202
   XY=             18.3402   XZ=             -7.1937   YZ=             -5.5607

 Normal termination of Gaussian 16 at Thu May  6 03:34:56 2021.
