 Gaussian 16, Revision A.03,
 Gaussian 16:  EM64L-G16RevA.03 25-Dec-2016

 -------------
 #p 6-31g* mp2
 -------------

 ------------------------------------------------------
 Input file generated by CHIRIPA (05-May-2021 14:53:13)
 ------------------------------------------------------
 Symbolic Z-matrix:
 Charge =  0 Multiplicity = 1

                         Standard orientation:
 ---------------------------------------------------------------------
 Center     Atomic      Atomic             Coordinates (Angstroms)
 Number     Number       Type             X           Y           Z
 ---------------------------------------------------------------------
      1          6           0        2.857131    0.763890   -0.434098
      2          6           0        3.252162    2.240786   -0.407378
      3          6           0        2.323483    3.116439   -1.249151
      4          1           0        2.859059    0.409133   -1.473852
      5          1           0        1.825312    0.660874   -0.070601
      6          1           0        4.283407    2.340834   -0.769513
      7          1           0        3.249480    2.592018    0.632451
      8          1           0        1.293287    3.046274   -0.885321
      9          1           0        2.333088    2.793663   -2.295251
     10          1           0        2.624132    4.168277   -1.215881
     11          6           0        3.776129   -0.124263    0.402775
     12          6           0        3.381098   -1.601159    0.376055
     13          6           0        4.309777   -2.476811    1.217828
     14          1           0        4.807949   -0.021246    0.039277
     15          1           0        3.774201    0.230494    1.442529
     16          1           0        3.383780   -1.952391   -0.663774
     17          1           0        2.349853   -1.701207    0.738190
     18          1           0        4.300173   -2.154036    2.263928
     19          1           0        5.339974   -2.406647    0.853998
     20          1           0        4.009129   -3.528650    1.184558
     21          6           0       -3.466553    1.848046    1.106926
     22          6           0       -4.358970    0.877509    0.639838
     23          6           0       -3.885153   -0.288756    0.031668
     24          6           0       -2.506483   -0.452672   -0.093596
     25          6           0       -1.592061    0.495939    0.361662
     26          6           0       -2.088376    1.654505    0.966594
     27          1           0       -3.843364    2.751038    1.578110
     28          1           0       -5.429794    1.025141    0.747476
     29          1           0       -4.553721   -1.056314   -0.338861
     30          1           0       -0.530028    0.320593    0.240180
     31          1           0       -1.392976    2.406539    1.328406
     32          7           0       -1.992966   -1.683269   -0.735724
     33          8           0       -0.773782   -1.803889   -0.834107
     34          8           0       -2.819378   -2.503890   -1.128484
 ---------------------------------------------------------------------

 SCF Done:  E(RHF) =  -669.535565870     A.U. after   15 cycles
 E2 =    -0.2091930817D+01 EUMP2 =    -0.67162749668728D+03

 The electronic state is 1-A.
 Alpha  occ. eigenvalues --  -20.60788 -20.60782 -15.85835 -11.31198 -11.27773
 Alpha  occ. eigenvalues --  -11.27761 -11.27519 -11.26792 -11.26782 -11.21791
 Alpha  occ. eigenvalues --  -11.21467 -11.21385 -11.21227 -11.21063 -11.20650
 Alpha  occ. eigenvalues --   -1.59859  -1.39412  -1.19375  -1.08771  -1.08365
 Alpha  occ. eigenvalues --   -1.04782  -1.03423  -0.95913  -0.95605  -0.86930
 Alpha  occ. eigenvalues --   -0.86179  -0.82437  -0.79500  -0.78130  -0.77466
 Alpha  occ. eigenvalues --   -0.72052  -0.71180  -0.70493  -0.65067  -0.65027
 Alpha  occ. eigenvalues --   -0.64751  -0.62136  -0.60823  -0.59292  -0.57484
 Alpha  occ. eigenvalues --   -0.55320  -0.55200  -0.53107  -0.52897  -0.52589
 Alpha  occ. eigenvalues --   -0.52309  -0.49878  -0.48815  -0.48812  -0.47801
 Alpha  occ. eigenvalues --   -0.46557  -0.45643  -0.45559  -0.44813  -0.43691
 Alpha  occ. eigenvalues --   -0.37356  -0.36382
 Alpha virt. eigenvalues --    0.05037   0.11269   0.16505   0.19410   0.23090
 Alpha virt. eigenvalues --    0.24197   0.24863   0.27063   0.27265   0.28232
 Alpha virt. eigenvalues --    0.29513   0.31105   0.31665   0.32067   0.32495

 Mulliken charges:
               1
     1  C   -0.301851
     2  C   -0.299923
     3  C   -0.474126
     4  H    0.157070
     5  H    0.144040
     6  H    0.154612
     7  H    0.148673
     8  H    0.146010
     9  H    0.159633
    10  H    0.160371
    11  C   -0.298548
    12  C   -0.300849
    13  C   -0.476284
    14  H    0.149532
    15  H    0.145909
    16  H    0.157570
    17  H    0.159820
    18  H    0.151939
    19  H    0.153132
    20  H    0.163393
    21  C   -0.170358
    22  C   -0.219178
    23  C   -0.169509
    24  C    0.157036
    25  C   -0.181773
    26  C   -0.224137
    27  H    0.225801
    28  H    0.223566
    29  H    0.275736
    30  H    0.293459
    31  H    0.223829
    32  N    0.486535
    33  O   -0.460983
    34  O   -0.460149
 Sum of Mulliken charges =  -0.00000

 Dipole moment (field-independent basis, Debye):
    X=             -1.7759    Y=              4.2123    Z=              2.1566  Tot=              5.0545
 Quadrupole moment (field-independent basis, Debye-Ang):
   XX=            -81.1240   YY=            -99.3988   ZZ=            -95.5432
   XY=             -8.3001   XZ=             -6.1232   YZ=             -0.5597

 Normal termination of Gaussian 16 at Thu May  6 10:29:01 2021.
