 Gaussian 16, Revision A.03,
 Gaussian 16:  EM64L-G16RevA.03 25-Dec-2016

 -------------
 #p 6-31g* mp2
 -------------

 ------------------------------------------------------
 Input file generated by CHIRIPA (05-May-2021 14:55:25)
 ------------------------------------------------------
 Symbolic Z-matrix:
 Charge =  0 Multiplicity = 1

                         Standard orientation:
 ---------------------------------------------------------------------
 Center     Atomic      Atomic             Coordinates (Angstroms)
 Number     Number       Type             X           Y           Z
 ---------------------------------------------------------------------
      1          6           0        2.757716    2.487802    0.986859
      2          6           0        1.529972    1.825132    0.886688
      3          6           0        1.447437    0.572330    0.271689
      4          6           0        2.617742    0.008884   -0.234475
      5          6           0        3.855733    0.644133   -0.150056
      6          6           0        3.914639    1.896231    0.469081
      7          1           0        2.812653    3.460735    1.466212
      8          1           0        0.629860    2.282155    1.287903
      9          1           0        0.509981    0.037268    0.180565
     10          1           0        4.735823    0.163260   -0.559471
     11          1           0        4.869486    2.408558    0.545453
     12          7           0        2.542874   -1.317029   -0.887737
     13          8           0        3.588425   -1.792074   -1.325679
     14          8           0        1.440059   -1.856127   -0.949453
     15          6           0       -3.877090    0.275848    0.198684
     16          6           0       -4.151057    0.932871   -1.154552
     17          6           0       -5.174602    2.065223   -1.065505
     18          1           0       -4.819868   -0.111553    0.608605
     19          1           0       -3.520121    1.039428    0.903606
     20          1           0       -4.506085    0.168021   -1.857101
     21          1           0       -3.207486    1.318582   -1.561387
     22          1           0       -4.824122    2.848756   -0.385917
     23          1           0       -6.130101    1.691657   -0.683312
     24          1           0       -5.355422    2.520817   -2.044075
     25          6           0       -2.855919   -0.858017    0.125950
     26          6           0       -2.581951   -1.515040    1.479186
     27          6           0       -1.558407   -2.647393    1.390139
     28          1           0       -3.212887   -1.621598   -0.578972
     29          1           0       -1.913142   -0.470617   -0.283971
     30          1           0       -3.525523   -1.900752    1.886021
     31          1           0       -2.226924   -0.750191    2.181735
     32          1           0       -0.602909   -2.273826    1.007945
     33          1           0       -1.908886   -3.430926    0.710552
     34          1           0       -1.377587   -3.102987    2.368708
 ---------------------------------------------------------------------

 SCF Done:  E(RHF) =  -669.535569283     A.U. after   15 cycles
 E2 =    -0.2092490919D+01 EUMP2 =    -0.67162806020242D+03

 The electronic state is 1-A.
 Alpha  occ. eigenvalues --  -20.60901 -20.60891 -15.85928 -11.31264 -11.27828
 Alpha  occ. eigenvalues --  -11.27824 -11.27568 -11.26843 -11.26833 -11.21729
 Alpha  occ. eigenvalues --  -11.21545 -11.21527 -11.21422 -11.21226 -11.20518
 Alpha  occ. eigenvalues --   -1.59960  -1.39517  -1.19436  -1.08837  -1.08493
 Alpha  occ. eigenvalues --   -1.04836  -1.03498  -0.95921  -0.95676  -0.86924
 Alpha  occ. eigenvalues --   -0.86238  -0.82511  -0.79560  -0.78308  -0.77552
 Alpha  occ. eigenvalues --   -0.72155  -0.71272  -0.70555  -0.65216  -0.65091
 Alpha  occ. eigenvalues --   -0.64798  -0.62210  -0.60879  -0.59308  -0.57521
 Alpha  occ. eigenvalues --   -0.55340  -0.55215  -0.53163  -0.52937  -0.52589
 Alpha  occ. eigenvalues --   -0.52312  -0.49885  -0.48915  -0.48905  -0.47832
 Alpha  occ. eigenvalues --   -0.46610  -0.45798  -0.45777  -0.44882  -0.43777
 Alpha  occ. eigenvalues --   -0.37414  -0.36435
 Alpha virt. eigenvalues --    0.04929   0.11184   0.16433   0.19482   0.22950
 Alpha virt. eigenvalues --    0.23882   0.25844   0.26943   0.27698   0.28195
 Alpha virt. eigenvalues --    0.29692   0.30588   0.31501   0.31790   0.31981

 Mulliken charges:
               1
     1  C   -0.170222
     2  C   -0.222632
     3  C   -0.179121
     4  C    0.156430
     5  C   -0.169698
     6  C   -0.218981
     7  H    0.225971
     8  H    0.223973
     9  H    0.290756
    10  H    0.275834
    11  H    0.223797
    12  N    0.488497
    13  O   -0.458888
    14  O   -0.462665
    15  C   -0.297272
    16  C   -0.299429
    17  C   -0.475441
    18  H    0.151500
    19  H    0.142978
    20  H    0.155169
    21  H    0.150136
    22  H    0.152452
    23  H    0.156116
    24  H    0.161082
    25  C   -0.302161
    26  C   -0.301176
    27  C   -0.484326
    28  H    0.156243
    29  H    0.147036
    30  H    0.152384
    31  H    0.143259
    32  H    0.171818
    33  H    0.159463
    34  H    0.157115
 Sum of Mulliken charges =  -0.00000

 Dipole moment (field-independent basis, Debye):
    X=              0.3353    Y=              4.5497    Z=              2.1912  Tot=              5.0609
 Quadrupole moment (field-independent basis, Debye-Ang):
   XX=            -88.1637   YY=            -95.3077   ZZ=            -96.6911
   XY=             13.9689   XZ=              5.4178   YZ=             -0.6771

 Normal termination of Gaussian 16 at Thu May  6 20:57:55 2021.
