 Gaussian 16, Revision A.03,
 Gaussian 16:  EM64L-G16RevA.03 25-Dec-2016

 -------------
 #p 6-31g* mp2
 -------------

 ------------------------------------------------------
 Input file generated by CHIRIPA (05-May-2021 14:57:23)
 ------------------------------------------------------
 Symbolic Z-matrix:
 Charge =  0 Multiplicity = 1

                         Standard orientation:
 ---------------------------------------------------------------------
 Center     Atomic      Atomic             Coordinates (Angstroms)
 Number     Number       Type             X           Y           Z
 ---------------------------------------------------------------------
      1          6           0       -2.467706   -1.976181    1.054286
      2          6           0       -1.882975   -1.005663    0.234100
      3          6           0       -2.669280   -0.022666   -0.374167
      4          6           0       -4.043291   -0.040007   -0.139468
      5          6           0       -4.655418   -0.993597    0.672479
      6          6           0       -3.849624   -1.967067    1.270477
      7          1           0       -1.849315   -2.736096    1.522814
      8          1           0       -0.810020   -1.010297    0.064419
      9          1           0       -2.242671    0.740467   -1.013738
     10          1           0       -5.727749   -0.963227    0.822813
     11          1           0       -4.306466   -2.719549    1.906960
     12          7           0       -4.886033    0.995605   -0.777977
     13          8           0       -6.094210    0.958588   -0.555324
     14          8           0       -4.322439    1.824725   -1.489004
     15          6           0        2.598713    2.020796    1.210934
     16          6           0        3.978873    2.158308    1.029907
     17          6           0        4.712420    1.161694    0.379355
     18          6           0        4.030626    0.035694   -0.079525
     19          6           0        2.656422   -0.130398    0.085604
     20          6           0        1.943049    0.878896    0.739037
     21          1           0        2.036712    2.799914    1.717417
     22          1           0        4.490710    3.044041    1.395344
     23          1           0        5.781672    1.242488    0.225769
     24          1           0        2.174010   -1.024746   -0.289679
     25          1           0        0.871281    0.769411    0.878217
     26          7           0        4.796520   -1.026089   -0.769760
     27          8           0        4.172378   -2.008466   -1.164751
     28          8           0        6.006469   -0.855831   -0.902704
 ---------------------------------------------------------------------

 SCF Done:  E(RHF) =  -868.337013580     A.U. after   16 cycles
 E2 =    -0.2599758911D+01 EUMP2 =    -0.87093677249159D+03

 The electronic state is 1-A.
 Alpha  occ. eigenvalues --  -20.61278 -20.61264 -20.61256 -20.61247 -15.86331
 Alpha  occ. eigenvalues --  -15.86315 -11.31781 -11.31774 -11.28446 -11.28445
 Alpha  occ. eigenvalues --  -11.28355 -11.28298 -11.28143 -11.28060 -11.27528
 Alpha  occ. eigenvalues --  -11.27436 -11.27345 -11.27299  -1.60347  -1.60329
 Alpha  occ. eigenvalues --   -1.39900  -1.39879  -1.19985  -1.19946  -1.09352
 Alpha  occ. eigenvalues --   -1.09311  -1.05438  -1.05367  -0.96163  -0.96141
 Alpha  occ. eigenvalues --   -0.86823  -0.86748  -0.83052  -0.82950  -0.78118
 Alpha  occ. eigenvalues --   -0.77963  -0.72547  -0.72529  -0.71671  -0.71656
 Alpha  occ. eigenvalues --   -0.71067  -0.71037  -0.65652  -0.65636  -0.65539
 Alpha  occ. eigenvalues --   -0.65281  -0.62958  -0.62538  -0.55899  -0.55810
 Alpha  occ. eigenvalues --   -0.53750  -0.53676  -0.53592  -0.53369  -0.49313
 Alpha  occ. eigenvalues --   -0.49303  -0.49291  -0.49278  -0.45290  -0.45263
 Alpha  occ. eigenvalues --   -0.37950  -0.37893  -0.37028  -0.36986
 Alpha virt. eigenvalues --    0.04508   0.04529   0.10568   0.10684   0.15839
 Alpha virt. eigenvalues --    0.16011   0.18080   0.22006   0.24407   0.27014
 Alpha virt. eigenvalues --    0.27965   0.28720   0.30247   0.31101   0.31801

 Mulliken charges:
               1
     1  C   -0.170321
     2  C   -0.223836
     3  C   -0.172513
     4  C    0.158888
     5  C   -0.169239
     6  C   -0.218555
     7  H    0.229088
     8  H    0.218678
     9  H    0.275922
    10  H    0.277920
    11  H    0.226386
    12  N    0.488088
    13  O   -0.458464
    14  O   -0.460002
    15  C   -0.170094
    16  C   -0.218048
    17  C   -0.169888
    18  C    0.159755
    19  C   -0.173645
    20  C   -0.221842
    21  H    0.229317
    22  H    0.226348
    23  H    0.277729
    24  H    0.269627
    25  H    0.219844
    26  N    0.488366
    27  O   -0.461621
    28  O   -0.457888
 Sum of Mulliken charges =  -0.00000

 Dipole moment (field-independent basis, Debye):
    X=              0.2250    Y=              0.1421    Z=              4.7482  Tot=              4.7556
 Quadrupole moment (field-independent basis, Debye-Ang):
   XX=           -142.2351   YY=           -102.6840   ZZ=           -106.2148
   XY=             34.8725   XZ=             -0.9466   YZ=             -0.4154

 Normal termination of Gaussian 16 at Fri May  7 07:58:16 2021.
