 Gaussian 16, Revision A.03,
 Gaussian 16:  EM64L-G16RevA.03 25-Dec-2016

 -------------
 #p 6-31g* mp2
 -------------

 ------------------------------------------------------
 Input file generated by CHIRIPA (05-May-2021 14:55:19)
 ------------------------------------------------------
 Symbolic Z-matrix:
 Charge =  0 Multiplicity = 1

                         Standard orientation:
 ---------------------------------------------------------------------
 Center     Atomic      Atomic             Coordinates (Angstroms)
 Number     Number       Type             X           Y           Z
 ---------------------------------------------------------------------
      1          6           0       -4.621405    2.160489    0.128784
      2          6           0       -3.226572    2.130692    0.028417
      3          6           0       -2.554702    0.920863   -0.170207
      4          6           0       -3.312463   -0.245426   -0.264326
      5          6           0       -4.703172   -0.248319   -0.168355
      6          6           0       -5.353962    0.972982    0.030252
      7          1           0       -5.135143    3.104769    0.283074
      8          1           0       -2.655079    3.051366    0.104564
      9          1           0       -1.475753    0.869046   -0.251461
     10          1           0       -5.245677   -1.182519   -0.248210
     11          1           0       -6.437301    0.993109    0.107826
     12          7           0       -2.612343   -1.532290   -0.474592
     13          8           0       -3.302886   -2.545924   -0.554178
     14          8           0       -1.386302   -1.502933   -0.555830
     15          6           0        3.645054    0.179786    0.408789
     16          6           0        3.022345   -0.713577    1.482159
     17          6           0        1.536336   -0.427333    1.700412
     18          1           0        3.510902    1.232303    0.693669
     19          1           0        3.101161    0.039836   -0.535663
     20          1           0        3.568127   -0.573012    2.423955
     21          1           0        3.158164   -1.764092    1.194785
     22          1           0        0.973423   -0.586246    0.774951
     23          1           0        1.385716    0.611601    2.011105
     24          1           0        1.111389   -1.077130    2.471804
     25          6           0        5.130247   -0.094449    0.179172
     26          6           0        5.752956    0.798914   -0.894198
     27          6           0        7.238965    0.512671   -1.112452
     28          1           0        5.674140    0.045502    1.123624
     29          1           0        5.264400   -1.146965   -0.105708
     30          1           0        5.617137    1.849431   -0.606824
     31          1           0        5.207173    0.658351   -1.835994
     32          1           0        7.389585   -0.526263   -1.423144
     33          1           0        7.801877    0.671584   -0.186991
     34          1           0        7.663912    1.162467   -1.883843
 ---------------------------------------------------------------------

 SCF Done:  E(RHF) =  -669.536119945     A.U. after   15 cycles
 E2 =    -0.2090973390D+01 EUMP2 =    -0.67162709333476D+03

 The electronic state is 1-A.
 Alpha  occ. eigenvalues --  -20.60867 -20.60861 -15.85907 -11.31219 -11.27789
 Alpha  occ. eigenvalues --  -11.27776 -11.27530 -11.26798 -11.26785 -11.21342
 Alpha  occ. eigenvalues --  -11.21061 -11.21039 -11.20954 -11.20845 -11.20351
 Alpha  occ. eigenvalues --   -1.59930  -1.39487  -1.19392  -1.08798  -1.08037
 Alpha  occ. eigenvalues --   -1.04788  -1.03104  -0.95651  -0.95542  -0.86572
 Alpha  occ. eigenvalues --   -0.86189  -0.82477  -0.79185  -0.77862  -0.77521
 Alpha  occ. eigenvalues --   -0.72138  -0.71244  -0.70503  -0.65052  -0.64794
 Alpha  occ. eigenvalues --   -0.64659  -0.62138  -0.60486  -0.58936  -0.57169
 Alpha  occ. eigenvalues --   -0.55297  -0.54823  -0.53120  -0.52885  -0.52238
 Alpha  occ. eigenvalues --   -0.51986  -0.49514  -0.48883  -0.48860  -0.47492
 Alpha  occ. eigenvalues --   -0.46209  -0.45404  -0.45318  -0.44853  -0.43369
 Alpha  occ. eigenvalues --   -0.37373  -0.36388
 Alpha virt. eigenvalues --    0.04990   0.11260   0.16479   0.21139   0.23256
 Alpha virt. eigenvalues --    0.24508   0.26342   0.27112   0.27653   0.27990
 Alpha virt. eigenvalues --    0.29159   0.30598   0.31656   0.32013   0.32421

 Mulliken charges:
               1
     1  C   -0.170521
     2  C   -0.219244
     3  C   -0.170621
     4  C    0.157717
     5  C   -0.170845
     6  C   -0.218708
     7  H    0.225718
     8  H    0.223881
     9  H    0.278143
    10  H    0.275568
    11  H    0.223517
    12  N    0.491845
    13  O   -0.459571
    14  O   -0.464488
    15  C   -0.298754
    16  C   -0.298587
    17  C   -0.486833
    18  H    0.144941
    19  H    0.151925
    20  H    0.148491
    21  H    0.155779
    22  H    0.177663
    23  H    0.143600
    24  H    0.161088
    25  C   -0.298048
    26  C   -0.299408
    27  C   -0.475519
    28  H    0.148361
    29  H    0.151242
    30  H    0.149864
    31  H    0.152295
    32  H    0.155863
    33  H    0.154541
    34  H    0.159103
 Sum of Mulliken charges =  -0.00000

 Dipole moment (field-independent basis, Debye):
    X=             -2.6168    Y=              4.4263    Z=              0.6700  Tot=              5.1854
 Quadrupole moment (field-independent basis, Debye-Ang):
   XX=            -76.1458   YY=            -95.7985   ZZ=            -95.8991
   XY=            -12.2733   XZ=             -1.5637   YZ=             -0.9659

 Normal termination of Gaussian 16 at Wed May  5 18:51:25 2021.
