 Gaussian 16, Revision A.03,
 Gaussian 16:  EM64L-G16RevA.03 25-Dec-2016

 -------------
 #p 6-31g* mp2
 -------------

 ------------------------------------------------------
 Input file generated by CHIRIPA (05-May-2021 14:53:14)
 ------------------------------------------------------
 Symbolic Z-matrix:
 Charge =  0 Multiplicity = 1

                         Standard orientation:
 ---------------------------------------------------------------------
 Center     Atomic      Atomic             Coordinates (Angstroms)
 Number     Number       Type             X           Y           Z
 ---------------------------------------------------------------------
      1          6           0       -3.043427   -0.866438    0.296354
      2          6           0       -1.884737   -1.377580   -0.560475
      3          6           0       -1.018509   -2.404954    0.168871
      4          1           0       -2.641839   -0.421891    1.217250
      5          1           0       -3.665082   -1.718063    0.605667
      6          1           0       -1.266234   -0.525088   -0.869229
      7          1           0       -2.289120   -1.820790   -1.479526
      8          1           0       -1.616444   -3.273600    0.463030
      9          1           0       -0.587747   -1.970537    1.076795
     10          1           0       -0.196271   -2.756960   -0.461903
     11          6           0       -3.918485    0.161315   -0.418997
     12          6           0       -5.077176    0.672457    0.437832
     13          6           0       -5.943403    1.699831   -0.291515
     14          1           0       -3.296830    1.012940   -0.728310
     15          1           0       -4.320074   -0.283232   -1.339893
     16          1           0       -4.672793    1.115666    1.356883
     17          1           0       -5.695678   -0.180035    0.746585
     18          1           0       -6.374166    1.265413   -1.199439
     19          1           0       -5.345468    2.568477   -0.585673
     20          1           0       -6.765641    2.051837    0.339260
     21          6           0        2.886460    2.792933    0.064349
     22          6           0        2.511763    2.108648    1.225331
     23          6           0        2.415997    0.713883    1.227770
     24          6           0        2.703356    0.032057    0.046318
     25          6           0        3.079255    0.685270   -1.126415
     26          6           0        3.168513    2.080315   -1.105756
     27          1           0        2.958326    3.876529    0.071426
     28          1           0        2.292131    2.659471    2.135496
     29          1           0        2.128196    0.158935    2.112429
     30          1           0        3.292016    0.108728   -2.018464
     31          1           0        3.459746    2.609099   -2.008870
     32          7           0        2.605418   -1.444668    0.036674
     33          8           0        2.863799   -2.022177   -1.017062
     34          8           0        2.272127   -1.996653    1.083033
 ---------------------------------------------------------------------

 SCF Done:  E(RHF) =  -669.535747634     A.U. after   15 cycles
 E2 =    -0.2092228034D+01 EUMP2 =    -0.67162797566761D+03

 The electronic state is 1-A.
 Alpha  occ. eigenvalues --  -20.60908 -20.60896 -15.85910 -11.31280 -11.27845
 Alpha  occ. eigenvalues --  -11.27837 -11.27581 -11.26854 -11.26843 -11.21465
 Alpha  occ. eigenvalues --  -11.21153 -11.21016 -11.21005 -11.20957 -11.19925
 Alpha  occ. eigenvalues --   -1.59954  -1.39512  -1.19446  -1.08843  -1.08087
 Alpha  occ. eigenvalues --   -1.04846  -1.03097  -0.95690  -0.95503  -0.86518
 Alpha  occ. eigenvalues --   -0.86245  -0.82517  -0.79178  -0.77886  -0.77566
 Alpha  occ. eigenvalues --   -0.72148  -0.71284  -0.70554  -0.65102  -0.64849
 Alpha  occ. eigenvalues --   -0.64730  -0.62194  -0.60504  -0.58916  -0.57116
 Alpha  occ. eigenvalues --   -0.55349  -0.54812  -0.53184  -0.52938  -0.52142
 Alpha  occ. eigenvalues --   -0.51934  -0.49491  -0.48908  -0.48894  -0.47476
 Alpha  occ. eigenvalues --   -0.46289  -0.45456  -0.45388  -0.44725  -0.43315
 Alpha  occ. eigenvalues --   -0.37420  -0.36448
 Alpha virt. eigenvalues --    0.04930   0.11193   0.16400   0.21303   0.23118
 Alpha virt. eigenvalues --    0.24656   0.26867   0.27223   0.27759   0.27989
 Alpha virt. eigenvalues --    0.28747   0.30865   0.31685   0.32001   0.32401

 Mulliken charges:
               1
     1  C   -0.296811
     2  C   -0.300472
     3  C   -0.481684
     4  H    0.146316
     5  H    0.149990
     6  H    0.145116
     7  H    0.150637
     8  H    0.152166
     9  H    0.159825
    10  H    0.174089
    11  C   -0.297419
    12  C   -0.299074
    13  C   -0.475289
    14  H    0.146697
    15  H    0.149737
    16  H    0.150089
    17  H    0.152528
    18  H    0.155458
    19  H    0.153360
    20  H    0.159438
    21  C   -0.170690
    22  C   -0.218614
    23  C   -0.171476
    24  C    0.159570
    25  C   -0.170985
    26  C   -0.218556
    27  H    0.225948
    28  H    0.223724
    29  H    0.275556
    30  H    0.275934
    31  H    0.223846
    32  N    0.488550
    33  O   -0.460730
    34  O   -0.456776
 Sum of Mulliken charges =  -0.00000

 Dipole moment (field-independent basis, Debye):
    X=              0.5513    Y=              5.1103    Z=              0.0593  Tot=              5.1403
 Quadrupole moment (field-independent basis, Debye-Ang):
   XX=            -93.9231   YY=            -94.7485   ZZ=            -90.2232
   XY=             15.3101   XZ=             -1.5095   YZ=              0.8399

 Normal termination of Gaussian 16 at Wed May  5 21:50:16 2021.
