 Gaussian 16, Revision A.03,
 Gaussian 16:  EM64L-G16RevA.03 25-Dec-2016

 -------------
 #p 6-31g* mp2
 -------------

 ------------------------------------------------------
 Input file generated by CHIRIPA (05-May-2021 14:53:12)
 ------------------------------------------------------
 Symbolic Z-matrix:
 Charge =  0 Multiplicity = 1

                         Standard orientation:
 ---------------------------------------------------------------------
 Center     Atomic      Atomic             Coordinates (Angstroms)
 Number     Number       Type             X           Y           Z
 ---------------------------------------------------------------------
      1          6           0       -3.046649    0.607958    0.924372
      2          6           0       -2.053110    1.765966    0.824949
      3          6           0       -1.864273    2.498590    2.153631
      4          1           0       -4.014692    0.992696    1.273392
      5          1           0       -2.698011   -0.100541    1.688489
      6          1           0       -2.402803    2.471371    0.060270
      7          1           0       -1.087373    1.378457    0.475942
      8          1           0       -1.492534    1.813102    2.922082
      9          1           0       -2.815438    2.912227    2.504049
     10          1           0       -1.150034    3.322553    2.059782
     11          6           0       -3.246075   -0.134216   -0.395906
     12          6           0       -4.239614   -1.292223   -0.296483
     13          6           0       -4.428451   -2.024848   -1.625165
     14          1           0       -3.594713    0.574283   -1.160023
     15          1           0       -2.278032   -0.518954   -0.744926
     16          1           0       -5.205351   -0.904714    0.052524
     17          1           0       -3.889921   -1.997629    0.468196
     18          1           0       -3.477287   -2.438484   -1.975583
     19          1           0       -4.800190   -1.339360   -2.393616
     20          1           0       -5.142690   -2.848811   -1.531316
     21          6           0        2.903218   -2.042551    1.442052
     22          6           0        1.590293   -1.739460    1.066707
     23          6           0        1.331871   -0.712353    0.154119
     24          6           0        2.415063   -0.005480   -0.365801
     25          6           0        3.734305   -0.283646   -0.011523
     26          6           0        3.969155   -1.314959    0.902690
     27          1           0        3.094812   -2.842066    2.151604
     28          1           0        0.760516   -2.302848    1.483968
     29          1           0        0.325280   -0.456699   -0.153832
     30          1           0        4.540835    0.295554   -0.444485
     31          1           0        4.989820   -1.548141    1.192367
     32          7           0        2.153960    1.084100   -1.332778
     33          8           0        3.125674    1.692008   -1.776463
     34          8           0        0.982537    1.309571   -1.628698
 ---------------------------------------------------------------------

 SCF Done:  E(RHF) =  -669.535273194     A.U. after   15 cycles
 E2 =    -0.2092755081D+01 EUMP2 =    -0.67162802827574D+03

 The electronic state is 1-A.
 Alpha  occ. eigenvalues --  -20.60864 -20.60859 -15.85897 -11.31255 -11.27817
 Alpha  occ. eigenvalues --  -11.27809 -11.27560 -11.26838 -11.26828 -11.21712
 Alpha  occ. eigenvalues --  -11.21455 -11.21383 -11.21260 -11.21125 -11.20871
 Alpha  occ. eigenvalues --   -1.59929  -1.39484  -1.19427  -1.08823  -1.08427
 Alpha  occ. eigenvalues --   -1.04830  -1.03464  -0.95940  -0.95661  -0.86953
 Alpha  occ. eigenvalues --   -0.86232  -0.82492  -0.79522  -0.78242  -0.77513
 Alpha  occ. eigenvalues --   -0.72120  -0.71244  -0.70548  -0.65199  -0.65079
 Alpha  occ. eigenvalues --   -0.64753  -0.62187  -0.60859  -0.59291  -0.57522
 Alpha  occ. eigenvalues --   -0.55340  -0.55246  -0.53154  -0.52943  -0.52598
 Alpha  occ. eigenvalues --   -0.52346  -0.49905  -0.48911  -0.48878  -0.47816
 Alpha  occ. eigenvalues --   -0.46581  -0.45737  -0.45690  -0.44807  -0.43740
 Alpha  occ. eigenvalues --   -0.37404  -0.36424
 Alpha virt. eigenvalues --    0.04949   0.11148   0.16470   0.19680   0.23001
 Alpha virt. eigenvalues --    0.24370   0.25152   0.26922   0.27688   0.28013
 Alpha virt. eigenvalues --    0.29865   0.31114   0.31486   0.31876   0.32061

 Mulliken charges:
               1
     1  C   -0.299721
     2  C   -0.306374
     3  C   -0.475836
     4  H    0.150873
     5  H    0.140962
     6  H    0.158897
     7  H    0.160599
     8  H    0.149765
     9  H    0.154215
    10  H    0.164013
    11  C   -0.300682
    12  C   -0.299053
    13  C   -0.475417
    14  H    0.156608
    15  H    0.146494
    16  H    0.153387
    17  H    0.146712
    18  H    0.154218
    19  H    0.158206
    20  H    0.159624
    21  C   -0.170352
    22  C   -0.222099
    23  C   -0.177305
    24  C    0.156575
    25  C   -0.169960
    26  C   -0.218733
    27  H    0.225922
    28  H    0.223849
    29  H    0.288055
    30  H    0.275804
    31  H    0.223772
    32  N    0.487527
    33  O   -0.459388
    34  O   -0.461159
 Sum of Mulliken charges =  -0.00000

 Dipole moment (field-independent basis, Debye):
    X=              0.9520    Y=             -3.7134    Z=              3.2781  Tot=              5.0439
 Quadrupole moment (field-independent basis, Debye-Ang):
   XX=            -84.6051   YY=            -95.1060   ZZ=            -98.9047
   XY=             -9.3952   XZ=              8.0062   YZ=              0.3654

 Normal termination of Gaussian 16 at Thu May  6 08:48:54 2021.
