 Gaussian 16, Revision A.03,
 Gaussian 16:  EM64L-G16RevA.03 25-Dec-2016

 -------------
 #p 6-31g* mp2
 -------------

 ------------------------------------------------------
 Input file generated by CHIRIPA (05-May-2021 14:53:15)
 ------------------------------------------------------
 Symbolic Z-matrix:
 Charge =  0 Multiplicity = 1

                         Standard orientation:
 ---------------------------------------------------------------------
 Center     Atomic      Atomic             Coordinates (Angstroms)
 Number     Number       Type             X           Y           Z
 ---------------------------------------------------------------------
      1          6           0       -3.414772    0.746969    0.453056
      2          6           0       -2.321355    1.762274    0.119017
      3          6           0       -2.351094    2.986003    1.035203
      4          1           0       -4.395489    1.236842    0.381200
      5          1           0       -3.301176    0.426683    1.498000
      6          1           0       -2.436141    2.079510   -0.925397
      7          1           0       -1.343138    1.269877    0.191490
      8          1           0       -2.213833    2.688561    2.079850
      9          1           0       -3.313046    3.502794    0.956617
     10          1           0       -1.561110    3.698774    0.778801
     11          6           0       -3.397983   -0.481965   -0.454229
     12          6           0       -4.491400   -1.497269   -0.120190
     13          6           0       -4.461661   -2.720998   -1.036376
     14          1           0       -3.511579   -0.161678   -1.499173
     15          1           0       -2.417266   -0.971837   -0.382373
     16          1           0       -5.469617   -1.004873   -0.192664
     17          1           0       -4.376614   -1.814506    0.924224
     18          1           0       -3.499708   -3.237789   -0.957790
     19          1           0       -4.598922   -2.423556   -2.081023
     20          1           0       -5.251645   -3.433770   -0.779974
     21          6           0        3.169805   -2.415486    0.873430
     22          6           0        3.933139   -1.876699   -0.167507
     23          6           0        3.660309   -0.596689   -0.659123
     24          6           0        2.612066    0.119995   -0.083938
     25          6           0        1.833521   -0.389367    0.954189
     26          6           0        2.124274   -1.671411    1.429975
     27          1           0        3.388707   -3.410618    1.249181
     28          1           0        4.745718   -2.452277   -0.601641
     29          1           0        4.235359   -0.155365   -1.464087
     30          1           0        1.029891    0.208424    1.366795
     31          1           0        1.529793   -2.087302    2.238475
     32          7           0        2.313745    1.476161   -0.596009
     33          8           0        1.384846    2.087276   -0.072250
     34          8           0        3.014467    1.902330   -1.511436
 ---------------------------------------------------------------------

 SCF Done:  E(RHF) =  -669.535910064     A.U. after   15 cycles
 E2 =    -0.2091693319D+01 EUMP2 =    -0.67162760338303D+03

 The electronic state is 1-A.
 Alpha  occ. eigenvalues --  -20.60920 -20.60913 -15.85949 -11.31290 -11.27858
 Alpha  occ. eigenvalues --  -11.27848 -11.27590 -11.26868 -11.26857 -11.21508
 Alpha  occ. eigenvalues --  -11.21174 -11.21049 -11.20976 -11.20787 -11.20226
 Alpha  occ. eigenvalues --   -1.59979  -1.39535  -1.19459  -1.08859  -1.08086
 Alpha  occ. eigenvalues --   -1.04859  -1.03102  -0.95705  -0.95568  -0.86600
 Alpha  occ. eigenvalues --   -0.86258  -0.82534  -0.79200  -0.77882  -0.77552
 Alpha  occ. eigenvalues --   -0.72176  -0.71291  -0.70568  -0.65119  -0.64880
 Alpha  occ. eigenvalues --   -0.64720  -0.62213  -0.60512  -0.58957  -0.57130
 Alpha  occ. eigenvalues --   -0.55361  -0.54898  -0.53187  -0.52953  -0.52232
 Alpha  occ. eigenvalues --   -0.51995  -0.49568  -0.48952  -0.48925  -0.47496
 Alpha  occ. eigenvalues --   -0.46271  -0.45481  -0.45353  -0.44759  -0.43363
 Alpha  occ. eigenvalues --   -0.37436  -0.36460
 Alpha virt. eigenvalues --    0.04914   0.11153   0.16410   0.20799   0.22964
 Alpha virt. eigenvalues --    0.24307   0.26308   0.27389   0.27623   0.28358
 Alpha virt. eigenvalues --    0.28889   0.30465   0.31545   0.31969   0.32642

 Mulliken charges:
               1
     1  C   -0.298405
     2  C   -0.302863
     3  C   -0.476323
     4  H    0.148875
     5  H    0.143411
     6  H    0.153688
     7  H    0.160163
     8  H    0.147545
     9  H    0.150398
    10  H    0.174469
    11  C   -0.296824
    12  C   -0.298919
    13  C   -0.475161
    14  H    0.151396
    15  H    0.144752
    16  H    0.152777
    17  H    0.149029
    18  H    0.152625
    19  H    0.156235
    20  H    0.159275
    21  C   -0.170532
    22  C   -0.218478
    23  C   -0.170690
    24  C    0.157978
    25  C   -0.172387
    26  C   -0.219066
    27  H    0.226030
    28  H    0.223877
    29  H    0.275880
    30  H    0.278126
    31  H    0.223919
    32  N    0.489667
    33  O   -0.461311
    34  O   -0.459157
 Sum of Mulliken charges =  -0.00000

 Dipole moment (field-independent basis, Debye):
    X=              1.2585    Y=             -4.6653    Z=              1.7127  Tot=              5.1266
 Quadrupole moment (field-independent basis, Debye-Ang):
   XX=            -86.8941   YY=            -96.9671   ZZ=            -93.3954
   XY=            -13.4783   XZ=              2.4102   YZ=             -0.1552

 Normal termination of Gaussian 16 at Thu May  6 12:11:44 2021.
