 Gaussian 16, Revision A.03,
 Gaussian 16:  EM64L-G16RevA.03 25-Dec-2016

 -------------
 #p 6-31g* mp2
 -------------

 ------------------------------------------------------
 Input file generated by CHIRIPA (05-May-2021 14:53:13)
 ------------------------------------------------------
 Symbolic Z-matrix:
 Charge =  0 Multiplicity = 1

                         Standard orientation:
 ---------------------------------------------------------------------
 Center     Atomic      Atomic             Coordinates (Angstroms)
 Number     Number       Type             X           Y           Z
 ---------------------------------------------------------------------
      1          6           0       -4.053191   -0.423661   -0.198208
      2          6           0       -4.850762   -1.308206    0.760669
      3          6           0       -5.244299   -2.648712    0.139408
      4          1           0       -4.647392   -0.248567   -1.105519
      5          1           0       -3.148977   -0.961266   -0.515657
      6          1           0       -5.752502   -0.768550    1.077296
      7          1           0       -4.254670   -1.481056    1.665884
      8          1           0       -4.353796   -3.210542   -0.160514
      9          1           0       -5.860138   -2.493987   -0.752446
     10          1           0       -5.813643   -3.265131    0.842071
     11          6           0       -3.652471    0.919885    0.408453
     12          6           0       -2.854900    1.804430   -0.550424
     13          6           0       -2.461363    3.144936    0.070837
     14          1           0       -4.556684    1.457490    0.725902
     15          1           0       -3.058270    0.744791    1.315764
     16          1           0       -3.450991    1.977280   -1.455639
     17          1           0       -1.953160    1.264774   -0.867051
     18          1           0       -1.845524    2.990211    0.962691
     19          1           0       -3.351866    3.706766    0.370759
     20          1           0       -1.892019    3.761355   -0.631826
     21          6           0        5.368055   -0.327001    0.805500
     22          6           0        5.113974   -0.577904   -0.546909
     23          6           0        3.811389   -0.506973   -1.049691
     24          6           0        2.782059   -0.180964   -0.167940
     25          6           0        3.003202    0.074429    1.184524
     26          6           0        4.313716   -0.002207    1.665386
     27          1           0        6.383014   -0.384317    1.187560
     28          1           0        5.930832   -0.830366   -1.217021
     29          1           0        3.586450   -0.696440   -2.092247
     30          1           0        2.168322    0.323747    1.828135
     31          1           0        4.508078    0.193149    2.716149
     32          7           0        1.398873   -0.102853   -0.688609
     33          8           0        0.509419    0.186346    0.108808
     34          8           0        1.230378   -0.332306   -1.884267
 ---------------------------------------------------------------------

 SCF Done:  E(RHF) =  -669.536694040     A.U. after   15 cycles
 E2 =    -0.2091309363D+01 EUMP2 =    -0.67162800340346D+03

 The electronic state is 1-A.
 Alpha  occ. eigenvalues --  -20.61109 -20.61093 -15.86113 -11.31384 -11.27938
 Alpha  occ. eigenvalues --  -11.27933 -11.27665 -11.26931 -11.26922 -11.20607
 Alpha  occ. eigenvalues --  -11.20237 -11.20080 -11.19973 -11.19823 -11.19737
 Alpha  occ. eigenvalues --   -1.60150  -1.39707  -1.19544  -1.08959  -1.07100
 Alpha  occ. eigenvalues --   -1.04931  -1.02261  -0.95809  -0.94768  -0.86334
 Alpha  occ. eigenvalues --   -0.85794  -0.82645  -0.78345  -0.77705  -0.76875
 Alpha  occ. eigenvalues --   -0.72334  -0.71455  -0.70652  -0.65201  -0.64935
 Alpha  occ. eigenvalues --   -0.63707  -0.62279  -0.59639  -0.58158  -0.56368
 Alpha  occ. eigenvalues --   -0.55438  -0.54057  -0.53265  -0.53022  -0.51510
 Alpha  occ. eigenvalues --   -0.51197  -0.49184  -0.49088  -0.48672  -0.46664
 Alpha  occ. eigenvalues --   -0.45346  -0.45111  -0.44457  -0.44206  -0.42515
 Alpha  occ. eigenvalues --   -0.37520  -0.36529
 Alpha virt. eigenvalues --    0.04817   0.11127   0.16325   0.21258   0.24133
 Alpha virt. eigenvalues --    0.25500   0.27188   0.27859   0.28264   0.28872
 Alpha virt. eigenvalues --    0.29183   0.30843   0.32302   0.32638   0.33012

 Mulliken charges:
               1
     1  C   -0.299936
     2  C   -0.298598
     3  C   -0.475004
     4  H    0.145890
     5  H    0.159834
     6  H    0.148357
     7  H    0.150228
     8  H    0.155624
     9  H    0.153741
    10  H    0.156121
    11  C   -0.295445
    12  C   -0.309210
    13  C   -0.473779
    14  H    0.141672
    15  H    0.150232
    16  H    0.143715
    17  H    0.182777
    18  H    0.154311
    19  H    0.147621
    20  H    0.155929
    21  C   -0.170380
    22  C   -0.218597
    23  C   -0.170568
    24  C    0.157911
    25  C   -0.170585
    26  C   -0.218544
    27  H    0.226347
    28  H    0.224144
    29  H    0.276064
    30  H    0.275766
    31  H    0.224172
    32  N    0.489126
    33  O   -0.460483
    34  O   -0.458452
 Sum of Mulliken charges =  -0.00000

 Dipole moment (field-independent basis, Debye):
    X=              5.3397    Y=             -0.3965    Z=              1.7614  Tot=              5.6367
 Quadrupole moment (field-independent basis, Debye-Ang):
   XX=            -68.4848   YY=            -96.9835   ZZ=            -91.3090
   XY=             -2.5805   XZ=              3.0823   YZ=              0.5846

 Normal termination of Gaussian 16 at Thu May  6 08:55:54 2021.
