 Gaussian 16, Revision A.03,
 Gaussian 16:  EM64L-G16RevA.03 25-Dec-2016

 -------------
 #p 6-31g* mp2
 -------------

 ------------------------------------------------------
 Input file generated by CHIRIPA (05-May-2021 14:53:13)
 ------------------------------------------------------
 Symbolic Z-matrix:
 Charge =  0 Multiplicity = 1

                         Standard orientation:
 ---------------------------------------------------------------------
 Center     Atomic      Atomic             Coordinates (Angstroms)
 Number     Number       Type             X           Y           Z
 ---------------------------------------------------------------------
      1          6           0       -3.899070    0.173132   -0.151155
      2          6           0       -5.422612    0.047367   -0.182573
      3          6           0       -6.082293    1.080097   -1.096949
      4          1           0       -3.627786    1.184820    0.180260
      5          1           0       -3.507925    0.063270   -1.172101
      6          1           0       -5.810656    0.156053    0.838321
      7          1           0       -5.690299   -0.964201   -0.513768
      8          1           0       -5.723199    0.969379   -2.125245
      9          1           0       -5.844240    2.095998   -0.765474
     10          1           0       -7.171398    0.972142   -1.104452
     11          6           0       -3.225166   -0.852499    0.758605
     12          6           0       -1.701624   -0.726734    0.790023
     13          6           0       -1.041943   -1.759465    1.704399
     14          1           0       -3.616311   -0.742638    1.779551
     15          1           0       -3.496450   -1.864188    0.427190
     16          1           0       -1.433936    0.284834    1.121218
     17          1           0       -1.313579   -0.835421   -0.230871
     18          1           0       -1.279996   -2.775366    1.372924
     19          1           0       -1.401037   -1.648747    2.732695
     20          1           0        0.047162   -1.651510    1.711902
     21          6           0        2.369382    2.666880    0.416710
     22          6           0        1.351276    1.920023   -0.185109
     23          6           0        1.569177    0.588588   -0.551644
     24          6           0        2.822882    0.033210   -0.300511
     25          6           0        3.857295    0.751359    0.297437
     26          6           0        3.616943    2.081197    0.655641
     27          1           0        2.191391    3.700551    0.698207
     28          1           0        0.381411    2.372269   -0.371875
     29          1           0        0.798683   -0.012513   -1.019014
     30          1           0        4.813647    0.273102    0.470870
     31          1           0        4.409471    2.658814    1.122868
     32          7           0        3.065449   -1.375476   -0.684135
     33          8           0        4.178793   -1.841601   -0.452125
     34          8           0        2.137635   -1.986804   -1.209564
 ---------------------------------------------------------------------

 SCF Done:  E(RHF) =  -669.535481157     A.U. after   15 cycles
 E2 =    -0.2092420207D+01 EUMP2 =    -0.67162790136392D+03

 The electronic state is 1-A.
 Alpha  occ. eigenvalues --  -20.60779 -20.60774 -15.85826 -11.31167 -11.27747
 Alpha  occ. eigenvalues --  -11.27703 -11.27487 -11.26756 -11.26732 -11.21912
 Alpha  occ. eigenvalues --  -11.21846 -11.21715 -11.21591 -11.21316 -11.21023
 Alpha  occ. eigenvalues --   -1.59850  -1.39404  -1.19346  -1.08746  -1.08691
 Alpha  occ. eigenvalues --   -1.04745  -1.03735  -0.96155  -0.95580  -0.87166
 Alpha  occ. eigenvalues --   -0.86144  -0.82415  -0.79839  -0.78557  -0.77442
 Alpha  occ. eigenvalues --   -0.72044  -0.71173  -0.70459  -0.65333  -0.64995
 Alpha  occ. eigenvalues --   -0.64737  -0.62128  -0.61113  -0.59523  -0.57785
 Alpha  occ. eigenvalues --   -0.55433  -0.55242  -0.53091  -0.52849  -0.52800
 Alpha  occ. eigenvalues --   -0.52570  -0.50083  -0.48804  -0.48801  -0.48125
 Alpha  occ. eigenvalues --   -0.46855  -0.46059  -0.45987  -0.44809  -0.43993
 Alpha  occ. eigenvalues --   -0.37331  -0.36316
 Alpha virt. eigenvalues --    0.05049   0.11236   0.16498   0.20646   0.22794
 Alpha virt. eigenvalues --    0.24025   0.25505   0.25965   0.27579   0.28196
 Alpha virt. eigenvalues --    0.29048   0.30070   0.31487   0.31607   0.32001

 Mulliken charges:
               1
     1  C   -0.298441
     2  C   -0.299747
     3  C   -0.475905
     4  H    0.144740
     5  H    0.148693
     6  H    0.152515
     7  H    0.154290
     8  H    0.155525
     9  H    0.153524
    10  H    0.161586
    11  C   -0.297813
    12  C   -0.305477
    13  C   -0.473905
    14  H    0.150404
    15  H    0.153796
    16  H    0.146303
    17  H    0.150542
    18  H    0.161506
    19  H    0.153623
    20  H    0.162641
    21  C   -0.170927
    22  C   -0.221205
    23  C   -0.170707
    24  C    0.156561
    25  C   -0.170682
    26  C   -0.218748
    27  H    0.225496
    28  H    0.224563
    29  H    0.281763
    30  H    0.275520
    31  H    0.223338
    32  N    0.487617
    33  O   -0.460186
    34  O   -0.460803
 Sum of Mulliken charges =  -0.00000

 Dipole moment (field-independent basis, Debye):
    X=             -0.8962    Y=              4.8545    Z=              1.3707  Tot=              5.1233
 Quadrupole moment (field-independent basis, Debye-Ang):
   XX=            -95.4575   YY=            -94.8613   ZZ=            -95.5221
   XY=             15.1486   XZ=              5.5663   YZ=             -0.4273

 Normal termination of Gaussian 16 at Thu May  6 17:03:55 2021.
