 Gaussian 16, Revision A.03,
 Gaussian 16:  EM64L-G16RevA.03 25-Dec-2016

 -------------
 #p 6-31g* mp2
 -------------

 ------------------------------------------------------
 Input file generated by CHIRIPA (05-May-2021 14:51:09)
 ------------------------------------------------------
 Symbolic Z-matrix:
 Charge =  0 Multiplicity = 1

                         Standard orientation:
 ---------------------------------------------------------------------
 Center     Atomic      Atomic             Coordinates (Angstroms)
 Number     Number       Type             X           Y           Z
 ---------------------------------------------------------------------
      1          6           0        3.517332    1.201022    0.142784
      2          6           0        2.411468    2.200333   -0.198431
      3          6           0        2.769502    3.634511    0.192391
      4          1           0        3.725318    1.247835    1.220511
      5          1           0        4.443115    1.500859   -0.367528
      6          1           0        1.487687    1.897924    0.311269
      7          1           0        2.205957    2.150999   -1.275439
      8          1           0        3.676810    3.960139   -0.326608
      9          1           0        2.954459    3.705626    1.269115
     10          1           0        1.965080    4.332240   -0.060469
     11          6           0        3.174182   -0.237026   -0.241916
     12          6           0        4.280046   -1.236338    0.099299
     13          6           0        3.922012   -2.670515   -0.291522
     14          1           0        2.248400   -0.536863    0.268396
     15          1           0        2.966196   -0.283839   -1.319643
     16          1           0        4.485557   -1.187003    1.176307
     17          1           0        5.203827   -0.933928   -0.410400
     18          1           0        3.737056   -2.741631   -1.368246
     19          1           0        3.014704   -2.996143    0.227477
     20          1           0        4.726435   -3.368244   -0.038662
     21          6           0       -3.983554   -0.206739    0.367182
     22          6           0       -4.924124    0.457419   -0.638904
     23          6           0       -6.195647    1.003142    0.011641
     24          1           0       -4.516581   -1.022374    0.874693
     25          1           0       -3.715112    0.522334    1.144219
     26          1           0       -5.189611   -0.272288   -1.414572
     27          1           0       -4.388736    1.271443   -1.144214
     28          1           0       -5.948805    1.750850    0.772301
     29          1           0       -6.754230    0.198347    0.500407
     30          1           0       -6.853663    1.473629   -0.725595
     31          6           0       -2.707960   -0.757257   -0.268050
     32          6           0       -1.767390   -1.421414    0.738035
     33          6           0       -0.495867   -1.967138    0.087490
     34          1           0       -2.976402   -1.486331   -1.045087
     35          1           0       -2.174934    0.058379   -0.775561
     36          1           0       -2.302778   -2.235439    1.243346
     37          1           0       -1.501904   -0.691708    1.513704
     38          1           0        0.062716   -1.162343   -0.401275
     39          1           0       -0.742709   -2.714845   -0.673169
     40          1           0        0.162149   -2.437624    0.824726
 ---------------------------------------------------------------------

 SCF Done:  E(RHF) =  -470.732922669     A.U. after   11 cycles
 E2 =    -0.1583124884D+01 EUMP2 =    -0.47231604755330D+03

 The electronic state is 1-A.
 Alpha  occ. eigenvalues --  -11.21630 -11.21617 -11.21606 -11.21551 -11.21413
 Alpha  occ. eigenvalues --  -11.21366 -11.21354 -11.21268 -11.21093 -11.21075
 Alpha  occ. eigenvalues --  -11.21047 -11.21005  -1.08445  -1.08399  -1.03547
 Alpha  occ. eigenvalues --   -1.03501  -0.96000  -0.95945  -0.87025  -0.86957
 Alpha  occ. eigenvalues --   -0.79657  -0.79534  -0.78293  -0.78172  -0.65129
 Alpha  occ. eigenvalues --   -0.64988  -0.60972  -0.60887  -0.59399  -0.59282
 Alpha  occ. eigenvalues --   -0.57646  -0.57528  -0.55385  -0.55149  -0.52711
 Alpha  occ. eigenvalues --   -0.52646  -0.52478  -0.52315  -0.50046  -0.49807
 Alpha  occ. eigenvalues --   -0.47943  -0.47871  -0.46743  -0.46582  -0.45888
 Alpha  occ. eigenvalues --   -0.45742  -0.45715  -0.45413  -0.43777  -0.43750
 Alpha virt. eigenvalues --    0.21413   0.23061   0.23721   0.24214   0.26167
 Alpha virt. eigenvalues --    0.26499   0.26998   0.27315   0.27767   0.29495
 Alpha virt. eigenvalues --    0.30086   0.31484   0.31754   0.31813   0.32281

 Mulliken charges:
               1
     1  C   -0.297639
     2  C   -0.300155
     3  C   -0.475561
     4  H    0.149346
     5  H    0.149373
     6  H    0.151017
     7  H    0.151775
     8  H    0.155462
     9  H    0.155258
    10  H    0.160033
    11  C   -0.305501
    12  C   -0.299249
    13  C   -0.477398
    14  H    0.159119
    15  H    0.148716
    16  H    0.151340
    17  H    0.151521
    18  H    0.155232
    19  H    0.157482
    20  H    0.159732
    21  C   -0.298254
    22  C   -0.299674
    23  C   -0.475711
    24  H    0.149671
    25  H    0.149427
    26  H    0.151962
    27  H    0.152017
    28  H    0.155173
    29  H    0.155179
    30  H    0.160284
    31  C   -0.298723
    32  C   -0.300024
    33  C   -0.481311
    34  H    0.149670
    35  H    0.150195
    36  H    0.152008
    37  H    0.151205
    38  H    0.161771
    39  H    0.155608
    40  H    0.159628
 Sum of Mulliken charges =  -0.00000

 Dipole moment (field-independent basis, Debye):
    X=             -0.0172    Y=             -0.0092    Z=             -0.0106  Tot=              0.0222
 Quadrupole moment (field-independent basis, Debye-Ang):
   XX=            -85.4933   YY=            -85.3664   ZZ=            -84.0696
   XY=              0.8014   XZ=             -0.0010   YZ=             -0.3617

 Normal termination of Gaussian 16 at Thu May  6 06:54:27 2021.
