 Gaussian 16, Revision A.03,
 Gaussian 16:  EM64L-G16RevA.03 25-Dec-2016

 -------------
 #p 6-31g* mp2
 -------------

 ------------------------------------------------------
 Input file generated by CHIRIPA (05-May-2021 14:57:25)
 ------------------------------------------------------
 Symbolic Z-matrix:
 Charge =  0 Multiplicity = 1

                         Standard orientation:
 ---------------------------------------------------------------------
 Center     Atomic      Atomic             Coordinates (Angstroms)
 Number     Number       Type             X           Y           Z
 ---------------------------------------------------------------------
      1          6           0        4.538941    0.989606   -0.541285
      2          6           0        3.738893    1.456783    0.506661
      3          6           0        2.658416    0.698637    0.967455
      4          6           0        2.405505   -0.527650    0.354637
      5          6           0        3.184230   -1.020258   -0.691410
      6          6           0        4.259548   -0.245246   -1.135928
      7          1           0        5.376277    1.585103   -0.892919
      8          1           0        3.953519    2.415413    0.970352
      9          1           0        2.022826    1.036355    1.777017
     10          1           0        2.945473   -1.979793   -1.133797
     11          1           0        4.879175   -0.610573   -1.949957
     12          7           0        1.264382   -1.339192    0.833843
     13          8           0        1.062511   -2.416239    0.277196
     14          8           0        0.593449   -0.882866    1.757018
     15          6           0       -3.504161   -1.958240   -0.340510
     16          6           0       -2.281916   -1.663633   -0.953573
     17          6           0       -1.767766   -0.363897   -0.923893
     18          6           0       -2.505543    0.621294   -0.269388
     19          6           0       -3.726207    0.359133    0.350725
     20          6           0       -4.221141   -0.947698    0.308539
     21          1           0       -3.896100   -2.970664   -0.368424
     22          1           0       -1.722932   -2.446432   -1.458358
     23          1           0       -0.824115   -0.108147   -1.390298
     24          1           0       -4.260595    1.160555    0.846278
     25          1           0       -5.170622   -1.173593    0.785512
     26          7           0       -1.971408    2.001023   -0.231347
     27          8           0       -2.640669    2.851172    0.351725
     28          8           0       -0.893605    2.206179   -0.785322
 ---------------------------------------------------------------------

 SCF Done:  E(RHF) =  -868.339672162     A.U. after   16 cycles
 E2 =    -0.2600884286D+01 EUMP2 =    -0.87094055644788D+03

 The electronic state is 1-A.
 Alpha  occ. eigenvalues --  -20.61055 -20.60985 -20.60219 -20.60194 -15.86023
 Alpha  occ. eigenvalues --  -15.85244 -11.31095 -11.30273 -11.27705 -11.27571
 Alpha  occ. eigenvalues --  -11.27330 -11.26800 -11.26789 -11.26630 -11.26515
 Alpha  occ. eigenvalues --  -11.26445 -11.25803 -11.25662  -1.60084  -1.59283
 Alpha  occ. eigenvalues --   -1.39648  -1.38850  -1.19241  -1.18386  -1.08701
 Alpha  occ. eigenvalues --   -1.07852  -1.04595  -1.03754  -0.95585  -0.94760
 Alpha  occ. eigenvalues --   -0.86018  -0.85184  -0.82431  -0.81611  -0.77510
 Alpha  occ. eigenvalues --   -0.76706  -0.72271  -0.71541  -0.71395  -0.70569
 Alpha  occ. eigenvalues --   -0.70360  -0.69536  -0.64905  -0.64606  -0.64063
 Alpha  occ. eigenvalues --   -0.63775  -0.61955  -0.61135  -0.55126  -0.54295
 Alpha  occ. eigenvalues --   -0.52943  -0.52694  -0.52052  -0.51869  -0.49041
 Alpha  occ. eigenvalues --   -0.48980  -0.48255  -0.48205  -0.45123  -0.44334
 Alpha  occ. eigenvalues --   -0.37213  -0.36319  -0.36156  -0.35270
 Alpha virt. eigenvalues --    0.04971   0.05822   0.11482   0.12334   0.16525
 Alpha virt. eigenvalues --    0.17421   0.21591   0.22336   0.27522   0.28018
 Alpha virt. eigenvalues --    0.28547   0.29049   0.31195   0.31852   0.32721

 Mulliken charges:
               1
     1  C   -0.169073
     2  C   -0.216320
     3  C   -0.162005
     4  C    0.155370
     5  C   -0.173729
     6  C   -0.218227
     7  H    0.226348
     8  H    0.226649
     9  H    0.278573
    10  H    0.271015
    11  H    0.222287
    12  N    0.487070
    13  O   -0.470128
    14  O   -0.455153
    15  C   -0.170055
    16  C   -0.204131
    17  C   -0.172366
    18  C    0.164387
    19  C   -0.171501
    20  C   -0.217063
    21  H    0.223803
    22  H    0.228514
    23  H    0.266524
    24  H    0.271676
    25  H    0.220024
    26  N    0.488581
    27  O   -0.462836
    28  O   -0.468234
 Sum of Mulliken charges =  -0.00000

 Dipole moment (field-independent basis, Debye):
    X=              2.2948    Y=             -1.9971    Z=             -1.6717  Tot=              3.4712
 Quadrupole moment (field-independent basis, Debye-Ang):
   XX=            -73.4361   YY=           -112.0824   ZZ=           -103.3443
   XY=             14.8641   XZ=             -5.0789   YZ=              6.9781

 Normal termination of Gaussian 16 at Thu May  6 11:24:27 2021.
