 Gaussian 16, Revision A.03,
 Gaussian 16:  EM64L-G16RevA.03 25-Dec-2016

 -------------
 #p 6-31g* mp2
 -------------

 ------------------------------------------------------
 Input file generated by CHIRIPA (05-May-2021 14:55:25)
 ------------------------------------------------------
 Symbolic Z-matrix:
 Charge =  0 Multiplicity = 1

                         Standard orientation:
 ---------------------------------------------------------------------
 Center     Atomic      Atomic             Coordinates (Angstroms)
 Number     Number       Type             X           Y           Z
 ---------------------------------------------------------------------
      1          6           0        4.766905   -0.155173   -0.871019
      2          6           0        4.064862   -1.331349   -0.587708
      3          6           0        2.807251   -1.278519    0.020710
      4          6           0        2.279197   -0.026904    0.333616
      5          6           0        2.954090    1.162685    0.064013
      6          6           0        4.210260    1.085903   -0.544830
      7          1           0        5.743287   -0.205516   -1.343818
      8          1           0        4.494704   -2.296581   -0.839913
      9          1           0        2.242072   -2.173425    0.251218
     10          1           0        2.499731    2.110160    0.327201
     11          1           0        4.753203    2.000977   -0.763682
     12          7           0        0.948584    0.041703    0.977946
     13          8           0        0.505209    1.156802    1.243673
     14          8           0        0.374219   -1.020920    1.205044
     15          6           0       -3.125520    0.704668   -0.676004
     16          6           0       -3.097806    1.938082    0.227272
     17          6           0       -2.952222    3.242280   -0.557374
     18          1           0       -2.203607    0.674273   -1.272743
     19          1           0       -3.956308    0.799463   -1.388885
     20          1           0       -2.268165    1.840345    0.939143
     21          1           0       -4.019806    1.965441    0.822069
     22          1           0       -3.785866    3.366614   -1.256070
     23          1           0       -2.024273    3.240807   -1.138331
     24          1           0       -2.934627    4.111198    0.107857
     25          6           0       -3.270635   -0.606846    0.093802
     26          6           0       -3.298350   -1.840260   -0.809474
     27          6           0       -3.443935   -3.144458   -0.024829
     28          1           0       -2.439848   -0.701641    0.806683
     29          1           0       -4.192548   -0.576451    0.690541
     30          1           0       -2.376350   -1.867619   -1.404271
     31          1           0       -4.127990   -1.742523   -1.521345
     32          1           0       -4.371882   -3.142985    0.556129
     33          1           0       -2.610289   -3.268792    0.673868
     34          1           0       -3.461528   -4.013376   -0.690059
 ---------------------------------------------------------------------

 SCF Done:  E(RHF) =  -669.537160907     A.U. after   15 cycles
 E2 =    -0.2092740822D+01 EUMP2 =    -0.67162990172893D+03

 The electronic state is 1-A.
 Alpha  occ. eigenvalues --  -20.61275 -20.61269 -15.86256 -11.31467 -11.28009
 Alpha  occ. eigenvalues --  -11.28005 -11.27727 -11.26989 -11.26979 -11.20374
 Alpha  occ. eigenvalues --  -11.20003 -11.19955 -11.19948 -11.19891 -11.19673
 Alpha  occ. eigenvalues --   -1.60301  -1.39861  -1.19619  -1.09046  -1.06969
 Alpha  occ. eigenvalues --   -1.04995  -1.02194  -0.95905  -0.94678  -0.86402
 Alpha  occ. eigenvalues --   -0.85704  -0.82745  -0.78257  -0.77811  -0.76770
 Alpha  occ. eigenvalues --   -0.72477  -0.71603  -0.70726  -0.65276  -0.65001
 Alpha  occ. eigenvalues --   -0.63572  -0.62342  -0.59577  -0.58055  -0.56294
 Alpha  occ. eigenvalues --   -0.55506  -0.53965  -0.53332  -0.53084  -0.51431
 Alpha  occ. eigenvalues --   -0.51122  -0.49284  -0.49282  -0.48584  -0.46600
 Alpha  occ. eigenvalues --   -0.45442  -0.45034  -0.44383  -0.44039  -0.42419
 Alpha  occ. eigenvalues --   -0.37589  -0.36589
 Alpha virt. eigenvalues --    0.04678   0.11068   0.16179   0.21189   0.24310
 Alpha virt. eigenvalues --    0.25517   0.27145   0.27796   0.28283   0.29045
 Alpha virt. eigenvalues --    0.29476   0.30880   0.32118   0.32710   0.33015

 Mulliken charges:
               1
     1  C   -0.170119
     2  C   -0.218600
     3  C   -0.170308
     4  C    0.157862
     5  C   -0.170526
     6  C   -0.218600
     7  H    0.226722
     8  H    0.224534
     9  H    0.276193
    10  H    0.276336
    11  H    0.224550
    12  N    0.489903
    13  O   -0.458738
    14  O   -0.458749
    15  C   -0.293684
    16  C   -0.310044
    17  C   -0.473314
    18  H    0.143185
    19  H    0.141601
    20  H    0.180244
    21  H    0.145213
    22  H    0.149090
    23  H    0.151121
    24  H    0.156461
    25  C   -0.311303
    26  C   -0.295389
    27  C   -0.476983
    28  H    0.179872
    29  H    0.142827
    30  H    0.147432
    31  H    0.145470
    32  H    0.152223
    33  H    0.162545
    34  H    0.152973
 Sum of Mulliken charges =  -0.00000

 Dipole moment (field-independent basis, Debye):
    X=              5.2108    Y=             -0.2686    Z=             -1.9987  Tot=              5.5875
 Quadrupole moment (field-independent basis, Debye-Ang):
   XX=            -74.2945   YY=            -91.6036   ZZ=            -97.4804
   XY=             -0.4587   XZ=             -4.4898   YZ=              0.5787

 Normal termination of Gaussian 16 at Wed May  5 17:39:27 2021.
