 Gaussian 16, Revision A.03,
 Gaussian 16:  EM64L-G16RevA.03 25-Dec-2016

 -------------
 #p 6-31g* mp2
 -------------

 ------------------------------------------------------
 Input file generated by CHIRIPA (05-May-2021 14:51:08)
 ------------------------------------------------------
 Symbolic Z-matrix:
 Charge =  0 Multiplicity = 1

                         Standard orientation:
 ---------------------------------------------------------------------
 Center     Atomic      Atomic             Coordinates (Angstroms)
 Number     Number       Type             X           Y           Z
 ---------------------------------------------------------------------
      1          6           0       -3.091999   -0.008506    0.240991
      2          6           0       -3.626385    0.626105   -1.043410
      3          6           0       -4.525755    1.833438   -0.776437
      4          1           0       -3.938438   -0.312409    0.871966
      5          1           0       -2.533333    0.747304    0.810234
      6          1           0       -4.182704   -0.131044   -1.610728
      7          1           0       -2.778576    0.928359   -1.671486
      8          1           0       -3.977914    2.608859   -0.231283
      9          1           0       -5.390020    1.543437   -0.170180
     10          1           0       -4.896670    2.271606   -1.708258
     11          6           0       -2.191280   -1.216681   -0.009505
     12          6           0       -1.656894   -1.851293    1.274895
     13          6           0       -0.757524   -3.058625    1.007923
     14          1           0       -2.749946   -1.972492   -0.578748
     15          1           0       -1.344842   -0.912778   -0.640480
     16          1           0       -2.504703   -2.153546    1.902971
     17          1           0       -1.100575   -1.094144    1.842214
     18          1           0        0.106741   -2.768624    0.401666
     19          1           0       -1.305365   -3.834046    0.462768
     20          1           0       -0.386609   -3.496794    1.939744
     21          6           0        2.491567    1.112314    0.442101
     22          6           0        2.218954    2.527497   -0.068704
     23          6           0        1.920371    3.515774    1.059104
     24          1           0        1.622967    0.763207    1.017081
     25          1           0        3.338874    1.139207    1.141203
     26          1           0        1.373294    2.497727   -0.767697
     27          1           0        3.088228    2.873202   -0.642696
     28          1           0        2.765067    3.575050    1.753060
     29          1           0        1.040390    3.197442    1.627350
     30          1           0        1.728490    4.521183    0.671556
     31          6           0        2.791712    0.112873   -0.673587
     32          6           0        3.064326   -1.302310   -0.162781
     33          6           0        3.362908   -2.290586   -1.290590
     34          1           0        1.944405    0.085979   -1.372688
     35          1           0        3.660313    0.461980   -1.248566
     36          1           0        2.195052   -1.648015    0.411211
     37          1           0        3.909984   -1.272541    0.536212
     38          1           0        4.242889   -1.972256   -1.858835
     39          1           0        2.518212   -2.349864   -1.984545
     40          1           0        3.554789   -3.295996   -0.903042
 ---------------------------------------------------------------------

 SCF Done:  E(RHF) =  -470.733370508     A.U. after   11 cycles
 E2 =    -0.1583249939D+01 EUMP2 =    -0.47231662044681D+03

 The electronic state is 1-A.
 Alpha  occ. eigenvalues --  -11.21668 -11.21653 -11.21647 -11.21607 -11.21468
 Alpha  occ. eigenvalues --  -11.21457 -11.21407 -11.21397 -11.21118 -11.21103
 Alpha  occ. eigenvalues --  -11.21102 -11.21089  -1.08499  -1.08466  -1.03599
 Alpha  occ. eigenvalues --   -1.03551  -0.96042  -0.96005  -0.87054  -0.87024
 Alpha  occ. eigenvalues --   -0.79681  -0.79593  -0.78303  -0.78287  -0.65278
 Alpha  occ. eigenvalues --   -0.64971  -0.61162  -0.60808  -0.59394  -0.59384
 Alpha  occ. eigenvalues --   -0.57661  -0.57604  -0.55426  -0.55207  -0.52720
 Alpha  occ. eigenvalues --   -0.52705  -0.52464  -0.52428  -0.50073  -0.49886
 Alpha  occ. eigenvalues --   -0.48030  -0.47887  -0.46821  -0.46501  -0.45937
 Alpha  occ. eigenvalues --   -0.45806  -0.45728  -0.45658  -0.43837  -0.43823
 Alpha virt. eigenvalues --    0.19253   0.22966   0.23995   0.24413   0.25816
 Alpha virt. eigenvalues --    0.26390   0.27171   0.28031   0.28481   0.29291
 Alpha virt. eigenvalues --    0.30953   0.31517   0.31676   0.31843   0.31863

 Mulliken charges:
               1
     1  C   -0.298262
     2  C   -0.299624
     3  C   -0.475777
     4  H    0.149999
     5  H    0.149174
     6  H    0.152115
     7  H    0.151650
     8  H    0.155332
     9  H    0.155302
    10  H    0.160432
    11  C   -0.298664
    12  C   -0.300428
    13  C   -0.481835
    14  H    0.149974
    15  H    0.149078
    16  H    0.152534
    17  H    0.151856
    18  H    0.161226
    19  H    0.155643
    20  H    0.160535
    21  C   -0.298952
    22  C   -0.299625
    23  C   -0.475656
    24  H    0.149530
    25  H    0.149969
    26  H    0.151521
    27  H    0.152287
    28  H    0.155458
    29  H    0.154759
    30  H    0.160481
    31  C   -0.298402
    32  C   -0.306861
    33  C   -0.475880
    34  H    0.148990
    35  H    0.150076
    36  H    0.158235
    37  H    0.152411
    38  H    0.155385
    39  H    0.155120
    40  H    0.160893
 Sum of Mulliken charges =  -0.00000

 Dipole moment (field-independent basis, Debye):
    X=              0.0015    Y=             -0.0123    Z=              0.0034  Tot=              0.0129
 Quadrupole moment (field-independent basis, Debye-Ang):
   XX=            -83.4645   YY=            -85.7718   ZZ=            -85.2953
   XY=              1.5332   XZ=              0.2337   YZ=             -0.6245

 Normal termination of Gaussian 16 at Wed May  5 15:05:39 2021.
