 Gaussian 16, Revision A.03,
 Gaussian 16:  EM64L-G16RevA.03 25-Dec-2016

 -------------
 #p 6-31g* mp2
 -------------

 ------------------------------------------------------
 Input file generated by CHIRIPA (05-May-2021 14:53:12)
 ------------------------------------------------------
 Symbolic Z-matrix:
 Charge =  0 Multiplicity = 1

                         Standard orientation:
 ---------------------------------------------------------------------
 Center     Atomic      Atomic             Coordinates (Angstroms)
 Number     Number       Type             X           Y           Z
 ---------------------------------------------------------------------
      1          6           0       -3.271972    1.336989    0.153362
      2          6           0       -1.861301    1.925599    0.114239
      3          6           0       -1.839353    3.427602    0.399373
      4          1           0       -3.901125    1.860062   -0.579785
      5          1           0       -3.715197    1.530350    1.140052
      6          1           0       -1.420351    1.729975   -0.871616
      7          1           0       -1.235382    1.400935    0.847429
      8          1           0       -2.254589    3.637702    1.390352
      9          1           0       -2.440609    3.968612   -0.338461
     10          1           0       -0.821157    3.827662    0.366391
     11          6           0       -3.310297   -0.163711   -0.129761
     12          6           0       -4.720968   -0.752321   -0.090638
     13          6           0       -4.742916   -2.254323   -0.375773
     14          1           0       -2.867072   -0.357071   -1.116452
     15          1           0       -2.681144   -0.686784    0.603386
     16          1           0       -5.346887   -0.227656   -0.823829
     17          1           0       -5.161918   -0.556697    0.895217
     18          1           0       -4.141660   -2.795333    0.362062
     19          1           0       -4.327680   -2.464423   -1.366751
     20          1           0       -5.761112   -2.654384   -0.342790
     21          6           0        4.551884    1.080063   -0.285283
     22          6           0        3.253638    1.573933   -0.450118
     23          6           0        2.148751    0.730666   -0.299547
     24          6           0        2.379714   -0.607036    0.017469
     25          6           0        3.661043   -1.128931    0.188089
     26          6           0        4.751092   -0.267417    0.032734
     27          1           0        5.404423    1.742221   -0.404108
     28          1           0        3.095926    2.619958   -0.697109
     29          1           0        1.132976    1.086674   -0.421518
     30          1           0        3.786596   -2.176363    0.434137
     31          1           0        5.758204   -0.653723    0.161338
     32          7           0        1.217873   -1.509424    0.179405
     33          8           0        1.448082   -2.683970    0.458836
     34          8           0        0.099013   -1.025082    0.023832
 ---------------------------------------------------------------------

 SCF Done:  E(RHF) =  -669.535406710     A.U. after   15 cycles
 E2 =    -0.2093061713D+01 EUMP2 =    -0.67162846842326D+03

 The electronic state is 1-A.
 Alpha  occ. eigenvalues --  -20.60911 -20.60893 -15.85932 -11.31235 -11.27811
 Alpha  occ. eigenvalues --  -11.27758 -11.27546 -11.26813 -11.26795 -11.21070
 Alpha  occ. eigenvalues --  -11.20906 -11.20626 -11.20584 -11.20040 -11.20020
 Alpha  occ. eigenvalues --   -1.59974  -1.39531  -1.19409  -1.08821  -1.07549
 Alpha  occ. eigenvalues --   -1.04801  -1.02800  -0.95667  -0.95235  -0.86264
 Alpha  occ. eigenvalues --   -0.86189  -0.82508  -0.78924  -0.77679  -0.77100
 Alpha  occ. eigenvalues --   -0.72142  -0.71288  -0.70519  -0.65066  -0.64809
 Alpha  occ. eigenvalues --   -0.64185  -0.62160  -0.60203  -0.58668  -0.56833
 Alpha  occ. eigenvalues --   -0.55309  -0.54518  -0.53138  -0.52895  -0.52006
 Alpha  occ. eigenvalues --   -0.51654  -0.49206  -0.48933  -0.48897  -0.47136
 Alpha  occ. eigenvalues --   -0.45946  -0.45072  -0.44783  -0.44478  -0.42984
 Alpha  occ. eigenvalues --   -0.37394  -0.36402
 Alpha virt. eigenvalues --    0.04934   0.11230   0.16426   0.20791   0.23587
 Alpha virt. eigenvalues --    0.24486   0.26538   0.27555   0.27787   0.28737
 Alpha virt. eigenvalues --    0.29490   0.31000   0.31630   0.32063   0.32444

 Mulliken charges:
               1
     1  C   -0.297959
     2  C   -0.304467
     3  C   -0.474722
     4  H    0.144818
     5  H    0.146548
     6  H    0.147370
     7  H    0.162490
     8  H    0.156269
     9  H    0.154614
    10  H    0.148570
    11  C   -0.298928
    12  C   -0.299965
    13  C   -0.474438
    14  H    0.151571
    15  H    0.170122
    16  H    0.146239
    17  H    0.147759
    18  H    0.160181
    19  H    0.155304
    20  H    0.154914
    21  C   -0.170104
    22  C   -0.221828
    23  C   -0.176851
    24  C    0.154322
    25  C   -0.169696
    26  C   -0.219185
    27  H    0.225800
    28  H    0.224108
    29  H    0.289556
    30  H    0.275558
    31  H    0.223545
    32  N    0.492776
    33  O   -0.459490
    34  O   -0.464802
 Sum of Mulliken charges =  -0.00000

 Dipole moment (field-independent basis, Debye):
    X=              4.2599    Y=              2.9348    Z=             -0.5165  Tot=              5.1987
 Quadrupole moment (field-independent basis, Debye-Ang):
   XX=            -74.7762   YY=            -97.8611   ZZ=            -94.5166
   XY=              2.5783   XZ=             -0.7136   YZ=             -0.9436

 Normal termination of Gaussian 16 at Thu May  6 12:01:07 2021.
