 Gaussian 16, Revision A.03,
 Gaussian 16:  EM64L-G16RevA.03 25-Dec-2016

 -------------
 #p 6-31g* mp2
 -------------

 ------------------------------------------------------
 Input file generated by CHIRIPA (05-May-2021 14:53:15)
 ------------------------------------------------------
 Symbolic Z-matrix:
 Charge =  0 Multiplicity = 1

                         Standard orientation:
 ---------------------------------------------------------------------
 Center     Atomic      Atomic             Coordinates (Angstroms)
 Number     Number       Type             X           Y           Z
 ---------------------------------------------------------------------
      1          6           0        2.643477   -0.366811   -0.189918
      2          6           0        3.628128   -1.413991   -0.711322
      3          6           0        3.167465   -2.846172   -0.438483
      4          1           0        2.504555   -0.509266    0.890523
      5          1           0        1.662152   -0.532346   -0.655746
      6          1           0        4.607657   -1.245674   -0.245697
      7          1           0        3.764868   -1.268906   -1.790613
      8          1           0        2.201560   -3.037901   -0.916885
      9          1           0        3.049138   -3.014537    0.636809
     10          1           0        3.886071   -3.578497   -0.819488
     11          6           0        3.090113    1.069811   -0.455173
     12          6           0        2.105462    2.116991    0.066231
     13          6           0        2.566125    3.549172   -0.206608
     14          1           0        4.071438    1.235346    0.010655
     15          1           0        3.229034    1.212265   -1.535614
     16          1           0        1.968722    1.971906    1.145522
     17          1           0        1.125932    1.948674   -0.399394
     18          1           0        2.684452    3.717537   -1.281900
     19          1           0        3.532030    3.740900    0.271794
     20          1           0        1.847519    4.281497    0.174397
     21          6           0       -0.356307   -1.076800    1.726881
     22          6           0       -0.954153    0.164556    1.967995
     23          6           0       -1.998450    0.619133    1.157224
     24          6           0       -2.421762   -0.197057    0.109401
     25          6           0       -1.846309   -1.438652   -0.156279
     26          6           0       -0.803505   -1.873038    0.667381
     27          1           0        0.454348   -1.422084    2.361713
     28          1           0       -0.608910    0.785042    2.790097
     29          1           0       -2.479104    1.575913    1.321429
     30          1           0       -2.212141   -2.034886   -0.983376
     31          1           0       -0.341078   -2.837535    0.477774
     32          7           0       -3.526522    0.273496   -0.755748
     33          8           0       -3.881159   -0.464392   -1.672476
     34          8           0       -4.016878    1.371294   -0.500742
 ---------------------------------------------------------------------

 SCF Done:  E(RHF) =  -669.534517165     A.U. after   15 cycles
 E2 =    -0.2094297318D+01 EUMP2 =    -0.67162881448255D+03

 The electronic state is 1-A.
 Alpha  occ. eigenvalues --  -20.60770 -20.60765 -15.85825 -11.31182 -11.27770
 Alpha  occ. eigenvalues --  -11.27761 -11.27473 -11.26752 -11.26722 -11.22223
 Alpha  occ. eigenvalues --  -11.21991 -11.21958 -11.21895 -11.21799 -11.21376
 Alpha  occ. eigenvalues --   -1.59847  -1.39401  -1.19364  -1.08980  -1.08724
 Alpha  occ. eigenvalues --   -1.04767  -1.04072  -0.96535  -0.95590  -0.87553
 Alpha  occ. eigenvalues --   -0.86158  -0.82424  -0.80139  -0.78774  -0.77466
 Alpha  occ. eigenvalues --   -0.72042  -0.71173  -0.70475  -0.65582  -0.65010
 Alpha  occ. eigenvalues --   -0.64761  -0.62115  -0.61472  -0.59901  -0.58154
 Alpha  occ. eigenvalues --   -0.55843  -0.55262  -0.53376  -0.53097  -0.52939
 Alpha  occ. eigenvalues --   -0.52778  -0.50483  -0.48801  -0.48798  -0.48471
 Alpha  occ. eigenvalues --   -0.47168  -0.46312  -0.46158  -0.44809  -0.44303
 Alpha  occ. eigenvalues --   -0.37210  -0.36339
 Alpha virt. eigenvalues --    0.05043   0.11154   0.16446   0.19777   0.22832
 Alpha virt. eigenvalues --    0.23459   0.24966   0.26465   0.26913   0.28283
 Alpha virt. eigenvalues --    0.28852   0.29859   0.31244   0.31585   0.31891

 Mulliken charges:
               1
     1  C   -0.299376
     2  C   -0.299532
     3  C   -0.476938
     4  H    0.139112
     5  H    0.157708
     6  H    0.152987
     7  H    0.155429
     8  H    0.152075
     9  H    0.148096
    10  H    0.164770
    11  C   -0.298932
    12  C   -0.299150
    13  C   -0.476075
    14  H    0.148914
    15  H    0.152251
    16  H    0.144160
    17  H    0.156695
    18  H    0.157793
    19  H    0.154617
    20  H    0.160716
    21  C   -0.164715
    22  C   -0.216817
    23  C   -0.171290
    24  C    0.157754
    25  C   -0.172814
    26  C   -0.220059
    27  H    0.225267
    28  H    0.223173
    29  H    0.275666
    30  H    0.275428
    31  H    0.226177
    32  N    0.488119
    33  O   -0.460656
    34  O   -0.460549
 Sum of Mulliken charges =  -0.00000

 Dipole moment (field-independent basis, Debye):
    X=              3.9206    Y=             -1.6207    Z=              2.9725  Tot=              5.1801
 Quadrupole moment (field-independent basis, Debye-Ang):
   XX=           -114.3011   YY=            -92.0067   ZZ=            -92.3205
   XY=              2.7645   XZ=             -7.0649   YZ=              1.9215

 Normal termination of Gaussian 16 at Thu May  6 12:11:39 2021.
