 Gaussian 16, Revision A.03,
 Gaussian 16:  EM64L-G16RevA.03 25-Dec-2016

 -------------
 #p 6-31g* mp2
 -------------

 ------------------------------------------------------
 Input file generated by CHIRIPA (05-May-2021 14:53:17)
 ------------------------------------------------------
 Symbolic Z-matrix:
 Charge =  0 Multiplicity = 1

                         Standard orientation:
 ---------------------------------------------------------------------
 Center     Atomic      Atomic             Coordinates (Angstroms)
 Number     Number       Type             X           Y           Z
 ---------------------------------------------------------------------
      1          6           0       -4.054055   -0.288673    0.249621
      2          6           0       -5.177880    0.200751   -0.664418
      3          6           0       -6.347463    0.808796    0.110276
      4          1           0       -4.457630   -1.032258    0.950444
      5          1           0       -3.694048    0.551937    0.858854
      6          1           0       -5.534721   -0.640222   -1.272732
      7          1           0       -4.771542    0.943117   -1.363272
      8          1           0       -6.012303    1.664977    0.704602
      9          1           0       -6.779819    0.072642    0.795657
     10          1           0       -7.139490    1.152084   -0.562560
     11          6           0       -2.877703   -0.899129   -0.510160
     12          6           0       -1.753878   -1.388552    0.403878
     13          6           0       -0.584295   -1.996598   -0.370815
     14          1           0       -3.237710   -1.739739   -1.119393
     15          1           0       -2.474128   -0.155543   -1.210983
     16          1           0       -2.160216   -2.130918    1.102733
     17          1           0       -1.397037   -0.547580    1.012193
     18          1           0       -0.151940   -1.260444   -1.056196
     19          1           0       -0.919455   -2.852778   -0.965142
     20          1           0        0.207732   -2.339885    0.302020
     21          6           0        4.202572   -1.553762   -0.143244
     22          6           0        4.357546   -0.459523   -1.000650
     23          6           0        3.534915    0.663777   -0.874059
     24          6           0        2.563201    0.659053    0.125461
     25          6           0        2.384215   -0.415690    0.995047
     26          6           0        3.218137   -1.528398    0.850116
     27          1           0        4.845998   -2.422254   -0.248705
     28          1           0        5.121230   -0.476446   -1.773014
     29          1           0        3.633201    1.524553   -1.524306
     30          1           0        1.614066   -0.369589    1.755417
     31          1           0        3.095509   -2.376768    1.517407
     32          7           0        1.686342    1.842633    0.269184
     33          8           0        0.837751    1.813794    1.157834
     34          8           0        1.864254    2.776752   -0.509537
 ---------------------------------------------------------------------

 SCF Done:  E(RHF) =  -669.535295241     A.U. after   15 cycles
 E2 =    -0.2092872634D+01 EUMP2 =    -0.67162816787532D+03

 The electronic state is 1-A.
 Alpha  occ. eigenvalues --  -20.60885 -20.60879 -15.85922 -11.31212 -11.27806
 Alpha  occ. eigenvalues --  -11.27793 -11.27539 -11.26787 -11.26776 -11.21282
 Alpha  occ. eigenvalues --  -11.21179 -11.21010 -11.20994 -11.20905 -11.20669
 Alpha  occ. eigenvalues --   -1.59948  -1.39504  -1.19403  -1.08805  -1.08048
 Alpha  occ. eigenvalues --   -1.04806  -1.03214  -0.95721  -0.95613  -0.86704
 Alpha  occ. eigenvalues --   -0.86196  -0.82488  -0.79272  -0.77851  -0.77540
 Alpha  occ. eigenvalues --   -0.72143  -0.71268  -0.70518  -0.65062  -0.64818
 Alpha  occ. eigenvalues --   -0.64647  -0.62173  -0.60598  -0.59084  -0.57302
 Alpha  occ. eigenvalues --   -0.55307  -0.54990  -0.53222  -0.52892  -0.52278
 Alpha  occ. eigenvalues --   -0.52104  -0.49594  -0.48904  -0.48896  -0.47600
 Alpha  occ. eigenvalues --   -0.46279  -0.45411  -0.45305  -0.44873  -0.43468
 Alpha  occ. eigenvalues --   -0.37372  -0.36317
 Alpha virt. eigenvalues --    0.04955   0.11211   0.16365   0.20911   0.23233
 Alpha virt. eigenvalues --    0.24336   0.26580   0.27058   0.27667   0.28220
 Alpha virt. eigenvalues --    0.28918   0.30194   0.31593   0.31739   0.32694

 Mulliken charges:
               1
     1  C   -0.299693
     2  C   -0.299734
     3  C   -0.475834
     4  H    0.146961
     5  H    0.156507
     6  H    0.149606
     7  H    0.153940
     8  H    0.157378
     9  H    0.153589
    10  H    0.159158
    11  C   -0.297495
    12  C   -0.307596
    13  C   -0.474619
    14  H    0.146477
    15  H    0.153146
    16  H    0.148111
    17  H    0.164963
    18  H    0.156068
    19  H    0.153337
    20  H    0.150667
    21  C   -0.170148
    22  C   -0.218844
    23  C   -0.171259
    24  C    0.156968
    25  C   -0.165122
    26  C   -0.218741
    27  H    0.225922
    28  H    0.223521
    29  H    0.275588
    30  H    0.276859
    31  H    0.223469
    32  N    0.488227
    33  O   -0.461661
    34  O   -0.459717
 Sum of Mulliken charges =  -0.00000

 Dipole moment (field-independent basis, Debye):
    X=              3.1692    Y=             -4.0328    Z=             -0.4934  Tot=              5.1527
 Quadrupole moment (field-independent basis, Debye-Ang):
   XX=            -79.1057   YY=            -99.5456   ZZ=            -92.5237
   XY=             -7.1641   XZ=             -2.7741   YZ=             -3.0721

 Normal termination of Gaussian 16 at Wed May  5 20:23:33 2021.
