 Gaussian 16, Revision A.03,
 Gaussian 16:  EM64L-G16RevA.03 25-Dec-2016

 -------------
 #p 6-31g* mp2
 -------------

 ------------------------------------------------------
 Input file generated by CHIRIPA (05-May-2021 14:53:11)
 ------------------------------------------------------
 Symbolic Z-matrix:
 Charge =  0 Multiplicity = 1

                         Standard orientation:
 ---------------------------------------------------------------------
 Center     Atomic      Atomic             Coordinates (Angstroms)
 Number     Number       Type             X           Y           Z
 ---------------------------------------------------------------------
      1          6           0       -3.696828    0.422550   -0.415587
      2          6           0       -4.605424    1.097801    0.612263
      3          6           0       -5.294465    2.346884    0.061983
      4          1           0       -2.938835    1.142061   -0.754255
      5          1           0       -4.291105    0.154953   -1.300245
      6          1           0       -4.009891    1.362799    1.495288
      7          1           0       -5.361224    0.376541    0.948666
      8          1           0       -5.912276    2.095206   -0.806101
      9          1           0       -4.553265    3.087068   -0.256374
     10          1           0       -5.939067    2.813701    0.813268
     11          6           0       -3.000916   -0.827622    0.119673
     12          6           0       -2.092319   -1.502873   -0.908176
     13          6           0       -1.403278   -2.751956   -0.357896
     14          1           0       -2.406638   -0.560025    1.004332
     15          1           0       -3.758908   -1.547133    0.458342
     16          1           0       -1.336520   -0.781613   -1.244580
     17          1           0       -2.687852   -1.767871   -1.791201
     18          1           0       -2.144478   -3.492140   -0.039540
     19          1           0       -0.785467   -2.500278    0.510187
     20          1           0       -0.758676   -3.218773   -1.109182
     21          6           0        3.438530    2.471951   -0.464555
     22          6           0        3.090419    2.163064    0.854509
     23          6           0        2.633648    0.884366    1.187435
     24          6           0        2.536816   -0.065450    0.171678
     25          6           0        2.876015    0.211709   -1.151734
     26          6           0        3.330407    1.497007   -1.461708
     27          1           0        3.792438    3.467838   -0.714266
     28          1           0        3.173381    2.918226    1.630970
     29          1           0        2.357415    0.618241    2.200495
     30          1           0        2.782697   -0.562070   -1.904047
     31          1           0        3.600049    1.734064   -2.486960
     32          7           0        2.054512   -1.422644    0.511983
     33          8           0        1.978167   -2.241707   -0.401223
     34          8           0        1.761959   -1.641651    1.685475
 ---------------------------------------------------------------------

 SCF Done:  E(RHF) =  -669.535931101     A.U. after   15 cycles
 E2 =    -0.2092405175D+01 EUMP2 =    -0.67162833627634D+03

 The electronic state is 1-A.
 Alpha  occ. eigenvalues --  -20.61003 -20.60988 -15.85991 -11.31327 -11.27884
 Alpha  occ. eigenvalues --  -11.27880 -11.27617 -11.26888 -11.26878 -11.21294
 Alpha  occ. eigenvalues --  -11.20959 -11.20880 -11.20742 -11.20681 -11.19485
 Alpha  occ. eigenvalues --   -1.60040  -1.39596  -1.19490  -1.08894  -1.07856
 Alpha  occ. eigenvalues --   -1.04883  -1.02846  -0.95743  -0.95243  -0.86288
 Alpha  occ. eigenvalues --   -0.86251  -0.82572  -0.78946  -0.77641  -0.77620
 Alpha  occ. eigenvalues --   -0.72224  -0.71375  -0.70596  -0.65144  -0.64886
 Alpha  occ. eigenvalues --   -0.64499  -0.62230  -0.60251  -0.58694  -0.56850
 Alpha  occ. eigenvalues --   -0.55394  -0.54548  -0.53214  -0.52974  -0.51904
 Alpha  occ. eigenvalues --   -0.51672  -0.49406  -0.48991  -0.48763  -0.47231
 Alpha  occ. eigenvalues --   -0.45990  -0.45174  -0.45089  -0.44954  -0.43063
 Alpha  occ. eigenvalues --   -0.37461  -0.36484
 Alpha virt. eigenvalues --    0.04866   0.11162   0.16347   0.21300   0.23339
 Alpha virt. eigenvalues --    0.25017   0.27124   0.27237   0.27995   0.28168
 Alpha virt. eigenvalues --    0.28970   0.30891   0.32021   0.32259   0.32393

 Mulliken charges:
               1
     1  C   -0.297155
     2  C   -0.298969
     3  C   -0.475131
     4  H    0.146007
     5  H    0.148395
     6  H    0.150787
     7  H    0.152383
     8  H    0.154893
     9  H    0.152893
    10  H    0.159043
    11  C   -0.297676
    12  C   -0.300391
    13  C   -0.479260
    14  H    0.150016
    15  H    0.149497
    16  H    0.143779
    17  H    0.147519
    18  H    0.147067
    19  H    0.170699
    20  H    0.168988
    21  C   -0.170547
    22  C   -0.218579
    23  C   -0.171062
    24  C    0.159766
    25  C   -0.171033
    26  C   -0.218546
    27  H    0.226170
    28  H    0.223959
    29  H    0.275825
    30  H    0.276011
    31  H    0.224052
    32  N    0.487238
    33  O   -0.456184
    34  O   -0.460454
 Sum of Mulliken charges =  -0.00000

 Dipole moment (field-independent basis, Debye):
    X=              1.9867    Y=              4.6831    Z=             -1.1562  Tot=              5.2168
 Quadrupole moment (field-independent basis, Debye-Ang):
   XX=            -87.1677   YY=            -95.9342   ZZ=            -90.6671
   XY=             13.1194   XZ=             -3.4396   YZ=              2.8004

 Normal termination of Gaussian 16 at Thu May  6 02:30:12 2021.
