 Gaussian 16, Revision A.03,
 Gaussian 16:  EM64L-G16RevA.03 25-Dec-2016

 -------------
 #p 6-31g* mp2
 -------------

 ------------------------------------------------------
 Input file generated by CHIRIPA (05-May-2021 14:55:18)
 ------------------------------------------------------
 Symbolic Z-matrix:
 Charge =  0 Multiplicity = 1

                         Standard orientation:
 ---------------------------------------------------------------------
 Center     Atomic      Atomic             Coordinates (Angstroms)
 Number     Number       Type             X           Y           Z
 ---------------------------------------------------------------------
      1          6           0       -4.465911   -1.677443   -0.361964
      2          6           0       -3.267587   -1.739948   -1.080736
      3          6           0       -2.369409   -0.668821   -1.058163
      4          6           0       -2.702942    0.454396   -0.302895
      5          6           0       -3.888969    0.546750    0.423809
      6          6           0       -4.772237   -0.536305    0.386695
      7          1           0       -5.157847   -2.514153   -0.385147
      8          1           0       -3.027070   -2.624901   -1.663021
      9          1           0       -1.434743   -0.690671   -1.605283
     10          1           0       -4.101117    1.442292    0.995137
     11          1           0       -5.702142   -0.484981    0.945881
     12          7           0       -1.759973    1.594664   -0.271301
     13          8           0       -2.077127    2.572926    0.401792
     14          8           0       -0.721575    1.488554   -0.920229
     15          6           0        4.078928   -0.399097   -0.240820
     16          6           0        5.504340    0.128864   -0.075175
     17          6           0        6.332653    0.005979   -1.354469
     18          1           0        4.118552   -1.451372   -0.554019
     19          1           0        3.583933    0.150464   -1.053444
     20          1           0        5.996042   -0.420584    0.737815
     21          1           0        5.461318    1.179949    0.237851
     22          1           0        5.867531    0.568970   -2.170130
     23          1           0        6.405294   -1.040657   -1.667325
     24          1           0        7.348105    0.389228   -1.213624
     25          6           0        3.238459   -0.283057    1.029563
     26          6           0        1.813046   -0.811018    0.863917
     27          6           0        0.984734   -0.688133    2.143211
     28          1           0        3.733454   -0.832618    1.842186
     29          1           0        3.198835    0.769217    1.342762
     30          1           0        1.856069   -1.862103    0.550891
     31          1           0        1.321345   -0.261571    0.050928
     32          1           0        0.912093    0.358503    2.456067
     33          1           0        1.449856   -1.251124    2.958872
     34          1           0       -0.030718   -1.071383    2.002366
 ---------------------------------------------------------------------

 SCF Done:  E(RHF) =  -669.536550607     A.U. after   15 cycles
 E2 =    -0.2091739789D+01 EUMP2 =    -0.67162829039662D+03

 The electronic state is 1-A.
 Alpha  occ. eigenvalues --  -20.60956 -20.60949 -15.85978 -11.31283 -11.27839
 Alpha  occ. eigenvalues --  -11.27834 -11.27572 -11.26843 -11.26833 -11.21087
 Alpha  occ. eigenvalues --  -11.20858 -11.20790 -11.20700 -11.20638 -11.20537
 Alpha  occ. eigenvalues --   -1.60007  -1.39565  -1.19445  -1.08853  -1.07815
 Alpha  occ. eigenvalues --   -1.04837  -1.02960  -0.95699  -0.95433  -0.86451
 Alpha  occ. eigenvalues --   -0.86239  -0.82535  -0.79029  -0.77674  -0.77545
 Alpha  occ. eigenvalues --   -0.72207  -0.71316  -0.70552  -0.65104  -0.64841
 Alpha  occ. eigenvalues --   -0.64422  -0.62185  -0.60334  -0.58814  -0.57053
 Alpha  occ. eigenvalues --   -0.55344  -0.54708  -0.53174  -0.52929  -0.52148
 Alpha  occ. eigenvalues --   -0.51861  -0.49366  -0.48970  -0.48956  -0.47359
 Alpha  occ. eigenvalues --   -0.46078  -0.45284  -0.45163  -0.44678  -0.43215
 Alpha  occ. eigenvalues --   -0.37417  -0.36434
 Alpha virt. eigenvalues --    0.04906   0.11188   0.16370   0.21248   0.23477
 Alpha virt. eigenvalues --    0.24648   0.26791   0.27377   0.27764   0.28400
 Alpha virt. eigenvalues --    0.28705   0.30689   0.31752   0.32081   0.32202

 Mulliken charges:
               1
     1  C   -0.170544
     2  C   -0.218781
     3  C   -0.170855
     4  C    0.158967
     5  C   -0.170796
     6  C   -0.218577
     7  H    0.225989
     8  H    0.224023
     9  H    0.276640
    10  H    0.275828
    11  H    0.223821
    12  N    0.489199
    13  O   -0.458714
    14  O   -0.460754
    15  C   -0.299243
    16  C   -0.299427
    17  C   -0.475565
    18  H    0.145406
    19  H    0.154829
    20  H    0.149909
    21  H    0.153704
    22  H    0.156208
    23  H    0.153070
    24  H    0.158918
    25  C   -0.297271
    26  C   -0.310275
    27  C   -0.477290
    28  H    0.145530
    29  H    0.154339
    30  H    0.143232
    31  H    0.171776
    32  H    0.161652
    33  H    0.152073
    34  H    0.152979
 Sum of Mulliken charges =  -0.00000

 Dipole moment (field-independent basis, Debye):
    X=             -3.4920    Y=             -3.8467    Z=             -0.1821  Tot=              5.1985
 Quadrupole moment (field-independent basis, Debye-Ang):
   XX=            -76.0351   YY=            -96.9531   ZZ=            -94.2225
   XY=              7.9120   XZ=             -0.2600   YZ=              2.8881

 Normal termination of Gaussian 16 at Thu May  6 14:02:06 2021.
