 Gaussian 16, Revision A.03,
 Gaussian 16:  EM64L-G16RevA.03 25-Dec-2016

 -------------
 #p 6-31g* mp2
 -------------

 ------------------------------------------------------
 Input file generated by CHIRIPA (05-May-2021 14:51:09)
 ------------------------------------------------------
 Symbolic Z-matrix:
 Charge =  0 Multiplicity = 1

                         Standard orientation:
 ---------------------------------------------------------------------
 Center     Atomic      Atomic             Coordinates (Angstroms)
 Number     Number       Type             X           Y           Z
 ---------------------------------------------------------------------
      1          6           0        3.357698    0.485782    0.313082
      2          6           0        2.099404    0.068339    1.074936
      3          6           0        1.099105    1.213348    1.236651
      4          1           0        3.837330    1.321877    0.840191
      5          1           0        3.069502    0.864737   -0.677236
      6          1           0        2.390000   -0.311006    2.062998
      7          1           0        1.622816   -0.766985    0.546056
      8          1           0        0.780642    1.587725    0.258375
      9          1           0        1.552185    2.046294    1.783936
     10          1           0        0.207175    0.892926    1.784055
     11          6           0        4.367261   -0.648105    0.143338
     12          6           0        5.625556   -0.230663   -0.618516
     13          6           0        6.625854   -1.375671   -0.780231
     14          1           0        4.655458   -1.027060    1.133656
     15          1           0        3.887629   -1.484200   -0.383770
     16          1           0        6.102144    0.604662   -0.089636
     17          1           0        5.334960    0.148683   -1.606578
     18          1           0        6.172775   -2.208617   -1.327516
     19          1           0        6.944317   -1.750048    0.198045
     20          1           0        7.517785   -1.055250   -1.327635
     21          6           0       -4.241691   -0.513076   -0.522339
     22          6           0       -4.677873   -1.534374    0.528701
     23          6           0       -5.435321   -2.717353   -0.075140
     24          1           0       -5.127825   -0.147488   -1.059047
     25          1           0       -3.608446   -1.012798   -1.268445
     26          1           0       -5.308974   -1.032572    1.273363
     27          1           0       -3.790617   -1.897431    1.063099
     28          1           0       -4.810160   -3.243679   -0.803670
     29          1           0       -6.337144   -2.373906   -0.592210
     30          1           0       -5.737685   -3.435128    0.693778
     31          6           0       -3.483269    0.675400    0.065919
     32          6           0       -3.047087    1.696696   -0.985121
     33          6           0       -2.289638    2.879677   -0.381281
     34          1           0       -4.116514    1.175122    0.812025
     35          1           0       -2.597135    0.309812    0.602627
     36          1           0       -3.934343    2.059755   -1.519520
     37          1           0       -2.415986    1.194895   -1.729785
     38          1           0       -1.387816    2.536229    0.135789
     39          1           0       -2.914800    3.406003    0.347249
     40          1           0       -1.987274    3.597451   -1.150200
 ---------------------------------------------------------------------

 SCF Done:  E(RHF) =  -470.733041645     A.U. after   11 cycles
 E2 =    -0.1582724348D+01 EUMP2 =    -0.47231576599336D+03

 The electronic state is 1-A.
 Alpha  occ. eigenvalues --  -11.21667 -11.21629 -11.21586 -11.21541 -11.21448
 Alpha  occ. eigenvalues --  -11.21387 -11.21373 -11.21311 -11.21151 -11.21093
 Alpha  occ. eigenvalues --  -11.21061 -11.20908  -1.08477  -1.08390  -1.03589
 Alpha  occ. eigenvalues --   -1.03474  -0.96054  -0.95912  -0.87089  -0.86916
 Alpha  occ. eigenvalues --   -0.79688  -0.79510  -0.78290  -0.78201  -0.65129
 Alpha  occ. eigenvalues --   -0.65007  -0.61084  -0.60799  -0.59421  -0.59276
 Alpha  occ. eigenvalues --   -0.57657  -0.57534  -0.55483  -0.55085  -0.52768
 Alpha  occ. eigenvalues --   -0.52624  -0.52508  -0.52274  -0.50132  -0.49713
 Alpha  occ. eigenvalues --   -0.47982  -0.47825  -0.46759  -0.46477  -0.45837
 Alpha  occ. eigenvalues --   -0.45773  -0.45715  -0.45633  -0.43814  -0.43737
 Alpha virt. eigenvalues --    0.21452   0.23067   0.23674   0.24871   0.26095
 Alpha virt. eigenvalues --    0.26610   0.27099   0.27217   0.27907   0.29142
 Alpha virt. eigenvalues --    0.30437   0.30807   0.31589   0.31804   0.32100

 Mulliken charges:
               1
     1  C   -0.298687
     2  C   -0.299827
     3  C   -0.480735
     4  H    0.149928
     5  H    0.149829
     6  H    0.152232
     7  H    0.151731
     8  H    0.158227
     9  H    0.156364
    10  H    0.161687
    11  C   -0.298333
    12  C   -0.299690
    13  C   -0.475734
    14  H    0.149645
    15  H    0.149619
    16  H    0.152051
    17  H    0.151994
    18  H    0.155189
    19  H    0.155232
    20  H    0.160372
    21  C   -0.298187
    22  C   -0.299621
    23  C   -0.475664
    24  H    0.149662
    25  H    0.149253
    26  H    0.151924
    27  H    0.151759
    28  H    0.155076
    29  H    0.155182
    30  H    0.160187
    31  C   -0.299884
    32  C   -0.298843
    33  C   -0.484911
    34  H    0.149453
    35  H    0.150939
    36  H    0.151630
    37  H    0.150844
    38  H    0.166607
    39  H    0.154495
    40  H    0.159006
 Sum of Mulliken charges =  -0.00000

 Dipole moment (field-independent basis, Debye):
    X=              0.0572    Y=              0.0005    Z=              0.0247  Tot=              0.0623
 Quadrupole moment (field-independent basis, Debye-Ang):
   XX=            -84.8580   YY=            -85.9076   ZZ=            -84.1193
   XY=             -0.1626   XZ=              0.2645   YZ=             -0.0386

 Normal termination of Gaussian 16 at Wed May  5 19:43:17 2021.
