 Gaussian 16, Revision A.03,
 Gaussian 16:  EM64L-G16RevA.03 25-Dec-2016

 -------------
 #p 6-31g* mp2
 -------------

 ------------------------------------------------------
 Input file generated by CHIRIPA (05-May-2021 14:51:14)
 ------------------------------------------------------
 Symbolic Z-matrix:
 Charge =  0 Multiplicity = 1

                         Standard orientation:
 ---------------------------------------------------------------------
 Center     Atomic      Atomic             Coordinates (Angstroms)
 Number     Number       Type             X           Y           Z
 ---------------------------------------------------------------------
      1          6           0       -4.603415    0.098636    0.212636
      2          6           0       -5.713672   -0.688497   -0.484312
      3          6           0       -7.096212   -0.068696   -0.278832
      4          1           0       -4.824031    0.158315    1.287212
      5          1           0       -4.603221    1.130810   -0.164208
      6          1           0       -5.710876   -1.719249   -0.107273
      7          1           0       -5.490289   -0.746474   -1.557324
      8          1           0       -7.122687    0.952840   -0.671725
      9          1           0       -7.344527   -0.025463    0.786566
     10          1           0       -7.874906   -0.647329   -0.785468
     11          6           0       -3.215425   -0.508582    0.016427
     12          6           0       -2.105169    0.278551    0.713376
     13          6           0       -0.722628   -0.341251    0.507895
     14          1           0       -3.215620   -1.540756    0.393271
     15          1           0       -2.994810   -0.568262   -1.058148
     16          1           0       -2.328551    0.336528    1.786388
     17          1           0       -2.107964    1.309303    0.336336
     18          1           0       -0.474313   -0.384484   -0.557502
     19          1           0       -0.696153   -1.362786    0.900789
     20          1           0        0.056065    0.237382    1.014532
     21          6           0        3.848965   -0.535326   -0.292672
     22          6           0        5.027259   -1.375841    0.200422
     23          6           0        4.891830   -2.854669   -0.163609
     24          1           0        2.918200   -0.935288    0.132362
     25          1           0        3.764488   -0.639176   -1.383302
     26          1           0        5.110339   -1.269341    1.289628
     27          1           0        5.955347   -0.973714   -0.225682
     28          1           0        4.831685   -2.980149   -1.249537
     29          1           0        3.981876   -3.277455    0.274383
     30          1           0        5.744854   -3.437000    0.198467
     31          6           0        3.969876    0.945272    0.063608
     32          6           0        2.791581    1.785788   -0.429485
     33          6           0        2.927011    3.264616   -0.065454
     34          1           0        4.054352    1.049123    1.154239
     35          1           0        4.900640    1.345234   -0.361425
     36          1           0        1.863494    1.383661   -0.003381
     37          1           0        2.708501    1.679287   -1.518692
     38          1           0        3.836964    3.687402   -0.503447
     39          1           0        2.987156    3.390096    1.020473
     40          1           0        2.073986    3.846946   -0.427531
 ---------------------------------------------------------------------

 SCF Done:  E(RHF) =  -470.733142358     A.U. after   11 cycles
 E2 =    -0.1582695419D+01 EUMP2 =    -0.47231583777695D+03

 The electronic state is 1-A.
 Alpha  occ. eigenvalues --  -11.21646 -11.21618 -11.21551 -11.21492 -11.21431
 Alpha  occ. eigenvalues --  -11.21371 -11.21337 -11.21277 -11.21125 -11.21084
 Alpha  occ. eigenvalues --  -11.21028 -11.21027  -1.08460  -1.08366  -1.03568
 Alpha  occ. eigenvalues --   -1.03469  -0.96018  -0.95924  -0.87045  -0.86935
 Alpha  occ. eigenvalues --   -0.79657  -0.79511  -0.78276  -0.78167  -0.65094
 Alpha  occ. eigenvalues --   -0.65006  -0.60991  -0.60873  -0.59436  -0.59241
 Alpha  occ. eigenvalues --   -0.57640  -0.57520  -0.55305  -0.55209  -0.52785
 Alpha  occ. eigenvalues --   -0.52593  -0.52450  -0.52335  -0.49978  -0.49847
 Alpha  occ. eigenvalues --   -0.47980  -0.47817  -0.46689  -0.46526  -0.45828
 Alpha  occ. eigenvalues --   -0.45748  -0.45691  -0.45635  -0.43770  -0.43701
 Alpha virt. eigenvalues --    0.21610   0.22989   0.23858   0.24715   0.25889
 Alpha virt. eigenvalues --    0.26607   0.27052   0.27479   0.27986   0.29189
 Alpha virt. eigenvalues --    0.30711   0.31320   0.31797   0.31888   0.32001

 Mulliken charges:
               1
     1  C   -0.298317
     2  C   -0.299675
     3  C   -0.475722
     4  H    0.149674
     5  H    0.149624
     6  H    0.151958
     7  H    0.152015
     8  H    0.155223
     9  H    0.155192
    10  H    0.160318
    11  C   -0.298659
    12  C   -0.300011
    13  C   -0.480188
    14  H    0.149612
    15  H    0.149926
    16  H    0.151942
    17  H    0.152436
    18  H    0.157162
    19  H    0.155115
    20  H    0.163548
    21  C   -0.300311
    22  C   -0.299547
    23  C   -0.475649
    24  H    0.152568
    25  H    0.149144
    26  H    0.151711
    27  H    0.151749
    28  H    0.155054
    29  H    0.155302
    30  H    0.159991
    31  C   -0.297624
    32  C   -0.308077
    33  C   -0.475199
    34  H    0.148795
    35  H    0.149310
    36  H    0.161096
    37  H    0.151188
    38  H    0.154981
    39  H    0.154615
    40  H    0.159731
 Sum of Mulliken charges =  -0.00000

 Dipole moment (field-independent basis, Debye):
    X=             -0.0511    Y=             -0.0195    Z=              0.0005  Tot=              0.0547
 Quadrupole moment (field-independent basis, Debye-Ang):
   XX=            -85.8429   YY=            -85.8503   ZZ=            -83.3219
   XY=              0.4980   XZ=             -0.4657   YZ=             -0.8638

 Normal termination of Gaussian 16 at Wed May  5 18:25:47 2021.
