 Gaussian 16, Revision A.03,
 Gaussian 16:  EM64L-G16RevA.03 25-Dec-2016

 -------------
 #p 6-31g* mp2
 -------------

 ------------------------------------------------------
 Input file generated by CHIRIPA (05-May-2021 14:53:12)
 ------------------------------------------------------
 Symbolic Z-matrix:
 Charge =  0 Multiplicity = 1

                         Standard orientation:
 ---------------------------------------------------------------------
 Center     Atomic      Atomic             Coordinates (Angstroms)
 Number     Number       Type             X           Y           Z
 ---------------------------------------------------------------------
      1          6           0        3.129887    0.173686   -0.715866
      2          6           0        3.865873   -1.043933   -0.155766
      3          6           0        4.461811   -1.929601   -1.250409
      4          1           0        2.331478   -0.166323   -1.389574
      5          1           0        3.825382    0.764066   -1.328347
      6          1           0        3.169559   -1.631100    0.456605
      7          1           0        4.662499   -0.700991    0.516836
      8          1           0        5.177426   -1.364378   -1.856230
      9          1           0        3.676004   -2.299772   -1.916803
     10          1           0        4.983328   -2.794065   -0.827818
     11          6           0        2.528589    1.068768    0.366260
     12          6           0        1.792602    2.286387   -0.193841
     13          6           0        1.196664    3.172055    0.900802
     14          1           0        1.833093    0.478388    0.978741
     15          1           0        3.326997    1.408777    1.039968
     16          1           0        0.995976    1.943445   -0.866443
     17          1           0        2.488916    2.873554   -0.806211
     18          1           0        1.982471    3.542226    1.567197
     19          1           0        0.481049    2.606832    1.506623
     20          1           0        0.675148    4.036519    0.478212
     21          6           0       -0.811225   -2.036577    1.551500
     22          6           0       -1.652761   -2.558251    0.563474
     23          6           0       -2.432483   -1.708165   -0.226421
     24          6           0       -2.345604   -0.335365   -0.000226
     25          6           0       -1.516766    0.214803    0.976317
     26          6           0       -0.746028   -0.654152    1.754409
     27          1           0       -0.209007   -2.704274    2.160525
     28          1           0       -1.705421   -3.631440    0.403669
     29          1           0       -3.092446   -2.085193   -0.998247
     30          1           0       -1.485636    1.289040    1.112198
     31          1           0       -0.093369   -0.246200    2.520997
     32          7           0       -3.166304    0.574571   -0.830205
     33          8           0       -3.071726    1.780270   -0.611154
     34          8           0       -3.888608    0.064851   -1.684079
 ---------------------------------------------------------------------

 SCF Done:  E(RHF) =  -669.534793641     A.U. after   15 cycles
 E2 =    -0.2093890373D+01 EUMP2 =    -0.67162868401456D+03

 The electronic state is 1-A.
 Alpha  occ. eigenvalues --  -20.60832 -20.60827 -15.85884 -11.31274 -11.27842
 Alpha  occ. eigenvalues --  -11.27823 -11.27594 -11.26865 -11.26855 -11.22014
 Alpha  occ. eigenvalues --  -11.21849 -11.21723 -11.21658 -11.21496 -11.21421
 Alpha  occ. eigenvalues --   -1.59906  -1.39458  -1.19456  -1.08851  -1.08764
 Alpha  occ. eigenvalues --   -1.04870  -1.03881  -0.96342  -0.95670  -0.87362
 Alpha  occ. eigenvalues --   -0.86253  -0.82511  -0.79943  -0.78605  -0.77542
 Alpha  occ. eigenvalues --   -0.72102  -0.71231  -0.70564  -0.65450  -0.65096
 Alpha  occ. eigenvalues --   -0.64871  -0.62309  -0.61187  -0.59687  -0.57943
 Alpha  occ. eigenvalues --   -0.55699  -0.55325  -0.53199  -0.53030  -0.52997
 Alpha  occ. eigenvalues --   -0.52684  -0.50282  -0.48865  -0.48853  -0.48259
 Alpha  occ. eigenvalues --   -0.46979  -0.46137  -0.46046  -0.44856  -0.44115
 Alpha  occ. eigenvalues --   -0.37422  -0.36405
 Alpha virt. eigenvalues --    0.04956   0.11067   0.16336   0.19896   0.22905
 Alpha virt. eigenvalues --    0.23660   0.25591   0.26602   0.26837   0.28581
 Alpha virt. eigenvalues --    0.29180   0.30009   0.31382   0.31483   0.31772

 Mulliken charges:
               1
     1  C   -0.298025
     2  C   -0.298674
     3  C   -0.475946
     4  H    0.152494
     5  H    0.151399
     6  H    0.145997
     7  H    0.151885
     8  H    0.157190
     9  H    0.155860
    10  H    0.159375
    11  C   -0.302408
    12  C   -0.302296
    13  C   -0.475598
    14  H    0.146422
    15  H    0.148316
    16  H    0.157788
    17  H    0.155163
    18  H    0.156045
    19  H    0.140658
    20  H    0.169812
    21  C   -0.172356
    22  C   -0.218667
    23  C   -0.170523
    24  C    0.158671
    25  C   -0.174906
    26  C   -0.219159
    27  H    0.226410
    28  H    0.224002
    29  H    0.275950
    30  H    0.282222
    31  H    0.224992
    32  N    0.487978
    33  O   -0.459929
    34  O   -0.460147
 Sum of Mulliken charges =  -0.00000

 Dipole moment (field-independent basis, Debye):
    X=              2.8708    Y=             -3.1531    Z=              2.8059  Tot=              5.1046
 Quadrupole moment (field-independent basis, Debye-Ang):
   XX=           -107.8115   YY=            -89.5939   ZZ=            -94.6251
   XY=              9.2874   XZ=             -5.7116   YZ=              0.5308

 Normal termination of Gaussian 16 at Thu May  6 11:59:11 2021.
