 Gaussian 16, Revision A.03,
 Gaussian 16:  EM64L-G16RevA.03 25-Dec-2016

 -------------
 #p 6-31g* mp2
 -------------

 ------------------------------------------------------
 Input file generated by CHIRIPA (05-May-2021 14:51:10)
 ------------------------------------------------------
 Symbolic Z-matrix:
 Charge =  0 Multiplicity = 1

                         Standard orientation:
 ---------------------------------------------------------------------
 Center     Atomic      Atomic             Coordinates (Angstroms)
 Number     Number       Type             X           Y           Z
 ---------------------------------------------------------------------
      1          6           0        5.104394   -0.087698   -0.134234
      2          6           0        5.644363   -1.483636    0.178457
      3          6           0        7.159842   -1.584369    0.002474
      4          1           0        5.373885    0.180341   -1.164998
      5          1           0        5.599734    0.644195    0.518734
      6          1           0        5.147147   -2.212853   -0.473951
      7          1           0        5.373390   -1.748461    1.208533
      8          1           0        7.672289   -0.879018    0.664651
      9          1           0        7.444760   -1.346048   -1.027393
     10          1           0        7.524557   -2.590620    0.231171
     11          6           0        3.590860    0.028811    0.037132
     12          6           0        3.050892    1.424750   -0.275558
     13          6           0        1.535412    1.525482   -0.099576
     14          1           0        3.095521   -0.703082   -0.615835
     15          1           0        3.321370   -0.239228    1.067897
     16          1           0        3.321864    1.689574   -1.305635
     17          1           0        3.548107    2.153966    0.376850
     18          1           0        1.250494    1.287161    0.930291
     19          1           0        1.022965    0.820131   -0.761753
     20          1           0        1.170697    2.531733   -0.328273
     21          6           0       -4.701701   -0.600967    0.294817
     22          6           0       -5.963418   -0.937723   -0.500576
     23          6           0       -6.660610   -2.201492    0.004007
     24          1           0       -4.006451   -1.450087    0.244146
     25          1           0       -4.966619   -0.476672    1.353950
     26          1           0       -5.696425   -1.059983   -1.558113
     27          1           0       -6.655665   -0.087627   -0.448167
     28          1           0       -6.955082   -2.086614    1.052191
     29          1           0       -5.990391   -3.064496   -0.064062
     30          1           0       -7.560044   -2.423659   -0.578677
     31          6           0       -3.993554    0.659853   -0.197715
     32          6           0       -2.731835    0.996609    0.597678
     33          6           0       -2.034644    2.260379    0.093095
     34          1           0       -3.728636    0.535560   -1.256849
     35          1           0       -4.688803    1.508974   -0.147045
     36          1           0       -2.039589    0.146514    0.545268
     37          1           0       -2.998830    1.118870    1.655215
     38          1           0       -2.704863    3.123383    0.161164
     39          1           0       -1.740172    2.145501   -0.955089
     40          1           0       -1.135210    2.482546    0.675778
 ---------------------------------------------------------------------

 SCF Done:  E(RHF) =  -470.732665821     A.U. after   11 cycles
 E2 =    -0.1582670503D+01 EUMP2 =    -0.47231533632440D+03

 The electronic state is 1-A.
 Alpha  occ. eigenvalues --  -11.21603 -11.21575 -11.21568 -11.21502 -11.21403
 Alpha  occ. eigenvalues --  -11.21349 -11.21344 -11.21286 -11.21073 -11.21046
 Alpha  occ. eigenvalues --  -11.21040 -11.20869  -1.08429  -1.08364  -1.03548
 Alpha  occ. eigenvalues --   -1.03433  -0.96049  -0.95835  -0.87115  -0.86807
 Alpha  occ. eigenvalues --   -0.79652  -0.79462  -0.78241  -0.78181  -0.65061
 Alpha  occ. eigenvalues --   -0.64996  -0.60945  -0.60842  -0.59529  -0.59123
 Alpha  occ. eigenvalues --   -0.57592  -0.57514  -0.55308  -0.55163  -0.53015
 Alpha  occ. eigenvalues --   -0.52429  -0.52359  -0.52152  -0.49952  -0.49796
 Alpha  occ. eigenvalues --   -0.47907  -0.47830  -0.46633  -0.46540  -0.45781
 Alpha  occ. eigenvalues --   -0.45727  -0.45700  -0.45648  -0.43947  -0.43495
 Alpha virt. eigenvalues --    0.22109   0.22975   0.23553   0.24798   0.26490
 Alpha virt. eigenvalues --    0.26583   0.27192   0.27440   0.27657   0.29278
 Alpha virt. eigenvalues --    0.30204   0.30986   0.31418   0.32054   0.32298

 Mulliken charges:
               1
     1  C   -0.298234
     2  C   -0.299602
     3  C   -0.475696
     4  H    0.149630
     5  H    0.149534
     6  H    0.151839
     7  H    0.151922
     8  H    0.155196
     9  H    0.155170
    10  H    0.160239
    11  C   -0.298477
    12  C   -0.301101
    13  C   -0.475081
    14  H    0.149218
    15  H    0.149567
    16  H    0.151772
    17  H    0.151735
    18  H    0.154595
    19  H    0.155522
    20  H    0.162717
    21  C   -0.298192
    22  C   -0.299573
    23  C   -0.475657
    24  H    0.149454
    25  H    0.149380
    26  H    0.151786
    27  H    0.151877
    28  H    0.155125
    29  H    0.155087
    30  H    0.160115
    31  C   -0.298222
    32  C   -0.300810
    33  C   -0.477826
    34  H    0.149186
    35  H    0.149493
    36  H    0.152595
    37  H    0.151136
    38  H    0.153111
    39  H    0.154712
    40  H    0.166754
 Sum of Mulliken charges =  -0.00000

 Dipole moment (field-independent basis, Debye):
    X=              0.0340    Y=              0.0158    Z=              0.0008  Tot=              0.0375
 Quadrupole moment (field-independent basis, Debye-Ang):
   XX=            -86.3203   YY=            -85.2624   ZZ=            -83.4692
   XY=             -0.5352   XZ=              0.0026   YZ=              0.8559

 Normal termination of Gaussian 16 at Wed May  5 19:47:46 2021.
