 Gaussian 16, Revision A.03,
 Gaussian 16:  EM64L-G16RevA.03 25-Dec-2016

 -------------
 #p 6-31g* mp2
 -------------

 ------------------------------------------------------
 Input file generated by CHIRIPA (05-May-2021 14:51:10)
 ------------------------------------------------------
 Symbolic Z-matrix:
 Charge =  0 Multiplicity = 1

                         Standard orientation:
 ---------------------------------------------------------------------
 Center     Atomic      Atomic             Coordinates (Angstroms)
 Number     Number       Type             X           Y           Z
 ---------------------------------------------------------------------
      1          6           0       -3.130401   -0.169108   -0.110053
      2          6           0       -2.480458   -1.382444   -0.775918
      3          6           0       -3.410633   -2.594617   -0.832517
      4          1           0       -3.443141   -0.440924    0.907421
      5          1           0       -4.045369    0.094936   -0.658241
      6          1           0       -1.566247   -1.643270   -0.227462
      7          1           0       -2.169056   -1.107652   -1.791858
      8          1           0       -4.318039   -2.357852   -1.397458
      9          1           0       -3.711804   -2.896512    0.175827
     10          1           0       -2.925903   -3.450567   -1.312357
     11          6           0       -2.212897    1.050649   -0.045976
     12          6           0       -2.862840    2.263985    0.619889
     13          6           0       -1.932665    3.476158    0.676487
     14          1           0       -1.297929    0.786605    0.502211
     15          1           0       -1.900157    1.322465   -1.063451
     16          1           0       -3.174242    1.989194    1.635829
     17          1           0       -3.777051    2.524811    0.071433
     18          1           0       -1.631494    3.778053   -0.331856
     19          1           0       -1.025259    3.239393    1.241428
     20          1           0       -2.417395    4.332108    1.156328
     21          6           0        2.657464    0.321907    0.117439
     22          6           0        3.709160    0.994390   -0.765561
     23          6           0        3.668268    2.520195   -0.675898
     24          1           0        1.660520    0.681080   -0.172463
     25          1           0        2.810845    0.633106    1.160043
     26          1           0        3.554699    0.680929   -1.805993
     27          1           0        4.703701    0.633429   -0.473651
     28          1           0        3.844583    2.850502    0.352894
     29          1           0        2.689053    2.898273   -0.987020
     30          1           0        4.428313    2.980420   -1.314947
     31          6           0        2.685834   -1.203448    0.038591
     32          6           0        1.634138   -1.875931    0.921590
     33          6           0        1.675030   -3.401737    0.831927
     34          1           0        2.532454   -1.514646   -1.004014
     35          1           0        3.682777   -1.562622    0.328493
     36          1           0        0.639598   -1.514969    0.629680
     37          1           0        1.788599   -1.562470    1.962023
     38          1           0        2.654245   -3.779815    1.143049
     39          1           0        1.498714   -3.732044   -0.196864
     40          1           0        0.914985   -3.861961    1.470976
 ---------------------------------------------------------------------

 SCF Done:  E(RHF) =  -470.733399158     A.U. after   11 cycles
 E2 =    -0.1583541502D+01 EUMP2 =    -0.47231694066021D+03

 The electronic state is 1-A.
 Alpha  occ. eigenvalues --  -11.21629 -11.21625 -11.21605 -11.21585 -11.21443
 Alpha  occ. eigenvalues --  -11.21394 -11.21383 -11.21333 -11.21094 -11.21089
 Alpha  occ. eigenvalues --  -11.21080 -11.21046  -1.08474  -1.08416  -1.03566
 Alpha  occ. eigenvalues --   -1.03517  -0.96004  -0.95971  -0.87022  -0.86986
 Alpha  occ. eigenvalues --   -0.79673  -0.79548  -0.78374  -0.78152  -0.65212
 Alpha  occ. eigenvalues --   -0.64950  -0.61076  -0.60817  -0.59397  -0.59313
 Alpha  occ. eigenvalues --   -0.57637  -0.57563  -0.55309  -0.55236  -0.52702
 Alpha  occ. eigenvalues --   -0.52664  -0.52441  -0.52383  -0.49984  -0.49883
 Alpha  occ. eigenvalues --   -0.48071  -0.47825  -0.46880  -0.46471  -0.46194
 Alpha  occ. eigenvalues --   -0.45783  -0.45737  -0.45177  -0.43812  -0.43774
 Alpha virt. eigenvalues --    0.20411   0.23081   0.23463   0.24394   0.25307
 Alpha virt. eigenvalues --    0.26815   0.27059   0.27376   0.28226   0.29940
 Alpha virt. eigenvalues --    0.30845   0.31494   0.31733   0.31910   0.32059

 Mulliken charges:
               1
     1  C   -0.297536
     2  C   -0.308859
     3  C   -0.474989
     4  H    0.149746
     5  H    0.149788
     6  H    0.160515
     7  H    0.151452
     8  H    0.155247
     9  H    0.155251
    10  H    0.160394
    11  C   -0.303024
    12  C   -0.299542
    13  C   -0.476075
    14  H    0.153546
    15  H    0.149143
    16  H    0.152171
    17  H    0.152114
    18  H    0.154840
    19  H    0.155986
    20  H    0.160435
    21  C   -0.301407
    22  C   -0.299562
    23  C   -0.475854
    24  H    0.152931
    25  H    0.148974
    26  H    0.151928
    27  H    0.151861
    28  H    0.155047
    29  H    0.155744
    30  H    0.160125
    31  C   -0.297335
    32  C   -0.309980
    33  C   -0.475430
    34  H    0.149725
    35  H    0.149650
    36  H    0.160401
    37  H    0.151674
    38  H    0.155486
    39  H    0.155431
    40  H    0.159989
 Sum of Mulliken charges =  -0.00000

 Dipole moment (field-independent basis, Debye):
    X=             -0.0145    Y=              0.0018    Z=              0.0011  Tot=              0.0147
 Quadrupole moment (field-independent basis, Debye-Ang):
   XX=            -84.5429   YY=            -86.8201   ZZ=            -83.3638
   XY=             -0.7678   XZ=              0.7419   YZ=             -0.3518

 Normal termination of Gaussian 16 at Thu May  6 03:48:51 2021.
