 Gaussian 16, Revision A.03,
 Gaussian 16:  EM64L-G16RevA.03 25-Dec-2016

 -------------
 #p 6-31g* mp2
 -------------

 ------------------------------------------------------
 Input file generated by CHIRIPA (05-May-2021 14:57:23)
 ------------------------------------------------------
 Symbolic Z-matrix:
 Charge =  0 Multiplicity = 1

                         Standard orientation:
 ---------------------------------------------------------------------
 Center     Atomic      Atomic             Coordinates (Angstroms)
 Number     Number       Type             X           Y           Z
 ---------------------------------------------------------------------
      1          6           0       -0.893878   -1.413327   -0.800033
      2          6           0       -1.903305   -2.178608   -0.206801
      3          6           0       -3.138848   -1.604081    0.106090
      4          6           0       -3.331632   -0.255437   -0.189347
      5          6           0       -2.345626    0.533302   -0.780085
      6          6           0       -1.117866   -0.062197   -1.084281
      7          1           0        0.062898   -1.867779   -1.039717
      8          1           0       -1.732163   -3.228143    0.015082
      9          1           0       -3.937703   -2.173356    0.565628
     10          1           0       -2.545835    1.577114   -0.989346
     11          1           0       -0.335755    0.534560   -1.544964
     12          7           0       -4.635526    0.363890    0.137294
     13          8           0       -4.780373    1.554087   -0.133053
     14          8           0       -5.487982   -0.352606    0.657477
     15          6           0        1.152386    1.850988    0.769279
     16          6           0        1.403001    0.721249    1.555030
     17          6           0        2.488501   -0.113354    1.272759
     18          6           0        3.306640    0.213126    0.192320
     19          6           0        3.083077    1.331604   -0.609126
     20          6           0        1.991743    2.152029   -0.308391
     21          1           0        0.306877    2.493820    0.995726
     22          1           0        0.752821    0.485002    2.392585
     23          1           0        2.705576   -0.994232    1.864662
     24          1           0        3.748880    1.541237   -1.437485
     25          1           0        1.799528    3.028741   -0.920334
     26          7           0        4.458898   -0.662926   -0.116280
     27          8           0        5.164761   -0.353456   -1.073686
     28          8           0        4.634358   -1.642457    0.605086
 ---------------------------------------------------------------------

 SCF Done:  E(RHF) =  -868.337107973     A.U. after   16 cycles
 E2 =    -0.2602701800D+01 EUMP2 =    -0.87093980977323D+03

 The electronic state is 1-A.
 Alpha  occ. eigenvalues --  -20.61567 -20.61561 -20.61235 -20.61222 -15.86625
 Alpha  occ. eigenvalues --  -15.86282 -11.32080 -11.31644 -11.28674 -11.28616
 Alpha  occ. eigenvalues --  -11.28316 -11.28183 -11.28144 -11.27806 -11.27654
 Alpha  occ. eigenvalues --  -11.27550 -11.27160 -11.27104  -1.60646  -1.60308
 Alpha  occ. eigenvalues --   -1.40195  -1.39862  -1.20264  -1.19782  -1.09627
 Alpha  occ. eigenvalues --   -1.09155  -1.05650  -1.05183  -0.96436  -0.96006
 Alpha  occ. eigenvalues --   -0.87026  -0.86562  -0.83255  -0.82838  -0.78299
 Alpha  occ. eigenvalues --   -0.77914  -0.72828  -0.72495  -0.71987  -0.71638
 Alpha  occ. eigenvalues --   -0.71304  -0.70843  -0.65876  -0.65604  -0.65414
 Alpha  occ. eigenvalues --   -0.65176  -0.62969  -0.62546  -0.56092  -0.55617
 Alpha  occ. eigenvalues --   -0.54335  -0.53699  -0.53400  -0.53041  -0.49597
 Alpha  occ. eigenvalues --   -0.49585  -0.49261  -0.49247  -0.45580  -0.45270
 Alpha  occ. eigenvalues --   -0.38578  -0.37803  -0.37135  -0.36449
 Alpha virt. eigenvalues --    0.04016   0.04769   0.10212   0.10929   0.15368
 Alpha virt. eigenvalues --    0.16488   0.20379   0.21387   0.26317   0.26819
 Alpha virt. eigenvalues --    0.27535   0.28372   0.29996   0.30884   0.31800

 Mulliken charges:
               1
     1  C   -0.173058
     2  C   -0.220143
     3  C   -0.172777
     4  C    0.158943
     5  C   -0.180648
     6  C   -0.214471
     7  H    0.229883
     8  H    0.225821
     9  H    0.276331
    10  H    0.271276
    11  H    0.226549
    12  N    0.487882
    13  O   -0.461990
    14  O   -0.458763
    15  C   -0.171046
    16  C   -0.212952
    17  C   -0.175635
    18  C    0.155386
    19  C   -0.173047
    20  C   -0.228499
    21  H    0.230942
    22  H    0.229031
    23  H    0.277075
    24  H    0.277960
    25  H    0.226020
    26  N    0.487653
    27  O   -0.458361
    28  O   -0.459359
 Sum of Mulliken charges =  -0.00000

 Dipole moment (field-independent basis, Debye):
    X=              0.6772    Y=              0.8579    Z=              0.0496  Tot=              1.0941
 Quadrupole moment (field-independent basis, Debye-Ang):
   XX=           -162.9890   YY=            -97.1922   ZZ=           -101.2080
   XY=             18.1735   XZ=              4.0749   YZ=             -2.7491

 Normal termination of Gaussian 16 at Wed May  5 19:25:58 2021.
