 Gaussian 16, Revision A.03,
 Gaussian 16:  EM64L-G16RevA.03 25-Dec-2016

 -------------
 #p 6-31g* mp2
 -------------

 ------------------------------------------------------
 Input file generated by CHIRIPA (05-May-2021 14:53:15)
 ------------------------------------------------------
 Symbolic Z-matrix:
 Charge =  0 Multiplicity = 1

                         Standard orientation:
 ---------------------------------------------------------------------
 Center     Atomic      Atomic             Coordinates (Angstroms)
 Number     Number       Type             X           Y           Z
 ---------------------------------------------------------------------
      1          6           0       -2.319567    0.964089   -0.358011
      2          6           0       -2.044796    2.385178    0.134934
      3          6           0       -0.620749    2.851405   -0.169231
      4          1           0       -1.599907    0.276123    0.106465
      5          1           0       -2.141292    0.918339   -1.441302
      6          1           0       -2.224872    2.428572    1.216740
      7          1           0       -2.765316    3.069813   -0.330622
      8          1           0       -0.432642    2.836664   -1.247656
      9          1           0        0.110872    2.191779    0.308498
     10          1           0       -0.445999    3.869746    0.191745
     11          6           0       -3.739066    0.483783   -0.061269
     12          6           0       -4.013836   -0.937305   -0.554213
     13          6           0       -5.437883   -1.403532   -0.250048
     14          1           0       -3.917340    0.529533    1.022023
     15          1           0       -4.458725    1.171750   -0.525744
     16          1           0       -3.293317   -1.621941   -0.088658
     17          1           0       -3.833761   -0.980699   -1.636020
     18          1           0       -6.169505   -0.743907   -0.727778
     19          1           0       -5.625990   -1.388792    0.828376
     20          1           0       -5.612633   -2.421873   -0.611024
     21          6           0        4.477950    0.418402   -0.805825
     22          6           0        3.769879   -0.556832   -1.515806
     23          6           0        2.598830   -1.108999   -0.988263
     24          6           0        2.162541   -0.660702    0.257519
     25          6           0        2.845883    0.309401    0.989114
     26          6           0        4.014509    0.847650    0.442169
     27          1           0        5.386709    0.841933   -1.223170
     28          1           0        4.127440   -0.892099   -2.485235
     29          1           0        2.031141   -1.865357   -1.516533
     30          1           0        2.464647    0.623511    1.953175
     31          1           0        4.562360    1.604887    0.995791
     32          7           0        0.924086   -1.237889    0.826276
     33          8           0        0.560654   -0.825969    1.925765
     34          8           0        0.340266   -2.091279    0.161808
 ---------------------------------------------------------------------

 SCF Done:  E(RHF) =  -669.536516931     A.U. after   15 cycles
 E2 =    -0.2092732424D+01 EUMP2 =    -0.67162924935475D+03

 The electronic state is 1-A.
 Alpha  occ. eigenvalues --  -20.61015 -20.61000 -15.86015 -11.31312 -11.27871
 Alpha  occ. eigenvalues --  -11.27857 -11.27593 -11.26864 -11.26854 -11.20935
 Alpha  occ. eigenvalues --  -11.20686 -11.20513 -11.20454 -11.20398 -11.20192
 Alpha  occ. eigenvalues --   -1.60065  -1.39617  -1.19472  -1.08883  -1.07542
 Alpha  occ. eigenvalues --   -1.04861  -1.02737  -0.95731  -0.95218  -0.86277
 Alpha  occ. eigenvalues --   -0.86233  -0.82566  -0.78797  -0.77626  -0.77339
 Alpha  occ. eigenvalues --   -0.72238  -0.71391  -0.70579  -0.65127  -0.64863
 Alpha  occ. eigenvalues --   -0.64143  -0.62210  -0.60125  -0.58603  -0.56825
 Alpha  occ. eigenvalues --   -0.55368  -0.54529  -0.53187  -0.52952  -0.51947
 Alpha  occ. eigenvalues --   -0.51648  -0.49202  -0.49012  -0.48975  -0.47124
 Alpha  occ. eigenvalues --   -0.45813  -0.45021  -0.44879  -0.44726  -0.42964
 Alpha  occ. eigenvalues --   -0.37436  -0.36447
 Alpha virt. eigenvalues --    0.04859   0.11123   0.16360   0.21295   0.23677
 Alpha virt. eigenvalues --    0.24877   0.27051   0.27394   0.27999   0.28529
 Alpha virt. eigenvalues --    0.28747   0.30846   0.31620   0.32228   0.32705

 Mulliken charges:
               1
     1  C   -0.305127
     2  C   -0.297746
     3  C   -0.477027
     4  H    0.165590
     5  H    0.143880
     6  H    0.154580
     7  H    0.148565
     8  H    0.152133
     9  H    0.152231
    10  H    0.156501
    11  C   -0.297099
    12  C   -0.303201
    13  C   -0.475387
    14  H    0.151309
    15  H    0.144298
    16  H    0.168386
    17  H    0.147428
    18  H    0.150917
    19  H    0.155116
    20  H    0.158618
    21  C   -0.170261
    22  C   -0.218426
    23  C   -0.170430
    24  C    0.159906
    25  C   -0.171270
    26  C   -0.218154
    27  H    0.226170
    28  H    0.223942
    29  H    0.276039
    30  H    0.276033
    31  H    0.224183
    32  N    0.487177
    33  O   -0.460362
    34  O   -0.458512
 Sum of Mulliken charges =  -0.00000

 Dipole moment (field-independent basis, Debye):
    X=              4.5720    Y=              1.8355    Z=             -1.9129  Tot=              5.2850
 Quadrupole moment (field-independent basis, Debye-Ang):
   XX=            -77.8285   YY=            -96.8056   ZZ=            -92.0594
   XY=              1.6450   XZ=             -2.8408   YZ=              4.4299

 Normal termination of Gaussian 16 at Thu May  6 15:31:24 2021.
