 Gaussian 16, Revision A.03,
 Gaussian 16:  EM64L-G16RevA.03 25-Dec-2016

 -------------
 #p 6-31g* mp2
 -------------

 ------------------------------------------------------
 Input file generated by CHIRIPA (05-May-2021 14:53:12)
 ------------------------------------------------------
 Symbolic Z-matrix:
 Charge =  0 Multiplicity = 1

                         Standard orientation:
 ---------------------------------------------------------------------
 Center     Atomic      Atomic             Coordinates (Angstroms)
 Number     Number       Type             X           Y           Z
 ---------------------------------------------------------------------
      1          6           0       -3.956663   -0.477117   -0.260115
      2          6           0       -5.174275    0.176116   -0.914861
      3          6           0       -5.711078   -0.627990   -2.099365
      4          1           0       -3.164809   -0.598137   -1.011957
      5          1           0       -4.227238   -1.488200    0.074391
      6          1           0       -4.901872    1.186182   -1.246794
      7          1           0       -5.963253    0.295770   -0.161327
      8          1           0       -6.009938   -1.631595   -1.779895
      9          1           0       -4.942526   -0.736124   -2.871528
     10          1           0       -6.581330   -0.142979   -2.552450
     11          6           0       -3.408545    0.314967    0.925590
     12          6           0       -2.190932   -0.338265    1.580336
     13          6           0       -1.654129    0.465841    2.764840
     14          1           0       -3.137969    1.326050    0.591084
     15          1           0       -4.200399    0.435987    1.677432
     16          1           0       -1.401954   -0.457919    0.826803
     17          1           0       -2.463336   -1.348331    1.912269
     18          1           0       -2.422681    0.573974    3.537003
     19          1           0       -1.355269    1.469446    2.445370
     20          1           0       -0.783877   -0.019171    3.217925
     21          6           0        2.115035    2.460229   -0.460451
     22          6           0        3.441464    2.121097   -0.746973
     23          6           0        3.874725    0.796244   -0.639270
     24          6           0        2.950701   -0.168383   -0.240568
     25          6           0        1.622585    0.138072    0.051809
     26          6           0        1.211422    1.469381   -0.062676
     27          1           0        1.787050    3.491915   -0.546752
     28          1           0        4.145417    2.888514   -1.056112
     29          1           0        4.895813    0.505964   -0.854992
     30          1           0        0.943979   -0.648933    0.357646
     31          1           0        0.180693    1.729850    0.160480
     32          7           0        3.397678   -1.574363   -0.122958
     33          8           0        2.564086   -2.405622    0.230265
     34          8           0        4.573149   -1.818487   -0.386225
 ---------------------------------------------------------------------

 SCF Done:  E(RHF) =  -669.535206951     A.U. after   15 cycles
 E2 =    -0.2092143394D+01 EUMP2 =    -0.67162735034483D+03

 The electronic state is 1-A.
 Alpha  occ. eigenvalues --  -20.60743 -20.60738 -15.85794 -11.31152 -11.27728
 Alpha  occ. eigenvalues --  -11.27699 -11.27473 -11.26746 -11.26722 -11.22416
 Alpha  occ. eigenvalues --  -11.22078 -11.22014 -11.21860 -11.21828 -11.21368
 Alpha  occ. eigenvalues --   -1.59818  -1.39371  -1.19328  -1.09039  -1.08726
 Alpha  occ. eigenvalues --   -1.04740  -1.04112  -0.96544  -0.95561  -0.87555
 Alpha  occ. eigenvalues --   -0.86131  -0.82398  -0.80193  -0.78825  -0.77443
 Alpha  occ. eigenvalues --   -0.72014  -0.71140  -0.70453  -0.65727  -0.64976
 Alpha  occ. eigenvalues --   -0.64740  -0.62281  -0.61325  -0.59904  -0.58142
 Alpha  occ. eigenvalues --   -0.55847  -0.55222  -0.53229  -0.53059  -0.52961
 Alpha  occ. eigenvalues --   -0.52822  -0.50491  -0.48774  -0.48771  -0.48480
 Alpha  occ. eigenvalues --   -0.47245  -0.46355  -0.46283  -0.44778  -0.44354
 Alpha  occ. eigenvalues --   -0.37313  -0.36328
 Alpha virt. eigenvalues --    0.05085   0.11300   0.16549   0.18694   0.22775
 Alpha virt. eigenvalues --    0.23763   0.25157   0.25729   0.27353   0.28243
 Alpha virt. eigenvalues --    0.29243   0.29607   0.31275   0.31467   0.32317

 Mulliken charges:
               1
     1  C   -0.298924
     2  C   -0.299898
     3  C   -0.476143
     4  H    0.149657
     5  H    0.153302
     6  H    0.150376
     7  H    0.152982
     8  H    0.157004
     9  H    0.156031
    10  H    0.161173
    11  C   -0.297982
    12  C   -0.306882
    13  C   -0.478231
    14  H    0.143661
    15  H    0.153483
    16  H    0.144830
    17  H    0.161114
    18  H    0.160479
    19  H    0.148202
    20  H    0.166383
    21  C   -0.171207
    22  C   -0.218694
    23  C   -0.170665
    24  C    0.160830
    25  C   -0.179728
    26  C   -0.222228
    27  H    0.225474
    28  H    0.223350
    29  H    0.275477
    30  H    0.282395
    31  H    0.227154
    32  N    0.488271
    33  O   -0.460470
    34  O   -0.460577
 Sum of Mulliken charges =  -0.00000

 Dipole moment (field-independent basis, Debye):
    X=             -1.7468    Y=              4.8631    Z=             -0.3447  Tot=              5.1788
 Quadrupole moment (field-independent basis, Debye-Ang):
   XX=            -99.0632   YY=            -96.6234   ZZ=            -94.9608
   XY=             16.8445   XZ=             -3.3767   YZ=             -2.4522

 Normal termination of Gaussian 16 at Wed May  5 23:23:19 2021.
