 Gaussian 16, Revision A.03,
 Gaussian 16:  EM64L-G16RevA.03 25-Dec-2016

 -------------
 #p 6-31g* mp2
 -------------

 ------------------------------------------------------
 Input file generated by CHIRIPA (05-May-2021 14:57:25)
 ------------------------------------------------------
 Symbolic Z-matrix:
 Charge =  0 Multiplicity = 1

                         Standard orientation:
 ---------------------------------------------------------------------
 Center     Atomic      Atomic             Coordinates (Angstroms)
 Number     Number       Type             X           Y           Z
 ---------------------------------------------------------------------
      1          6           0       -1.832295    1.170600    0.133606
      2          6           0       -2.963569    1.929678    0.450687
      3          6           0       -4.244263    1.385095    0.317271
      4          6           0       -4.357458    0.072395   -0.138025
      5          6           0       -3.249595   -0.709261   -0.461972
      6          6           0       -1.978660   -0.144129   -0.320910
      7          1           0       -0.841212    1.601627    0.240217
      8          1           0       -2.852918    2.950974    0.803897
      9          1           0       -5.137046    1.950364    0.555658
     10          1           0       -3.391700   -1.724607   -0.811681
     11          1           0       -1.101879   -0.735985   -0.567902
     12          7           0       -5.708106   -0.515008   -0.283313
     13          8           0       -5.780981   -1.673805   -0.686446
     14          8           0       -6.668294    0.194505    0.008693
     15          6           0        6.280044    0.740391   -0.853764
     16          6           0        6.134039   -0.634996   -0.645156
     17          6           0        4.949873   -1.150118   -0.109482
     18          6           0        3.927467   -0.257142    0.207648
     19          6           0        4.042664    1.118196    0.011524
     20          6           0        5.235732    1.611061   -0.525338
     21          1           0        7.203391    1.131905   -1.270350
     22          1           0        6.943396   -1.313528   -0.899282
     23          1           0        4.810130   -2.210477    0.062357
     24          1           0        3.218248    1.769736    0.274684
     25          1           0        5.346321    2.679667   -0.686263
     26          7           0        2.669130   -0.790698    0.775370
     27          8           0        1.783256    0.016998    1.046457
     28          8           0        2.592548   -2.006493    0.938513
 ---------------------------------------------------------------------

 SCF Done:  E(RHF) =  -868.339970080     A.U. after   16 cycles
 E2 =    -0.2598503607D+01 EUMP2 =    -0.87093847368763D+03

 The electronic state is 1-A.
 Alpha  occ. eigenvalues --  -20.61951 -20.61885 -20.60014 -20.60005 -15.86949
 Alpha  occ. eigenvalues --  -15.85059 -11.32049 -11.30232 -11.28619 -11.28554
 Alpha  occ. eigenvalues --  -11.28255 -11.27542 -11.27506 -11.26824 -11.26732
 Alpha  occ. eigenvalues --  -11.26355 -11.25782 -11.25587  -1.60981  -1.59092
 Alpha  occ. eigenvalues --   -1.40544  -1.38651  -1.20192  -1.18369  -1.09631
 Alpha  occ. eigenvalues --   -1.07771  -1.05555  -1.03745  -0.96512  -0.94646
 Alpha  occ. eigenvalues --   -0.86965  -0.85131  -0.83357  -0.81494  -0.78440
 Alpha  occ. eigenvalues --   -0.76590  -0.73180  -0.72289  -0.71293  -0.71281
 Alpha  occ. eigenvalues --   -0.70414  -0.69406  -0.65847  -0.65550  -0.64005
 Alpha  occ. eigenvalues --   -0.63716  -0.62910  -0.61099  -0.56051  -0.54158
 Alpha  occ. eigenvalues --   -0.53895  -0.53642  -0.52085  -0.51818  -0.49940
 Alpha  occ. eigenvalues --   -0.49891  -0.48048  -0.48019  -0.46003  -0.44101
 Alpha  occ. eigenvalues --   -0.38147  -0.37146  -0.36296  -0.35357
 Alpha virt. eigenvalues --    0.04055   0.05938   0.10513   0.12311   0.15595
 Alpha virt. eigenvalues --    0.17500   0.20583   0.22502   0.26493   0.27252
 Alpha virt. eigenvalues --    0.28368   0.29163   0.30530   0.31392   0.32940

 Mulliken charges:
               1
     1  C   -0.169907
     2  C   -0.219900
     3  C   -0.172408
     4  C    0.157489
     5  C   -0.172804
     6  C   -0.217127
     7  H    0.233522
     8  H    0.218782
     9  H    0.271876
    10  H    0.273545
    11  H    0.231791
    12  N    0.488255
    13  O   -0.462236
    14  O   -0.463582
    15  C   -0.169703
    16  C   -0.218286
    17  C   -0.170292
    18  C    0.157709
    19  C   -0.170535
    20  C   -0.218120
    21  H    0.228584
    22  H    0.226444
    23  H    0.277338
    24  H    0.271203
    25  H    0.225250
    26  N    0.490332
    27  O   -0.472447
    28  O   -0.454773
 Sum of Mulliken charges =  -0.00000

 Dipole moment (field-independent basis, Debye):
    X=              9.8480    Y=              3.8349    Z=             -1.5064  Tot=             10.6751
 Quadrupole moment (field-independent basis, Debye-Ang):
   XX=           -111.0019   YY=            -97.7446   ZZ=           -106.9333
   XY=             -6.2715   XZ=            -11.1368   YZ=              2.3958

 Normal termination of Gaussian 16 at Thu May  6 22:52:42 2021.
