 Gaussian 16, Revision A.03,
 Gaussian 16:  EM64L-G16RevA.03 25-Dec-2016

 -------------
 #p 6-31g* mp2
 -------------

 ------------------------------------------------------
 Input file generated by CHIRIPA (05-May-2021 14:55:24)
 ------------------------------------------------------
 Symbolic Z-matrix:
 Charge =  0 Multiplicity = 1

                         Standard orientation:
 ---------------------------------------------------------------------
 Center     Atomic      Atomic             Coordinates (Angstroms)
 Number     Number       Type             X           Y           Z
 ---------------------------------------------------------------------
      1          6           0        0.851785   -1.071677   -0.641437
      2          6           0        1.909097   -1.987235   -0.660563
      3          6           0        3.205600   -1.581626   -0.330245
      4          6           0        3.409852   -0.246824    0.015984
      5          6           0        2.377134    0.689115    0.044313
      6          6           0        1.088760    0.261226   -0.289680
      7          1           0       -0.152212   -1.395418   -0.899463
      8          1           0        1.728005   -3.023014   -0.933350
      9          1           0        4.042409   -2.269467   -0.336869
     10          1           0        2.588698    1.715006    0.320369
     11          1           0        0.269553    0.974457   -0.273969
     12          7           0        4.778098    0.194369    0.367623
     13          8           0        4.931836    1.375925    0.669167
     14          8           0        5.670884   -0.649732    0.335035
     15          6           0       -4.337352   -0.268008   -0.184516
     16          6           0       -5.266119   -0.947767    0.822114
     17          6           0       -5.780834   -2.301228    0.331192
     18          1           0       -4.871488   -0.135805   -1.135393
     19          1           0       -3.486428   -0.931049   -0.393559
     20          1           0       -6.114327   -0.283055    1.030248
     21          1           0       -4.729773   -1.078194    1.770765
     22          1           0       -4.946920   -2.984743    0.141473
     23          1           0       -6.339341   -2.185087   -0.603251
     24          1           0       -6.442895   -2.769567    1.066170
     25          6           0       -3.814580    1.086026    0.291959
     26          6           0       -2.885812    1.765784   -0.714672
     27          6           0       -2.371096    3.119245   -0.223749
     28          1           0       -4.665504    1.749067    0.501003
     29          1           0       -3.280443    0.953823    1.242835
     30          1           0       -3.422159    1.896212   -1.663322
     31          1           0       -2.037604    1.101073   -0.922806
     32          1           0       -1.812590    3.003105    0.710693
     33          1           0       -3.205012    3.802761   -0.034030
     34          1           0       -1.709036    3.587584   -0.958728
 ---------------------------------------------------------------------

 SCF Done:  E(RHF) =  -669.535452319     A.U. after   15 cycles
 E2 =    -0.2091525509D+01 EUMP2 =    -0.67162697782778D+03

 The electronic state is 1-A.
 Alpha  occ. eigenvalues --  -20.60739 -20.60734 -15.85792 -11.31155 -11.27726
 Alpha  occ. eigenvalues --  -11.27713 -11.27469 -11.26746 -11.26699 -11.22790
 Alpha  occ. eigenvalues --  -11.22384 -11.22349 -11.22298 -11.22121 -11.21748
 Alpha  occ. eigenvalues --   -1.59815  -1.39368  -1.19327  -1.09395  -1.08724
 Alpha  occ. eigenvalues --   -1.04732  -1.04463  -0.96892  -0.95560  -0.87904
 Alpha  occ. eigenvalues --   -0.86133  -0.82390  -0.80536  -0.79193  -0.77439
 Alpha  occ. eigenvalues --   -0.72011  -0.71137  -0.70444  -0.66095  -0.64979
 Alpha  occ. eigenvalues --   -0.64731  -0.62228  -0.61705  -0.60260  -0.58496
 Alpha  occ. eigenvalues --   -0.56190  -0.55225  -0.53577  -0.53303  -0.53061
 Alpha  occ. eigenvalues --   -0.52813  -0.50842  -0.48855  -0.48766  -0.48748
 Alpha  occ. eigenvalues --   -0.47581  -0.46729  -0.46650  -0.44774  -0.44712
 Alpha  occ. eigenvalues --   -0.37312  -0.36332
 Alpha virt. eigenvalues --    0.05095   0.11309   0.16585   0.18268   0.22515
 Alpha virt. eigenvalues --    0.23003   0.24614   0.25916   0.26627   0.28454
 Alpha virt. eigenvalues --    0.29585   0.30698   0.30927   0.30957   0.31637

 Mulliken charges:
               1
     1  C   -0.173881
     2  C   -0.218505
     3  C   -0.171264
     4  C    0.158940
     5  C   -0.171906
     6  C   -0.226270
     7  H    0.226021
     8  H    0.223311
     9  H    0.275483
    10  H    0.275993
    11  H    0.234136
    12  N    0.487948
    13  O   -0.460399
    14  O   -0.460537
    15  C   -0.297375
    16  C   -0.300540
    17  C   -0.475892
    18  H    0.152322
    19  H    0.141779
    20  H    0.154677
    21  H    0.153254
    22  H    0.153376
    23  H    0.156459
    24  H    0.163134
    25  C   -0.299161
    26  C   -0.303643
    27  C   -0.479613
    28  H    0.154313
    29  H    0.150684
    30  H    0.157832
    31  H    0.140736
    32  H    0.154274
    33  H    0.161971
    34  H    0.162342
 Sum of Mulliken charges =  -0.00000

 Dipole moment (field-independent basis, Debye):
    X=             -5.0886    Y=             -1.4681    Z=             -1.2066  Tot=              5.4319
 Quadrupole moment (field-independent basis, Debye-Ang):
   XX=           -126.0232   YY=            -90.1109   ZZ=            -95.3893
   XY=             -7.0821   XZ=             -4.4686   YZ=              0.6706

 Normal termination of Gaussian 16 at Thu May  6 06:22:25 2021.
