 Gaussian 16, Revision A.03,
 Gaussian 16:  EM64L-G16RevA.03 25-Dec-2016

 -------------
 #p 6-31g* mp2
 -------------

 ------------------------------------------------------
 Input file generated by CHIRIPA (05-May-2021 14:51:14)
 ------------------------------------------------------
 Symbolic Z-matrix:
 Charge =  0 Multiplicity = 1

                         Standard orientation:
 ---------------------------------------------------------------------
 Center     Atomic      Atomic             Coordinates (Angstroms)
 Number     Number       Type             X           Y           Z
 ---------------------------------------------------------------------
      1          6           0        3.558794   -0.526014   -0.168440
      2          6           0        4.003859    0.908688   -0.453978
      3          6           0        5.346500    0.977262   -1.182268
      4          1           0        4.329122   -1.029600    0.431512
      5          1           0        3.491217   -1.077142   -1.116641
      6          1           0        4.069240    1.457334    0.494351
      7          1           0        3.232294    1.408977   -1.053157
      8          1           0        5.291073    0.454247   -2.142468
      9          1           0        6.132774    0.502880   -0.586167
     10          1           0        5.645561    2.012035   -1.376345
     11          6           0        2.218265   -0.610993    0.559220
     12          6           0        1.773201   -2.045695    0.844759
     13          6           0        0.430560   -2.114268    1.573048
     14          1           0        2.285843   -0.059864    1.507422
     15          1           0        1.447938   -0.107406   -0.040731
     16          1           0        2.544765   -2.545983    1.443938
     17          1           0        1.707819   -2.594341   -0.103571
     18          1           0       -0.355714   -1.639886    0.976948
     19          1           0        0.485987   -1.591254    2.533249
     20          1           0        0.131499   -3.149042    1.767126
     21          6           0       -2.708563    1.062029    0.359115
     22          6           0       -2.306699    2.441525   -0.163842
     23          6           0       -1.949518    3.417766    0.957394
     24          1           0       -3.564191    1.169901    1.039710
     25          1           0       -1.883850    0.649617    0.956742
     26          1           0       -3.131390    2.850621   -0.761455
     27          1           0       -1.452050    2.330335   -0.843422
     28          1           0       -1.111729    3.034957    1.549143
     29          1           0       -2.800610    3.558199    1.631575
     30          1           0       -1.665286    4.397606    0.561181
     31          6           0       -3.068497    0.074976   -0.749895
     32          6           0       -3.470361   -1.304519   -0.226938
     33          6           0       -3.827542   -2.280759   -1.348175
     34          1           0       -3.893209    0.487389   -1.347524
     35          1           0       -2.212870   -0.032895   -1.430491
     36          1           0       -4.325011   -1.193330    0.452641
     37          1           0       -2.645670   -1.713615    0.370673
     38          1           0       -2.976450   -2.421192   -2.022357
     39          1           0       -4.665332   -1.897950   -1.939924
     40          1           0       -4.111773   -3.260599   -0.951962
 ---------------------------------------------------------------------

 SCF Done:  E(RHF) =  -470.733215065     A.U. after   11 cycles
 E2 =    -0.1583280155D+01 EUMP2 =    -0.47231649521997D+03

 The electronic state is 1-A.
 Alpha  occ. eigenvalues --  -11.21674 -11.21643 -11.21593 -11.21556 -11.21474
 Alpha  occ. eigenvalues --  -11.21410 -11.21397 -11.21333 -11.21142 -11.21102
 Alpha  occ. eigenvalues --  -11.21057 -11.21050  -1.08496  -1.08419  -1.03593
 Alpha  occ. eigenvalues --   -1.03510  -0.96043  -0.95964  -0.87066  -0.86976
 Alpha  occ. eigenvalues --   -0.79676  -0.79561  -0.78326  -0.78211  -0.65221
 Alpha  occ. eigenvalues --   -0.64984  -0.61073  -0.60838  -0.59407  -0.59332
 Alpha  occ. eigenvalues --   -0.57655  -0.57568  -0.55338  -0.55253  -0.52736
 Alpha  occ. eigenvalues --   -0.52665  -0.52464  -0.52387  -0.50072  -0.49852
 Alpha  occ. eigenvalues --   -0.48024  -0.47872  -0.46812  -0.46528  -0.45975
 Alpha  occ. eigenvalues --   -0.45790  -0.45740  -0.45421  -0.43844  -0.43768
 Alpha virt. eigenvalues --    0.20135   0.23163   0.23943   0.24670   0.25680
 Alpha virt. eigenvalues --    0.26449   0.27042   0.27767   0.28231   0.29483
 Alpha virt. eigenvalues --    0.30748   0.31651   0.31708   0.31787   0.31981

 Mulliken charges:
               1
     1  C   -0.298344
     2  C   -0.299696
     3  C   -0.475758
     4  H    0.149967
     5  H    0.149639
     6  H    0.152089
     7  H    0.151867
     8  H    0.155241
     9  H    0.155275
    10  H    0.160457
    11  C   -0.298816
    12  C   -0.299404
    13  C   -0.484519
    14  H    0.149646
    15  H    0.149146
    16  H    0.152418
    17  H    0.152055
    18  H    0.163241
    19  H    0.155694
    20  H    0.160819
    21  C   -0.302206
    22  C   -0.299289
    23  C   -0.475810
    24  H    0.149855
    25  H    0.153003
    26  H    0.151872
    27  H    0.151343
    28  H    0.155751
    29  H    0.155105
    30  H    0.160127
    31  C   -0.297950
    32  C   -0.306889
    33  C   -0.475162
    34  H    0.149761
    35  H    0.148333
    36  H    0.152176
    37  H    0.158938
    38  H    0.154604
    39  H    0.155085
    40  H    0.160334
 Sum of Mulliken charges =  -0.00000

 Dipole moment (field-independent basis, Debye):
    X=              0.0244    Y=             -0.0131    Z=              0.0254  Tot=              0.0376
 Quadrupole moment (field-independent basis, Debye-Ang):
   XX=            -84.5474   YY=            -85.4042   ZZ=            -84.7317
   XY=             -0.7276   XZ=              0.6531   YZ=             -0.4388

 Normal termination of Gaussian 16 at Thu May  6 04:00:29 2021.
