 Gaussian 16, Revision A.03,
 Gaussian 16:  EM64L-G16RevA.03 25-Dec-2016

 -------------
 #p 6-31g* mp2
 -------------

 ------------------------------------------------------
 Input file generated by CHIRIPA (05-May-2021 14:55:20)
 ------------------------------------------------------
 Symbolic Z-matrix:
 Charge =  0 Multiplicity = 1

                         Standard orientation:
 ---------------------------------------------------------------------
 Center     Atomic      Atomic             Coordinates (Angstroms)
 Number     Number       Type             X           Y           Z
 ---------------------------------------------------------------------
      1          6           0        4.264568   -2.108333    0.816843
      2          6           0        2.869407   -2.035121    0.885303
      3          6           0        2.189354   -0.934311    0.355875
      4          6           0        2.939356    0.079872   -0.237605
      5          6           0        4.330173    0.035935   -0.321201
      6          6           0        4.989221   -1.074395    0.214870
      7          1           0        4.784691   -2.967166    1.230695
      8          1           0        2.304041   -2.836616    1.352222
      9          1           0        1.109958   -0.852038    0.395298
     10          1           0        4.866457    0.850454   -0.792768
     11          1           0        6.072793   -1.128570    0.160280
     12          7           0        2.230533    1.250289   -0.801603
     13          8           0        2.914335    2.130657   -1.319294
     14          8           0        1.004577    1.265131   -0.715295
     15          6           0       -3.339529    0.645394    0.113784
     16          6           0       -3.208946    1.591327    1.307996
     17          6           0       -2.059448    2.587128    1.150430
     18          1           0       -2.395284    0.099648   -0.018540
     19          1           0       -3.488876    1.237674   -0.799612
     20          1           0       -3.061273    0.997383    2.219062
     21          1           0       -4.153676    2.134744    1.437610
     22          1           0       -2.204126    3.204413    0.257890
     23          1           0       -1.105517    2.060590    1.043782
     24          1           0       -1.984249    3.253595    2.015315
     25          6           0       -4.484289   -0.356044    0.256524
     26          6           0       -4.614871   -1.301978   -0.937688
     27          6           0       -5.764369   -2.297779   -0.780123
     28          1           0       -4.334942   -0.948325    1.169921
     29          1           0       -5.428533    0.189701    0.388849
     30          1           0       -3.670142   -1.845395   -1.067302
     31          1           0       -4.762545   -0.708034   -1.848753
     32          1           0       -6.718301   -1.771241   -0.673473
     33          1           0       -5.619691   -2.915064    0.112418
     34          1           0       -5.839569   -2.964246   -1.645007
 ---------------------------------------------------------------------

 SCF Done:  E(RHF) =  -669.535923403     A.U. after   15 cycles
 E2 =    -0.2091108266D+01 EUMP2 =    -0.67162703166933D+03

 The electronic state is 1-A.
 Alpha  occ. eigenvalues --  -20.60923 -20.60913 -15.85954 -11.31292 -11.27865
 Alpha  occ. eigenvalues --  -11.27851 -11.27595 -11.26869 -11.26858 -11.21272
 Alpha  occ. eigenvalues --  -11.20941 -11.20843 -11.20841 -11.20680 -11.19857
 Alpha  occ. eigenvalues --   -1.59981  -1.39538  -1.19462  -1.08862  -1.07869
 Alpha  occ. eigenvalues --   -1.04862  -1.02918  -0.95704  -0.95340  -0.86350
 Alpha  occ. eigenvalues --   -0.86260  -0.82537  -0.79006  -0.77673  -0.77551
 Alpha  occ. eigenvalues --   -0.72178  -0.71295  -0.70571  -0.65119  -0.64865
 Alpha  occ. eigenvalues --   -0.64514  -0.62211  -0.60324  -0.58759  -0.56941
 Alpha  occ. eigenvalues --   -0.55364  -0.54625  -0.53191  -0.52955  -0.52051
 Alpha  occ. eigenvalues --   -0.51734  -0.49285  -0.48937  -0.48921  -0.47291
 Alpha  occ. eigenvalues --   -0.46071  -0.45201  -0.45132  -0.44841  -0.43187
 Alpha  occ. eigenvalues --   -0.37439  -0.36463
 Alpha virt. eigenvalues --    0.04915   0.11190   0.16386   0.20921   0.23133
 Alpha virt. eigenvalues --    0.24571   0.26206   0.27442   0.27683   0.28647
 Alpha virt. eigenvalues --    0.28964   0.30703   0.31690   0.32204   0.32479

 Mulliken charges:
               1
     1  C   -0.170618
     2  C   -0.218518
     3  C   -0.170952
     4  C    0.158219
     5  C   -0.170760
     6  C   -0.218520
     7  H    0.226007
     8  H    0.223796
     9  H    0.275116
    10  H    0.275918
    11  H    0.223849
    12  N    0.491090
    13  O   -0.458741
    14  O   -0.462645
    15  C   -0.296737
    16  C   -0.300056
    17  C   -0.480423
    18  H    0.150405
    19  H    0.152770
    20  H    0.145236
    21  H    0.148646
    22  H    0.158275
    23  H    0.172708
    24  H    0.153116
    25  C   -0.297944
    26  C   -0.298493
    27  C   -0.475244
    28  H    0.145444
    29  H    0.148987
    30  H    0.149184
    31  H    0.153591
    32  H    0.155292
    33  H    0.152999
    34  H    0.159004
 Sum of Mulliken charges =  -0.00000

 Dipole moment (field-independent basis, Debye):
    X=              2.7459    Y=             -4.0584    Z=              1.8766  Tot=              5.2471
 Quadrupole moment (field-independent basis, Debye-Ang):
   XX=            -77.1402   YY=            -95.4830   ZZ=            -96.1725
   XY=            -11.3221   XZ=              4.5743   YZ=             -0.1948

 Normal termination of Gaussian 16 at Thu May  6 14:05:53 2021.
