 Gaussian 16, Revision A.03,
 Gaussian 16:  EM64L-G16RevA.03 25-Dec-2016

 -------------
 #p 6-31g* mp2
 -------------

 ------------------------------------------------------
 Input file generated by CHIRIPA (05-May-2021 14:53:14)
 ------------------------------------------------------
 Symbolic Z-matrix:
 Charge =  0 Multiplicity = 1

                         Standard orientation:
 ---------------------------------------------------------------------
 Center     Atomic      Atomic             Coordinates (Angstroms)
 Number     Number       Type             X           Y           Z
 ---------------------------------------------------------------------
      1          6           0       -3.040405    0.876842   -0.177551
      2          6           0       -3.687883    2.201713    0.226768
      3          6           0       -2.683675    3.352358    0.300092
      4          1           0       -2.248095    0.628639    0.541883
      5          1           0       -2.549693    0.999201   -1.153064
      6          1           0       -4.178409    2.076509    1.200587
      7          1           0       -4.478873    2.446695   -0.493604
      8          1           0       -2.202234    3.505980   -0.671101
      9          1           0       -1.900063    3.133691    1.032716
     10          1           0       -3.167854    4.289862    0.590808
     11          6           0       -4.031568   -0.283026   -0.255203
     12          6           0       -3.384090   -1.607897   -0.659522
     13          6           0       -4.388298   -2.758542   -0.732845
     14          1           0       -4.522279   -0.405385    0.720310
     15          1           0       -4.823878   -0.034823   -0.974637
     16          1           0       -2.593100   -1.852879    0.060850
     17          1           0       -2.893564   -1.482693   -1.633341
     18          1           0       -5.171910   -2.539874   -1.465470
     19          1           0       -4.869739   -2.912164    0.238348
     20          1           0       -3.904119   -3.696046   -1.023562
     21          6           0        0.863288   -1.448810    1.299634
     22          6           0        0.808098   -0.060389    1.139122
     23          6           0        1.854649    0.624261    0.514197
     24          6           0        2.946097   -0.114319    0.059743
     25          6           0        3.030390   -1.498201    0.204846
     26          6           0        1.972304   -2.162028    0.832807
     27          1           0        0.045821   -1.972575    1.786269
     28          1           0       -0.051931    0.496092    1.500681
     29          1           0        1.837781    1.698632    0.376859
     30          1           0        3.900857   -2.025657   -0.165960
     31          1           0        2.017876   -3.240344    0.956092
     32          7           0        4.060140    0.599467   -0.603443
     33          8           0        5.010608   -0.074248   -0.995049
     34          8           0        3.961765    1.819134   -0.719087
 ---------------------------------------------------------------------

 SCF Done:  E(RHF) =  -669.535324133     A.U. after   15 cycles
 E2 =    -0.2091896064D+01 EUMP2 =    -0.67162722019795D+03

 The electronic state is 1-A.
 Alpha  occ. eigenvalues --  -20.60742 -20.60737 -15.85795 -11.31163 -11.27730
 Alpha  occ. eigenvalues --  -11.27718 -11.27483 -11.26751 -11.26727 -11.22350
 Alpha  occ. eigenvalues --  -11.22301 -11.22207 -11.22099 -11.21770 -11.21713
 Alpha  occ. eigenvalues --   -1.59818  -1.39371  -1.19335  -1.09186  -1.08731
 Alpha  occ. eigenvalues --   -1.04737  -1.04242  -0.96689  -0.95566  -0.87702
 Alpha  occ. eigenvalues --   -0.86141  -0.82399  -0.80300  -0.79016  -0.77438
 Alpha  occ. eigenvalues --   -0.72014  -0.71140  -0.70447  -0.65871  -0.64987
 Alpha  occ. eigenvalues --   -0.64723  -0.62106  -0.61628  -0.60051  -0.58299
 Alpha  occ. eigenvalues --   -0.55991  -0.55244  -0.53363  -0.53156  -0.53049
 Alpha  occ. eigenvalues --   -0.52816  -0.50632  -0.48785  -0.48768  -0.48604
 Alpha  occ. eigenvalues --   -0.47339  -0.46538  -0.46451  -0.44776  -0.44504
 Alpha  occ. eigenvalues --   -0.37306  -0.36324
 Alpha virt. eigenvalues --    0.05075   0.11227   0.16507   0.19073   0.22675
 Alpha virt. eigenvalues --    0.22946   0.25118   0.26474   0.26543   0.27763
 Alpha virt. eigenvalues --    0.29456   0.30315   0.31130   0.31421   0.32147

 Mulliken charges:
               1
     1  C   -0.300578
     2  C   -0.300439
     3  C   -0.475705
     4  H    0.140458
     5  H    0.154499
     6  H    0.152091
     7  H    0.155750
     8  H    0.159098
     9  H    0.147415
    10  H    0.164594
    11  C   -0.298926
    12  C   -0.298638
    13  C   -0.476288
    14  H    0.149142
    15  H    0.153400
    16  H    0.143323
    17  H    0.156130
    18  H    0.158137
    19  H    0.154868
    20  H    0.160891
    21  C   -0.172123
    22  C   -0.218682
    23  C   -0.172203
    24  C    0.158674
    25  C   -0.171040
    26  C   -0.218534
    27  H    0.225629
    28  H    0.227073
    29  H    0.275999
    30  H    0.275506
    31  H    0.223355
    32  N    0.488025
    33  O   -0.460569
    34  O   -0.460331
 Sum of Mulliken charges =  -0.00000

 Dipole moment (field-independent basis, Debye):
    X=             -4.0771    Y=             -2.4689    Z=              2.2126  Tot=              5.2549
 Quadrupole moment (field-independent basis, Debye-Ang):
   XX=           -117.0379   YY=            -91.0881   ZZ=            -94.2190
   XY=            -10.2125   XZ=              6.7986   YZ=             -0.1679

 Normal termination of Gaussian 16 at Wed May  5 21:50:00 2021.
