 Gaussian 16, Revision A.03,
 Gaussian 16:  EM64L-G16RevA.03 25-Dec-2016

 -------------
 #p 6-31g* mp2
 -------------

 ------------------------------------------------------
 Input file generated by CHIRIPA (05-May-2021 14:55:19)
 ------------------------------------------------------
 Symbolic Z-matrix:
 Charge =  0 Multiplicity = 1

                         Standard orientation:
 ---------------------------------------------------------------------
 Center     Atomic      Atomic             Coordinates (Angstroms)
 Number     Number       Type             X           Y           Z
 ---------------------------------------------------------------------
      1          6           0        2.377277   -2.655361    0.746061
      2          6           0        1.257542   -1.956813    0.282654
      3          6           0        1.386424   -0.654105   -0.208149
      4          6           0        2.655711   -0.077880   -0.221076
      5          6           0        3.790358   -0.748012    0.233663
      6          6           0        3.637889   -2.049799    0.720131
      7          1           0        2.267996   -3.666978    1.125645
      8          1           0        0.277303   -2.424593    0.301598
      9          1           0        0.536353   -0.090504   -0.573048
     10          1           0        4.754540   -0.255283    0.202200
     11          1           0        4.509249   -2.589910    1.079374
     12          7           0        2.804638    1.300752   -0.738373
     13          8           0        3.933830    1.786099   -0.739141
     14          8           0        1.789355    1.869871   -1.133268
     15          6           0       -3.245604    1.144031    0.200301
     16          6           0       -2.057337    1.534985    1.079596
     17          6           0       -1.825394    3.045667    1.122452
     18          1           0       -3.079059    1.519912   -0.818483
     19          1           0       -4.149704    1.644282    0.574130
     20          1           0       -1.156005    1.033055    0.705053
     21          1           0       -2.226641    1.157965    2.096359
     22          1           0       -2.707849    3.559873    1.516745
     23          1           0       -1.631130    3.434252    0.117533
     24          1           0       -0.971268    3.302868    1.756627
     25          6           0       -3.490180   -0.362989    0.147395
     26          6           0       -4.678447   -0.753942   -0.731900
     27          6           0       -4.910390   -2.264625   -0.774756
     28          1           0       -2.586080   -0.863239   -0.226434
     29          1           0       -3.656725   -0.738869    1.166180
     30          1           0       -4.509143   -0.376922   -1.748663
     31          1           0       -5.579779   -0.252012   -0.357356
     32          1           0       -5.104654   -2.653210    0.230164
     33          1           0       -4.027934   -2.778830   -1.169048
     34          1           0       -5.764515   -2.521824   -1.408931
 ---------------------------------------------------------------------

 SCF Done:  E(RHF) =  -669.535525845     A.U. after   15 cycles
 E2 =    -0.2091901586D+01 EUMP2 =    -0.67162742743067D+03

 The electronic state is 1-A.
 Alpha  occ. eigenvalues --  -20.60798 -20.60793 -15.85847 -11.31204 -11.27771
 Alpha  occ. eigenvalues --  -11.27758 -11.27508 -11.26790 -11.26776 -11.21927
 Alpha  occ. eigenvalues --  -11.21816 -11.21644 -11.21499 -11.21455 -11.20726
 Alpha  occ. eigenvalues --   -1.59869  -1.39424  -1.19376  -1.08771  -1.08658
 Alpha  occ. eigenvalues --   -1.04779  -1.03656  -0.96095  -0.95609  -0.87107
 Alpha  occ. eigenvalues --   -0.86178  -0.82441  -0.79752  -0.78491  -0.77484
 Alpha  occ. eigenvalues --   -0.72067  -0.71190  -0.70494  -0.65320  -0.65028
 Alpha  occ. eigenvalues --   -0.64773  -0.62155  -0.61020  -0.59485  -0.57710
 Alpha  occ. eigenvalues --   -0.55384  -0.55280  -0.53107  -0.52892  -0.52747
 Alpha  occ. eigenvalues --   -0.52513  -0.50025  -0.48825  -0.48822  -0.48050
 Alpha  occ. eigenvalues --   -0.46794  -0.46012  -0.45917  -0.44824  -0.43935
 Alpha  occ. eigenvalues --   -0.37354  -0.36368
 Alpha virt. eigenvalues --    0.05006   0.11213   0.16531   0.19270   0.22955
 Alpha virt. eigenvalues --    0.23950   0.24805   0.26909   0.27776   0.27992
 Alpha virt. eigenvalues --    0.29713   0.30587   0.31522   0.31610   0.32161

 Mulliken charges:
               1
     1  C   -0.170810
     2  C   -0.220505
     3  C   -0.174081
     4  C    0.158368
     5  C   -0.170878
     6  C   -0.218335
     7  H    0.225833
     8  H    0.225045
     9  H    0.280569
    10  H    0.275618
    11  H    0.223549
    12  N    0.487999
    13  O   -0.460080
    14  O   -0.461348
    15  C   -0.299669
    16  C   -0.302622
    17  C   -0.474607
    18  H    0.153860
    19  H    0.151467
    20  H    0.148098
    21  H    0.149936
    22  H    0.152422
    23  H    0.164499
    24  H    0.163218
    25  C   -0.296597
    26  C   -0.299892
    27  C   -0.475539
    28  H    0.137329
    29  H    0.149699
    30  H    0.154349
    31  H    0.154433
    32  H    0.154752
    33  H    0.151513
    34  H    0.162408
 Sum of Mulliken charges =  -0.00000

 Dipole moment (field-independent basis, Debye):
    X=             -0.5562    Y=             -4.7240    Z=              1.8069  Tot=              5.0883
 Quadrupole moment (field-independent basis, Debye-Ang):
   XX=            -91.9956   YY=            -95.4028   ZZ=            -95.6479
   XY=            -13.8486   XZ=              5.6709   YZ=              0.6854

 Normal termination of Gaussian 16 at Thu May  6 06:05:56 2021.
