 Gaussian 16, Revision A.03,
 Gaussian 16:  EM64L-G16RevA.03 25-Dec-2016

 -------------
 #p 6-31g* mp2
 -------------

 ------------------------------------------------------
 Input file generated by CHIRIPA (05-May-2021 14:53:16)
 ------------------------------------------------------
 Symbolic Z-matrix:
 Charge =  0 Multiplicity = 1

                         Standard orientation:
 ---------------------------------------------------------------------
 Center     Atomic      Atomic             Coordinates (Angstroms)
 Number     Number       Type             X           Y           Z
 ---------------------------------------------------------------------
      1          6           0        3.868168    0.799666   -0.162382
      2          6           0        2.566580    1.585905   -0.322638
      3          6           0        2.781718    3.099228   -0.285743
      4          1           0        4.344359    1.080724    0.786930
      5          1           0        4.565211    1.091416   -0.960133
      6          1           0        1.871688    1.291745    0.474363
      7          1           0        2.093335    1.302801   -1.271589
      8          1           0        3.454772    3.412386   -1.090437
      9          1           0        3.231865    3.401267    0.665436
     10          1           0        1.838347    3.641797   -0.402067
     11          6           0        3.669424   -0.714605   -0.197201
     12          6           0        4.971012   -1.500844   -0.036945
     13          6           0        4.755874   -3.014167   -0.073840
     14          1           0        2.972381   -1.006355    0.600550
     15          1           0        3.193233   -0.995662   -1.146513
     16          1           0        5.444257   -1.217740    0.912006
     17          1           0        5.665904   -1.206683   -0.833946
     18          1           0        4.305727   -3.316206   -1.025019
     19          1           0        4.082820   -3.327325    0.730854
     20          1           0        5.699244   -3.556735    0.042484
     21          6           0       -1.072793    1.527384    0.794377
     22          6           0       -2.181814    2.017813    0.097188
     23          6           0       -3.224672    1.162252   -0.270247
     24          6           0       -3.125309   -0.184101    0.077244
     25          6           0       -2.033440   -0.702855    0.771510
     26          6           0       -1.002270    0.171008    1.128724
     27          1           0       -0.267216    2.199114    1.075841
     28          1           0       -2.239274    3.070728   -0.163800
     29          1           0       -4.094775    1.515342   -0.810308
     30          1           0       -2.004519   -1.757363    1.017667
     31          1           0       -0.142199   -0.212653    1.670138
     32          7           0       -4.223150   -1.099533   -0.306334
     33          8           0       -4.111668   -2.281525    0.011634
     34          8           0       -5.174329   -0.617722   -0.917686
 ---------------------------------------------------------------------

 SCF Done:  E(RHF) =  -669.534796707     A.U. after   15 cycles
 E2 =    -0.2092303945D+01 EUMP2 =    -0.67162710065285D+03

 The electronic state is 1-A.
 Alpha  occ. eigenvalues --  -20.60732 -20.60727 -15.85787 -11.31143 -11.27723
 Alpha  occ. eigenvalues --  -11.27718 -11.27428 -11.26727 -11.26716 -11.22609
 Alpha  occ. eigenvalues --  -11.22200 -11.22168 -11.22128 -11.22089 -11.21527
 Alpha  occ. eigenvalues --   -1.59809  -1.39362  -1.19321  -1.09222  -1.08713
 Alpha  occ. eigenvalues --   -1.04726  -1.04314  -0.96754  -0.95551  -0.87763
 Alpha  occ. eigenvalues --   -0.86127  -0.82390  -0.80392  -0.79012  -0.77432
 Alpha  occ. eigenvalues --   -0.72006  -0.71132  -0.70457  -0.65871  -0.64973
 Alpha  occ. eigenvalues --   -0.64730  -0.62087  -0.61697  -0.60159  -0.58377
 Alpha  occ. eigenvalues --   -0.56044  -0.55173  -0.53457  -0.53175  -0.53044
 Alpha  occ. eigenvalues --   -0.52820  -0.50683  -0.48766  -0.48763  -0.48682
 Alpha  occ. eigenvalues --   -0.47418  -0.46546  -0.46456  -0.44770  -0.44562
 Alpha  occ. eigenvalues --   -0.37257  -0.36326
 Alpha virt. eigenvalues --    0.05089   0.11249   0.16527   0.19434   0.22540
 Alpha virt. eigenvalues --    0.23330   0.24695   0.26206   0.26498   0.28471
 Alpha virt. eigenvalues --    0.29290   0.30405   0.30925   0.31025   0.31888

 Mulliken charges:
               1
     1  C   -0.298853
     2  C   -0.301570
     3  C   -0.478104
     4  H    0.149948
     5  H    0.153009
     6  H    0.141668
     7  H    0.158367
     8  H    0.161548
     9  H    0.156398
    10  H    0.154354
    11  C   -0.297685
    12  C   -0.300334
    13  C   -0.476071
    14  H    0.143410
    15  H    0.153153
    16  H    0.152219
    17  H    0.153903
    18  H    0.157157
    19  H    0.154406
    20  H    0.162411
    21  C   -0.169882
    22  C   -0.220430
    23  C   -0.170837
    24  C    0.158075
    25  C   -0.171337
    26  C   -0.218373
    27  H    0.229465
    28  H    0.223034
    29  H    0.275423
    30  H    0.275477
    31  H    0.223114
    32  N    0.488124
    33  O   -0.460567
    34  O   -0.460619
 Sum of Mulliken charges =  -0.00000

 Dipole moment (field-independent basis, Debye):
    X=              4.0577    Y=              3.1971    Z=              1.2441  Tot=              5.3136
 Quadrupole moment (field-independent basis, Debye-Ang):
   XX=           -117.6435   YY=            -94.4613   ZZ=            -93.2660
   XY=            -13.0525   XZ=             -3.1867   YZ=             -1.9698

 Normal termination of Gaussian 16 at Wed May  5 23:33:58 2021.
