 Gaussian 16, Revision A.03,
 Gaussian 16:  EM64L-G16RevA.03 25-Dec-2016

 -------------
 #p 6-31g* mp2
 -------------

 ------------------------------------------------------
 Input file generated by CHIRIPA (05-May-2021 14:55:22)
 ------------------------------------------------------
 Symbolic Z-matrix:
 Charge =  0 Multiplicity = 1

                         Standard orientation:
 ---------------------------------------------------------------------
 Center     Atomic      Atomic             Coordinates (Angstroms)
 Number     Number       Type             X           Y           Z
 ---------------------------------------------------------------------
      1          6           0       -0.587048    0.616039    1.845545
      2          6           0       -0.514728   -0.677208    1.317526
      3          6           0       -1.520799   -1.156803    0.473513
      4          6           0       -2.589674   -0.312446    0.177105
      5          6           0       -2.690166    0.980886    0.687481
      6          6           0       -1.672622    1.439506    1.529395
      7          1           0        0.198949    0.980453    2.500379
      8          1           0        0.327167   -1.318935    1.561334
      9          1           0       -1.489906   -2.153723    0.050883
     10          1           0       -3.541796    1.597284    0.426333
     11          1           0       -1.731416    2.444306    1.938009
     12          7           0       -3.660829   -0.809070   -0.715303
     13          8           0       -4.592052   -0.045513   -0.961151
     14          8           0       -3.548896   -1.952478   -1.152025
     15          6           0        3.681858   -0.083907   -0.118250
     16          6           0        3.603286   -1.595909   -0.331934
     17          6           0        4.796800   -2.340425    0.267242
     18          1           0        4.612611    0.294871   -0.562289
     19          1           0        3.742002    0.124511    0.958941
     20          1           0        3.541913   -1.801349   -1.408337
     21          1           0        2.672519   -1.971103    0.112497
     22          1           0        4.858222   -2.164832    1.346129
     23          1           0        5.732556   -1.994114   -0.183348
     24          1           0        4.720251   -3.419789    0.103005
     25          6           0        2.495767    0.674235   -0.711662
     26          6           0        2.574339    2.186237   -0.497977
     27          6           0        1.380824    2.930753   -1.097154
     28          1           0        2.435623    0.465817   -1.788853
     29          1           0        1.565014    0.295456   -0.267622
     30          1           0        3.505105    2.561431   -0.942409
     31          1           0        2.635712    2.391676    0.578427
     32          1           0        0.445068    2.584441   -0.646564
     33          1           0        1.319402    2.755161   -2.176040
     34          1           0        1.457373    4.010117   -0.932916
 ---------------------------------------------------------------------

 SCF Done:  E(RHF) =  -669.534733948     A.U. after   15 cycles
 E2 =    -0.2094377900D+01 EUMP2 =    -0.67162911184795D+03

 The electronic state is 1-A.
 Alpha  occ. eigenvalues --  -20.60850 -20.60845 -15.85906 -11.31326 -11.27913
 Alpha  occ. eigenvalues --  -11.27898 -11.27663 -11.26937 -11.26911 -11.22297
 Alpha  occ. eigenvalues --  -11.22095 -11.21988 -11.21712 -11.21654 -11.21392
 Alpha  occ. eigenvalues --   -1.59924  -1.39476  -1.19522  -1.09018  -1.08867
 Alpha  occ. eigenvalues --   -1.04933  -1.04061  -0.96481  -0.95723  -0.87498
 Alpha  occ. eigenvalues --   -0.86324  -0.82551  -0.80136  -0.78787  -0.77583
 Alpha  occ. eigenvalues --   -0.72124  -0.71247  -0.70615  -0.65728  -0.65167
 Alpha  occ. eigenvalues --   -0.64859  -0.62267  -0.61490  -0.59854  -0.58095
 Alpha  occ. eigenvalues --   -0.55781  -0.55420  -0.53322  -0.53177  -0.53003
 Alpha  occ. eigenvalues --   -0.52897  -0.50441  -0.48889  -0.48874  -0.48432
 Alpha  occ. eigenvalues --   -0.47194  -0.46300  -0.46242  -0.44869  -0.44300
 Alpha  occ. eigenvalues --   -0.37415  -0.36467
 Alpha virt. eigenvalues --    0.04933   0.10978   0.16331   0.19365   0.23064
 Alpha virt. eigenvalues --    0.23289   0.25539   0.25989   0.27190   0.28374
 Alpha virt. eigenvalues --    0.29321   0.29878   0.31209   0.31427   0.32043

 Mulliken charges:
               1
     1  C   -0.169414
     2  C   -0.222688
     3  C   -0.170649
     4  C    0.159029
     5  C   -0.170722
     6  C   -0.218417
     7  H    0.227495
     8  H    0.228404
     9  H    0.276650
    10  H    0.276675
    11  H    0.225150
    12  N    0.488111
    13  O   -0.459921
    14  O   -0.459837
    15  C   -0.298016
    16  C   -0.299702
    17  C   -0.475795
    18  H    0.152654
    19  H    0.143129
    20  H    0.156765
    21  H    0.142620
    22  H    0.153328
    23  H    0.158090
    24  H    0.162092
    25  C   -0.309240
    26  C   -0.297626
    27  C   -0.481074
    28  H    0.152271
    29  H    0.158271
    30  H    0.153735
    31  H    0.143418
    32  H    0.158347
    33  H    0.158290
    34  H    0.158578
 Sum of Mulliken charges =  -0.00000

 Dipole moment (field-independent basis, Debye):
    X=              3.6747    Y=              1.7025    Z=              3.0950  Tot=              5.0972
 Quadrupole moment (field-independent basis, Debye-Ang):
   XX=           -113.9296   YY=            -92.7978   ZZ=            -93.5598
   XY=             -7.8184   XZ=             -8.8504   YZ=              0.0237

 Normal termination of Gaussian 16 at Thu May  6 20:47:03 2021.
