 Gaussian 16, Revision A.03,
 Gaussian 16:  EM64L-G16RevA.03 25-Dec-2016

 -------------
 #p 6-31g* mp2
 -------------

 ------------------------------------------------------
 Input file generated by CHIRIPA (05-May-2021 14:53:16)
 ------------------------------------------------------
 Symbolic Z-matrix:
 Charge =  0 Multiplicity = 1

                         Standard orientation:
 ---------------------------------------------------------------------
 Center     Atomic      Atomic             Coordinates (Angstroms)
 Number     Number       Type             X           Y           Z
 ---------------------------------------------------------------------
      1          6           0       -3.836270   -0.573634   -0.400010
      2          6           0       -3.301592   -1.750649    0.416531
      3          6           0       -3.133890   -3.021067   -0.417560
      4          1           0       -4.801577   -0.852316   -0.844379
      5          1           0       -3.152236   -0.376230   -1.236984
      6          1           0       -3.985707   -1.944888    1.252517
      7          1           0       -2.337537   -1.469065    0.859164
      8          1           0       -2.435022   -2.850603   -1.242864
      9          1           0       -4.092557   -3.329130   -0.847276
     10          1           0       -2.750615   -3.849825    0.185864
     11          6           0       -4.009311    0.703626    0.419985
     12          6           0       -4.543989    1.880641   -0.396556
     13          6           0       -4.711691    3.151060    0.437535
     14          1           0       -4.693345    0.506222    1.256958
     15          1           0       -3.044004    0.982309    0.864353
     16          1           0       -5.508044    1.599057   -0.839189
     17          1           0       -3.859874    2.074880   -1.232543
     18          1           0       -3.753024    3.459122    0.867250
     19          1           0       -5.410559    2.980596    1.262839
     20          1           0       -5.094966    3.979817   -0.165890
     21          6           0        0.856477   -1.270074    0.047665
     22          6           0        1.300091   -0.679004   -1.139922
     23          6           0        2.521949   -0.000906   -1.182270
     24          6           0        3.278161    0.067099   -0.013165
     25          6           0        2.863352   -0.511495    1.185356
     26          6           0        1.638145   -1.184584    1.204474
     27          1           0       -0.093993   -1.794891    0.071540
     28          1           0        0.695127   -0.743808   -2.039845
     29          1           0        2.889361    0.465773   -2.088161
     30          1           0        3.488420   -0.430160    2.066317
     31          1           0        1.296141   -1.642664    2.128184
     32          7           0        4.573461    0.782319   -0.045701
     33          8           0        5.221102    0.828102    0.997898
     34          8           0        4.916548    1.283583   -1.114187
 ---------------------------------------------------------------------

 SCF Done:  E(RHF) =  -669.535460277     A.U. after   15 cycles
 E2 =    -0.2091471198D+01 EUMP2 =    -0.67162693147569D+03

 The electronic state is 1-A.
 Alpha  occ. eigenvalues --  -20.60761 -20.60756 -15.85815 -11.31184 -11.27755
 Alpha  occ. eigenvalues --  -11.27750 -11.27454 -11.26769 -11.26757 -11.22778
 Alpha  occ. eigenvalues --  -11.22329 -11.22291 -11.22180 -11.22085 -11.21513
 Alpha  occ. eigenvalues --   -1.59837  -1.39390  -1.19355  -1.09299  -1.08746
 Alpha  occ. eigenvalues --   -1.04760  -1.04393  -0.96825  -0.95582  -0.87835
 Alpha  occ. eigenvalues --   -0.86156  -0.82419  -0.80475  -0.79058  -0.77464
 Alpha  occ. eigenvalues --   -0.72033  -0.71160  -0.70499  -0.65940  -0.65006
 Alpha  occ. eigenvalues --   -0.64761  -0.62109  -0.61811  -0.60222  -0.58418
 Alpha  occ. eigenvalues --   -0.56177  -0.55163  -0.53519  -0.53231  -0.53088
 Alpha  occ. eigenvalues --   -0.52851  -0.50777  -0.48805  -0.48788  -0.48754
 Alpha  occ. eigenvalues --   -0.47530  -0.46599  -0.46503  -0.44795  -0.44621
 Alpha  occ. eigenvalues --   -0.37326  -0.36368
 Alpha virt. eigenvalues --    0.05051   0.11279   0.16459   0.18861   0.22790
 Alpha virt. eigenvalues --    0.23794   0.25594   0.25850   0.26930   0.27686
 Alpha virt. eigenvalues --    0.29247   0.30528   0.30723   0.31021   0.31862

 Mulliken charges:
               1
     1  C   -0.297248
     2  C   -0.305099
     3  C   -0.478602
     4  H    0.153462
     5  H    0.145835
     6  H    0.158053
     7  H    0.143994
     8  H    0.149257
     9  H    0.162618
    10  H    0.161537
    11  C   -0.299344
    12  C   -0.300115
    13  C   -0.476353
    14  H    0.151287
    15  H    0.150715
    16  H    0.152967
    17  H    0.152040
    18  H    0.156632
    19  H    0.155916
    20  H    0.162308
    21  C   -0.177854
    22  C   -0.220686
    23  C   -0.170753
    24  C    0.158357
    25  C   -0.170651
    26  C   -0.220822
    27  H    0.237679
    28  H    0.222988
    29  H    0.275523
    30  H    0.275585
    31  H    0.223620
    32  N    0.488033
    33  O   -0.460420
    34  O   -0.460459
 Sum of Mulliken charges =  -0.00000

 Dipole moment (field-independent basis, Debye):
    X=             -4.7879    Y=             -2.4823    Z=              0.1342  Tot=              5.3948
 Quadrupole moment (field-independent basis, Debye-Ang):
   XX=           -123.4491   YY=            -96.3155   ZZ=            -90.2930
   XY=             -8.2781   XZ=              1.0653   YZ=             -1.6816

 Normal termination of Gaussian 16 at Thu May  6 07:29:36 2021.
