 Gaussian 16, Revision A.03,
 Gaussian 16:  EM64L-G16RevA.03 25-Dec-2016

 -------------
 #p 6-31g* mp2
 -------------

 ------------------------------------------------------
 Input file generated by CHIRIPA (05-May-2021 14:57:27)
 ------------------------------------------------------
 Symbolic Z-matrix:
 Charge =  0 Multiplicity = 1

                         Standard orientation:
 ---------------------------------------------------------------------
 Center     Atomic      Atomic             Coordinates (Angstroms)
 Number     Number       Type             X           Y           Z
 ---------------------------------------------------------------------
      1          6           0       -3.230336    0.207079    2.538881
      2          6           0       -4.383145   -0.248879    1.891073
      3          6           0       -4.420190   -0.353288    0.497418
      4          6           0       -3.281301    0.008383   -0.220505
      5          6           0       -2.117767    0.466135    0.395889
      6          6           0       -2.103313    0.562504    1.790541
      7          1           0       -3.210333    0.285064    3.621892
      8          1           0       -5.259887   -0.525605    2.469685
      9          1           0       -5.299455   -0.703214   -0.029709
     10          1           0       -1.259389    0.734629   -0.207863
     11          1           0       -1.206643    0.916928    2.290951
     12          7           0       -3.308560   -0.097894   -1.696433
     13          8           0       -2.292025    0.226953   -2.306161
     14          8           0       -4.345945   -0.504029   -2.215590
     15          6           0        3.036141    2.479253   -0.202228
     16          6           0        1.904165    1.660519   -0.271706
     17          6           0        2.025637    0.271225   -0.173439
     18          6           0        3.300075   -0.268088   -0.005394
     19          6           0        4.446885    0.521093    0.067472
     20          6           0        4.301656    1.907935   -0.033158
     21          1           0        2.932550    3.557538   -0.279481
     22          1           0        0.920094    2.101447   -0.402971
     23          1           0        1.166061   -0.386034   -0.224014
     24          1           0        5.414630    0.052409    0.198714
     25          1           0        5.182520    2.541319    0.021136
     26          7           0        3.441246   -1.737573    0.099888
     27          8           0        4.575196   -2.188102    0.247606
     28          8           0        2.415276   -2.411002    0.032696
 ---------------------------------------------------------------------

 SCF Done:  E(RHF) =  -868.336919107     A.U. after   16 cycles
 E2 =    -0.2600438054D+01 EUMP2 =    -0.87093735716116D+03

 The electronic state is 1-A.
 Alpha  occ. eigenvalues --  -20.61160 -20.61137 -20.60908 -20.60899 -15.86205
 Alpha  occ. eigenvalues --  -15.85965 -11.31638 -11.31424 -11.28324 -11.28125
 Alpha  occ. eigenvalues --  -11.28047 -11.27994 -11.27871 -11.27769 -11.27246
 Alpha  occ. eigenvalues --  -11.27153 -11.27107 -11.27009  -1.60219  -1.59981
 Alpha  occ. eigenvalues --   -1.39776  -1.39531  -1.19788  -1.19613  -1.09153
 Alpha  occ. eigenvalues --   -1.08984  -1.05231  -1.05037  -0.95997  -0.95802
 Alpha  occ. eigenvalues --   -0.86604  -0.86429  -0.82847  -0.82643  -0.77943
 Alpha  occ. eigenvalues --   -0.77641  -0.72424  -0.72181  -0.71537  -0.71306
 Alpha  occ. eigenvalues --   -0.70945  -0.70674  -0.65447  -0.65308  -0.65197
 Alpha  occ. eigenvalues --   -0.65053  -0.62818  -0.62154  -0.55686  -0.55499
 Alpha  occ. eigenvalues --   -0.53516  -0.53353  -0.53307  -0.53130  -0.49192
 Alpha  occ. eigenvalues --   -0.49170  -0.48948  -0.48929  -0.45168  -0.44917
 Alpha  occ. eigenvalues --   -0.37722  -0.37582  -0.36813  -0.36645
 Alpha virt. eigenvalues --    0.04633   0.04869   0.10808   0.11013   0.16157
 Alpha virt. eigenvalues --    0.16301   0.18629   0.22090   0.24693   0.27467
 Alpha virt. eigenvalues --    0.27882   0.29534   0.30222   0.31118   0.31902

 Mulliken charges:
               1
     1  C   -0.169992
     2  C   -0.217408
     3  C   -0.169303
     4  C    0.162432
     5  C   -0.180091
     6  C   -0.218335
     7  H    0.227962
     8  H    0.225918
     9  H    0.277611
    10  H    0.270783
    11  H    0.223451
    12  N    0.487769
    13  O   -0.463217
    14  O   -0.456860
    15  C   -0.170159
    16  C   -0.223101
    17  C   -0.173761
    18  C    0.158940
    19  C   -0.169990
    20  C   -0.218684
    21  H    0.227152
    22  H    0.221638
    23  H    0.276430
    24  H    0.276726
    25  H    0.224696
    26  N    0.488171
    27  O   -0.459900
    28  O   -0.458880
 Sum of Mulliken charges =  -0.00000

 Dipole moment (field-independent basis, Debye):
    X=             -0.4977    Y=              5.4662    Z=              4.8799  Tot=              7.3444
 Quadrupole moment (field-independent basis, Debye-Ang):
   XX=            -97.7950   YY=           -108.2873   ZZ=           -108.2341
   XY=             18.8799   XZ=            -18.5047   YZ=             -0.0158

 Normal termination of Gaussian 16 at Thu May  6 02:03:01 2021.
