 Gaussian 16, Revision A.03,
 Gaussian 16:  EM64L-G16RevA.03 25-Dec-2016

 -------------
 #p 6-31g* mp2
 -------------

 ------------------------------------------------------
 Input file generated by CHIRIPA (05-May-2021 14:57:26)
 ------------------------------------------------------
 Symbolic Z-matrix:
 Charge =  0 Multiplicity = 1

                         Standard orientation:
 ---------------------------------------------------------------------
 Center     Atomic      Atomic             Coordinates (Angstroms)
 Number     Number       Type             X           Y           Z
 ---------------------------------------------------------------------
      1          6           0        2.125928    2.023477    0.136161
      2          6           0        1.885576    0.968233    1.022283
      3          6           0        2.678556   -0.182648    0.987598
      4          6           0        3.708003   -0.244970    0.049704
      5          6           0        3.972428    0.789630   -0.846383
      6          6           0        3.166752    1.930971   -0.793704
      7          1           0        1.504991    2.913804    0.170094
      8          1           0        1.077957    1.037314    1.745487
      9          1           0        2.514504   -1.014377    1.661936
     10          1           0        4.784862    0.691680   -1.556154
     11          1           0        3.355721    2.748937   -1.483100
     12          7           0        4.554216   -1.458307    0.003461
     13          8           0        5.454946   -1.488657   -0.832243
     14          8           0        4.300724   -2.355996    0.803794
     15          6           0       -1.804941    1.823280    0.248230
     16          6           0       -2.106360    1.349132   -1.032727
     17          6           0       -3.081680    0.364003   -1.213884
     18          6           0       -3.739035   -0.126920   -0.086866
     19          6           0       -3.461146    0.325189    1.202190
     20          6           0       -2.482102    1.310699    1.359641
     21          1           0       -1.045843    2.588700    0.379750
     22          1           0       -1.582069    1.745380   -1.897684
     23          1           0       -3.334814   -0.020976   -2.194258
     24          1           0       -4.000663   -0.089084    2.045231
     25          1           0       -2.250090    1.677051    2.355634
     26          7           0       -4.773534   -1.170034   -0.266100
     27          8           0       -5.338415   -1.586267    0.743006
     28          8           0       -4.999905   -1.551641   -1.412298
 ---------------------------------------------------------------------

 SCF Done:  E(RHF) =  -868.335931225     A.U. after   16 cycles
 E2 =    -0.2601052023D+01 EUMP2 =    -0.87093698324847D+03

 The electronic state is 1-A.
 Alpha  occ. eigenvalues --  -20.61236 -20.61230 -20.61228 -20.61222 -15.86296
 Alpha  occ. eigenvalues --  -15.86285 -11.31841 -11.31825 -11.28443 -11.28405
 Alpha  occ. eigenvalues --  -11.28389 -11.28383 -11.28351 -11.28318 -11.27570
 Alpha  occ. eigenvalues --  -11.27520 -11.27504 -11.27499  -1.60307  -1.60298
 Alpha  occ. eigenvalues --   -1.39855  -1.39846  -1.20055  -1.20018  -1.09479
 Alpha  occ. eigenvalues --   -1.09387  -1.05471  -1.05439  -0.96291  -0.96174
 Alpha  occ. eigenvalues --   -0.86889  -0.86846  -0.83082  -0.83014  -0.78051
 Alpha  occ. eigenvalues --   -0.78019  -0.72513  -0.72505  -0.71631  -0.71622
 Alpha  occ. eigenvalues --   -0.71536  -0.70951  -0.65721  -0.65693  -0.65555
 Alpha  occ. eigenvalues --   -0.65392  -0.62818  -0.62763  -0.56351  -0.55797
 Alpha  occ. eigenvalues --   -0.53921  -0.53687  -0.53575  -0.53495  -0.49287
 Alpha  occ. eigenvalues --   -0.49276  -0.49253  -0.49244  -0.45220  -0.45213
 Alpha  occ. eigenvalues --   -0.38351  -0.37825  -0.37059  -0.36976
 Alpha virt. eigenvalues --    0.04387   0.04550   0.10491   0.10597   0.15801
 Alpha virt. eigenvalues --    0.15926   0.18192   0.22099   0.24885   0.25619
 Alpha virt. eigenvalues --    0.27324   0.29235   0.29773   0.31326   0.32702

 Mulliken charges:
               1
     1  C   -0.175842
     2  C   -0.213796
     3  C   -0.170330
     4  C    0.159688
     5  C   -0.170445
     6  C   -0.218298
     7  H    0.216580
     8  H    0.219903
     9  H    0.278404
    10  H    0.277748
    11  H    0.224188
    12  N    0.487904
    13  O   -0.458699
    14  O   -0.457939
    15  C   -0.170441
    16  C   -0.216738
    17  C   -0.169518
    18  C    0.159597
    19  C   -0.169483
    20  C   -0.222873
    21  H    0.216419
    22  H    0.224135
    23  H    0.278552
    24  H    0.277935
    25  H    0.221945
    26  N    0.487955
    27  O   -0.458617
    28  O   -0.457933
 Sum of Mulliken charges =  -0.00000

 Dipole moment (field-independent basis, Debye):
    X=              0.6328    Y=              7.6762    Z=              0.6926  Tot=              7.7333
 Quadrupole moment (field-independent basis, Debye-Ang):
   XX=           -152.5585   YY=           -108.8269   ZZ=            -97.4406
   XY=              3.5965   XZ=             -5.3297   YZ=             -2.2531

 Normal termination of Gaussian 16 at Thu May  6 21:22:26 2021.
