 Gaussian 16, Revision A.03,
 Gaussian 16:  EM64L-G16RevA.03 25-Dec-2016

 -------------
 #p 6-31g* mp2
 -------------

 ------------------------------------------------------
 Input file generated by CHIRIPA (05-May-2021 14:53:18)
 ------------------------------------------------------
 Symbolic Z-matrix:
 Charge =  0 Multiplicity = 1

                         Standard orientation:
 ---------------------------------------------------------------------
 Center     Atomic      Atomic             Coordinates (Angstroms)
 Number     Number       Type             X           Y           Z
 ---------------------------------------------------------------------
      1          6           0       -4.336038   -0.270320    0.089640
      2          6           0       -5.625258   -0.712228   -0.603622
      3          6           0       -6.303666   -1.886441    0.102623
      4          1           0       -3.642821   -1.121254    0.137653
      5          1           0       -4.563009    0.006933    1.128394
      6          1           0       -5.396156   -0.987248   -1.641164
      7          1           0       -6.315412    0.139909   -0.650161
      8          1           0       -6.560561   -1.619942    1.132955
      9          1           0       -5.636082   -2.753503    0.136322
     10          1           0       -7.223270   -2.186020   -0.409666
     11          6           0       -3.646250    0.902661   -0.604648
     12          6           0       -2.357029    1.344570    0.088614
     13          6           0       -1.678621    2.518782   -0.617631
     14          1           0       -3.419278    0.625408   -1.643402
     15          1           0       -4.339467    1.753596   -0.652661
     16          1           0       -1.666875    0.492433    0.135153
     17          1           0       -2.586131    1.619589    1.126155
     18          1           0       -2.346206    3.385844   -0.651330
     19          1           0       -1.421726    2.252283   -1.647963
     20          1           0       -0.759017    2.818361   -0.105342
     21          6           0        0.913853    0.112399    1.375111
     22          6           0        1.775236    1.192713    1.157262
     23          6           0        2.999042    1.005265    0.507871
     24          6           0        3.331178   -0.281755    0.087683
     25          6           0        2.494401   -1.378179    0.290040
     26          6           0        1.275546   -1.167344    0.941569
     27          1           0       -0.034907    0.267097    1.880404
     28          1           0        1.496950    2.187686    1.492869
     29          1           0        3.684816    1.823891    0.326256
     30          1           0        2.799320   -2.358341   -0.055973
     31          1           0        0.608567   -2.008187    1.109394
     32          7           0        4.624145   -0.492577   -0.600930
     33          8           0        4.893531   -1.636301   -0.961438
     34          8           0        5.343705    0.489895   -0.767119
 ---------------------------------------------------------------------

 SCF Done:  E(RHF) =  -669.534797245     A.U. after   15 cycles
 E2 =    -0.2092682263D+01 EUMP2 =    -0.67162747950768D+03

 The electronic state is 1-A.
 Alpha  occ. eigenvalues --  -20.60766 -20.60761 -15.85821 -11.31189 -11.27778
 Alpha  occ. eigenvalues --  -11.27773 -11.27463 -11.26777 -11.26766 -11.22518
 Alpha  occ. eigenvalues --  -11.22184 -11.22132 -11.22075 -11.21870 -11.21588
 Alpha  occ. eigenvalues --   -1.59842  -1.39395  -1.19375  -1.09175  -1.08760
 Alpha  occ. eigenvalues --   -1.04780  -1.04251  -0.96678  -0.95594  -0.87692
 Alpha  occ. eigenvalues --   -0.86173  -0.82440  -0.80348  -0.78998  -0.77476
 Alpha  occ. eigenvalues --   -0.72039  -0.71166  -0.70484  -0.65792  -0.65024
 Alpha  occ. eigenvalues --   -0.64795  -0.62136  -0.61641  -0.60075  -0.58317
 Alpha  occ. eigenvalues --   -0.55949  -0.55270  -0.53432  -0.53151  -0.53011
 Alpha  occ. eigenvalues --   -0.52833  -0.50600  -0.48821  -0.48793  -0.48607
 Alpha  occ. eigenvalues --   -0.47362  -0.46515  -0.46437  -0.44801  -0.44504
 Alpha  occ. eigenvalues --   -0.37287  -0.36380
 Alpha virt. eigenvalues --    0.05040   0.11135   0.16465   0.20258   0.22415
 Alpha virt. eigenvalues --    0.23896   0.25548   0.25979   0.26404   0.28044
 Alpha virt. eigenvalues --    0.28940   0.29865   0.30695   0.31653   0.32142

 Mulliken charges:
               1
     1  C   -0.298379
     2  C   -0.300177
     3  C   -0.476043
     4  H    0.146121
     5  H    0.148710
     6  H    0.153718
     7  H    0.153583
     8  H    0.155270
     9  H    0.154654
    10  H    0.162530
    11  C   -0.297812
    12  C   -0.306929
    13  C   -0.474525
    14  H    0.152946
    15  H    0.152073
    16  H    0.151225
    17  H    0.146746
    18  H    0.157704
    19  H    0.160948
    20  H    0.154188
    21  C   -0.168395
    22  C   -0.220381
    23  C   -0.171099
    24  C    0.158198
    25  C   -0.170253
    26  C   -0.221374
    27  H    0.231200
    28  H    0.223479
    29  H    0.275789
    30  H    0.275618
    31  H    0.223469
    32  N    0.488123
    33  O   -0.460539
    34  O   -0.460388
 Sum of Mulliken charges =  -0.00000

 Dipole moment (field-independent basis, Debye):
    X=             -4.6677    Y=              0.7483    Z=              2.3432  Tot=              5.2762
 Quadrupole moment (field-independent basis, Debye-Ang):
   XX=           -125.1752   YY=            -90.7326   ZZ=            -94.8596
   XY=              4.0950   XZ=              8.0519   YZ=              0.4889

 Normal termination of Gaussian 16 at Thu May  6 01:14:47 2021.
