 Gaussian 16, Revision A.03,
 Gaussian 16:  EM64L-G16RevA.03 25-Dec-2016

 -------------
 #p 6-31g* mp2
 -------------

 ------------------------------------------------------
 Input file generated by CHIRIPA (05-May-2021 14:55:24)
 ------------------------------------------------------
 Symbolic Z-matrix:
 Charge =  0 Multiplicity = 1

                         Standard orientation:
 ---------------------------------------------------------------------
 Center     Atomic      Atomic             Coordinates (Angstroms)
 Number     Number       Type             X           Y           Z
 ---------------------------------------------------------------------
      1          6           0       -3.402049    2.255460   -0.435462
      2          6           0       -3.869985    1.073272   -1.018549
      3          6           0       -3.295257   -0.157486   -0.687689
      4          6           0       -2.249620   -0.169372    0.234153
      5          6           0       -1.761247    0.991284    0.832198
      6          6           0       -2.351027    2.210772    0.486425
      7          1           0       -3.854358    3.207165   -0.698275
      8          1           0       -4.686082    1.104959   -1.734808
      9          1           0       -3.637967   -1.087861   -1.124005
     10          1           0       -0.946237    0.927889    1.542943
     11          1           0       -1.985572    3.127285    0.940839
     12          7           0       -1.633214   -1.466355    0.592314
     13          8           0       -0.713260   -1.449972    1.407208
     14          8           0       -2.081702   -2.474755    0.051365
     15          6           0        3.333062    0.501133    0.185070
     16          6           0        3.374256    1.843501   -0.545911
     17          6           0        4.024340    2.949724    0.285629
     18          1           0        2.785163    0.621859    1.129622
     19          1           0        4.356969    0.205959    0.453178
     20          1           0        2.350700    2.135385   -0.813780
     21          1           0        3.921955    1.719520   -1.488922
     22          1           0        5.055226    2.684189    0.541296
     23          1           0        3.475046    3.102418    1.220274
     24          1           0        4.043290    3.900599   -0.255975
     25          6           0        2.686039   -0.614761   -0.633387
     26          6           0        2.644844   -1.957130    0.097593
     27          6           0        1.994761   -3.063352   -0.733947
     28          1           0        1.662132   -0.319587   -0.901495
     29          1           0        3.233938   -0.735488   -1.577940
     30          1           0        2.097146   -1.833148    1.040605
     31          1           0        3.668400   -2.249014    0.365463
     32          1           0        2.544056   -3.216046   -1.668590
     33          1           0        0.963874   -2.797818   -0.989613
     34          1           0        1.975810   -4.014228   -0.192342
 ---------------------------------------------------------------------

 SCF Done:  E(RHF) =  -669.536409848     A.U. after   15 cycles
 E2 =    -0.2092528910D+01 EUMP2 =    -0.67162893875810D+03

 The electronic state is 1-A.
 Alpha  occ. eigenvalues --  -20.61054 -20.61049 -15.86068 -11.31363 -11.27922
 Alpha  occ. eigenvalues --  -11.27911 -11.27644 -11.26914 -11.26904 -11.21403
 Alpha  occ. eigenvalues --  -11.21009 -11.20923 -11.20644 -11.20299 -11.19717
 Alpha  occ. eigenvalues --   -1.60102  -1.39659  -1.19523  -1.08933  -1.07802
 Alpha  occ. eigenvalues --   -1.04913  -1.02806  -0.95780  -0.95286  -0.86315
 Alpha  occ. eigenvalues --   -0.86313  -0.82615  -0.78953  -0.77682  -0.77513
 Alpha  occ. eigenvalues --   -0.72291  -0.71431  -0.70629  -0.65182  -0.64913
 Alpha  occ. eigenvalues --   -0.64426  -0.62259  -0.60176  -0.58748  -0.56866
 Alpha  occ. eigenvalues --   -0.55417  -0.54586  -0.53239  -0.53002  -0.51986
 Alpha  occ. eigenvalues --   -0.51714  -0.49315  -0.49047  -0.48984  -0.47240
 Alpha  occ. eigenvalues --   -0.46034  -0.45223  -0.45042  -0.44732  -0.43082
 Alpha  occ. eigenvalues --   -0.37496  -0.36510
 Alpha virt. eigenvalues --    0.04809   0.11118   0.16281   0.21035   0.23139
 Alpha virt. eigenvalues --    0.25020   0.26538   0.27404   0.27811   0.28481
 Alpha virt. eigenvalues --    0.28872   0.30964   0.32048   0.32244   0.32619

 Mulliken charges:
               1
     1  C   -0.170368
     2  C   -0.218486
     3  C   -0.170584
     4  C    0.158214
     5  C   -0.171171
     6  C   -0.218521
     7  H    0.226397
     8  H    0.224182
     9  H    0.276151
    10  H    0.275713
    11  H    0.224319
    12  N    0.489287
    13  O   -0.460704
    14  O   -0.458301
    15  C   -0.297895
    16  C   -0.298781
    17  C   -0.474811
    18  H    0.148524
    19  H    0.149453
    20  H    0.146987
    21  H    0.152177
    22  H    0.156560
    23  H    0.151754
    24  H    0.157763
    25  C   -0.295510
    26  C   -0.305156
    27  C   -0.473043
    28  H    0.143356
    29  H    0.146001
    30  H    0.173246
    31  H    0.144338
    32  H    0.145463
    33  H    0.161420
    34  H    0.162022
 Sum of Mulliken charges =  -0.00000

 Dipole moment (field-independent basis, Debye):
    X=             -2.4390    Y=              4.4639    Z=             -1.1427  Tot=              5.2135
 Quadrupole moment (field-independent basis, Debye-Ang):
   XX=            -83.2336   YY=            -96.5223   ZZ=            -94.1448
   XY=             -9.1090   XZ=              4.4640   YZ=              2.3545

 Normal termination of Gaussian 16 at Thu May  6 11:02:07 2021.
