 Gaussian 16, Revision A.03,
 Gaussian 16:  EM64L-G16RevA.03 25-Dec-2016

 -------------
 #p 6-31g* mp2
 -------------

 ------------------------------------------------------
 Input file generated by CHIRIPA (05-May-2021 14:53:11)
 ------------------------------------------------------
 Symbolic Z-matrix:
 Charge =  0 Multiplicity = 1

                         Standard orientation:
 ---------------------------------------------------------------------
 Center     Atomic      Atomic             Coordinates (Angstroms)
 Number     Number       Type             X           Y           Z
 ---------------------------------------------------------------------
      1          6           0        2.799154   -0.340539    0.198550
      2          6           0        3.946139   -1.231086    0.677441
      3          6           0        3.550464   -2.704972    0.771758
      4          1           0        1.947651   -0.449929    0.884058
      5          1           0        2.456470   -0.692766   -0.784251
      6          1           0        4.287476   -0.876434    1.658424
      7          1           0        4.795079   -1.119416   -0.009179
      8          1           0        3.229692   -3.081008   -0.205126
      9          1           0        2.719205   -2.836645    1.471952
     10          1           0        4.385203   -3.323509    1.115971
     11          6           0        3.179259    1.135729    0.099147
     12          6           0        2.032274    2.026277   -0.379744
     13          6           0        2.427949    3.500162   -0.474061
     14          1           0        3.521943    1.487957    1.081948
     15          1           0        4.030762    1.245120   -0.586361
     16          1           0        1.183334    1.914607    0.306876
     17          1           0        1.690936    1.671624   -1.360727
     18          1           0        3.259208    3.631836   -1.174255
     19          1           0        2.748721    3.876199    0.502823
     20          1           0        1.593210    4.118700   -0.818274
     21          6           0       -3.653391    1.644275    0.782037
     22          6           0       -4.166897    0.347268    0.885027
     23          6           0       -3.445285   -0.743388    0.390769
     24          6           0       -2.207891   -0.499614   -0.203134
     25          6           0       -1.669478    0.780852   -0.320653
     26          6           0       -2.408515    1.856553    0.180586
     27          1           0       -4.220724    2.485714    1.168700
     28          1           0       -5.133415    0.179426    1.351629
     29          1           0       -3.819181   -1.757876    0.457349
     30          1           0       -0.703171    0.916709   -0.790985
     31          1           0       -2.007241    2.862735    0.099224
     32          7           0       -1.434729   -1.646326   -0.730079
     33          8           0       -0.346976   -1.405003   -1.248917
     34          8           0       -1.931118   -2.764730   -0.614280
 ---------------------------------------------------------------------

 SCF Done:  E(RHF) =  -669.535310150     A.U. after   15 cycles
 E2 =    -0.2093337635D+01 EUMP2 =    -0.67162864778559D+03

 The electronic state is 1-A.
 Alpha  occ. eigenvalues --  -20.60815 -20.60797 -15.85842 -11.31152 -11.27747
 Alpha  occ. eigenvalues --  -11.27641 -11.27486 -11.26753 -11.26727 -11.21849
 Alpha  occ. eigenvalues --  -11.21376 -11.21168 -11.20939 -11.20594 -11.20220
 Alpha  occ. eigenvalues --   -1.59872  -1.39427  -1.19336  -1.08745  -1.08105
 Alpha  occ. eigenvalues --   -1.04733  -1.03253  -0.95658  -0.95584  -0.86686
 Alpha  occ. eigenvalues --   -0.86131  -0.82423  -0.79461  -0.77911  -0.77329
 Alpha  occ. eigenvalues --   -0.72067  -0.71186  -0.70449  -0.65004  -0.64761
 Alpha  occ. eigenvalues --   -0.64706  -0.62106  -0.60647  -0.59115  -0.57253
 Alpha  occ. eigenvalues --   -0.55246  -0.54921  -0.53075  -0.52873  -0.52413
 Alpha  occ. eigenvalues --   -0.52034  -0.49597  -0.48831  -0.48824  -0.47662
 Alpha  occ. eigenvalues --   -0.46466  -0.45494  -0.45177  -0.44628  -0.43452
 Alpha  occ. eigenvalues --   -0.37326  -0.36321
 Alpha virt. eigenvalues --    0.05020   0.11279   0.16471   0.20793   0.23270
 Alpha virt. eigenvalues --    0.24412   0.26083   0.26639   0.27521   0.28379
 Alpha virt. eigenvalues --    0.29634   0.30869   0.31567   0.32016   0.32188

 Mulliken charges:
               1
     1  C   -0.301187
     2  C   -0.300377
     3  C   -0.474851
     4  H    0.146389
     5  H    0.170626
     6  H    0.147040
     7  H    0.149466
     8  H    0.164046
     9  H    0.155274
    10  H    0.155865
    11  C   -0.297212
    12  C   -0.309606
    13  C   -0.473830
    14  H    0.147318
    15  H    0.150062
    16  H    0.145779
    17  H    0.156130
    18  H    0.158964
    19  H    0.156248
    20  H    0.153002
    21  C   -0.170279
    22  C   -0.219159
    23  C   -0.170208
    24  C    0.155575
    25  C   -0.176285
    26  C   -0.223467
    27  H    0.225501
    28  H    0.223289
    29  H    0.275389
    30  H    0.289076
    31  H    0.224142
    32  N    0.489823
    33  O   -0.462361
    34  O   -0.460183
 Sum of Mulliken charges =  -0.00000

 Dipole moment (field-independent basis, Debye):
    X=             -2.7093    Y=              3.8747    Z=              1.7317  Tot=              5.0351
 Quadrupole moment (field-independent basis, Debye-Ang):
   XX=            -80.5276   YY=            -98.6795   ZZ=            -95.0233
   XY=             -5.3913   XZ=             -5.5997   YZ=             -2.3568

 Normal termination of Gaussian 16 at Thu May  6 04:04:12 2021.
