 Gaussian 16, Revision A.03,
 Gaussian 16:  EM64L-G16RevA.03 25-Dec-2016

 -------------
 #p 6-31g* mp2
 -------------

 ------------------------------------------------------
 Input file generated by CHIRIPA (05-May-2021 14:51:14)
 ------------------------------------------------------
 Symbolic Z-matrix:
 Charge =  0 Multiplicity = 1

                         Standard orientation:
 ---------------------------------------------------------------------
 Center     Atomic      Atomic             Coordinates (Angstroms)
 Number     Number       Type             X           Y           Z
 ---------------------------------------------------------------------
      1          6           0        2.768835    0.453274   -0.112818
      2          6           0        4.049001    0.388088   -0.946431
      3          6           0        4.204517    1.584656   -1.885491
      4          1           0        1.902622    0.507605   -0.786367
      5          1           0        2.768014    1.382874    0.473046
      6          1           0        4.048055   -0.541774   -1.529502
      7          1           0        4.912257    0.333713   -0.270821
      8          1           0        4.231222    2.519773   -1.316769
      9          1           0        3.362110    1.639311   -2.582602
     10          1           0        5.126266    1.517721   -2.471801
     11          6           0        2.599195   -0.736010    0.830873
     12          6           0        1.319029   -0.670824    1.664486
     13          6           0        1.163513   -1.867392    2.603545
     14          1           0        2.600016   -1.665611    0.245008
     15          1           0        3.465408   -0.790341    1.504421
     16          1           0        0.455773   -0.616449    0.988875
     17          1           0        1.319975    0.259038    2.247556
     18          1           0        2.005920   -1.922048    3.300656
     19          1           0        1.136808   -2.802509    2.034824
     20          1           0        0.241764   -1.800457    3.189855
     21          6           0       -2.338471   -0.538573   -0.400403
     22          6           0       -2.942157   -1.462120   -1.458991
     23          6           0       -2.240185   -2.818594   -1.529748
     24          1           0       -1.271839   -0.390160   -0.617689
     25          1           0       -2.392057   -1.031784    0.580039
     26          1           0       -2.888705   -0.966741   -2.436927
     27          1           0       -4.007520   -1.608198   -1.239268
     28          1           0       -2.305259   -3.336692   -0.567490
     29          1           0       -1.180087   -2.691591   -1.771953
     30          1           0       -2.687726   -3.462908   -2.292916
     31          6           0       -3.029558    0.821309   -0.317651
     32          6           0       -2.425872    1.744857    0.740938
     33          6           0       -3.127845    3.101331    0.811693
     34          1           0       -2.975973    1.314521   -1.298094
     35          1           0       -4.096190    0.672897   -0.100365
     36          1           0       -1.360509    1.890934    0.521214
     37          1           0       -2.479324    1.249478    1.718873
     38          1           0       -4.187943    2.974327    1.053899
     39          1           0       -3.062771    3.619428   -0.150565
     40          1           0       -2.680305    3.745645    1.574863
 ---------------------------------------------------------------------

 SCF Done:  E(RHF) =  -470.733156696     A.U. after   11 cycles
 E2 =    -0.1583594374D+01 EUMP2 =    -0.47231675107016D+03

 The electronic state is 1-A.
 Alpha  occ. eigenvalues --  -11.21654 -11.21615 -11.21594 -11.21463 -11.21451
 Alpha  occ. eigenvalues --  -11.21408 -11.21386 -11.21324 -11.21128 -11.21089
 Alpha  occ. eigenvalues --  -11.21071 -11.21011  -1.08484  -1.08399  -1.03559
 Alpha  occ. eigenvalues --   -1.03496  -0.96016  -0.95955  -0.87031  -0.86971
 Alpha  occ. eigenvalues --   -0.79627  -0.79572  -0.78423  -0.78089  -0.65170
 Alpha  occ. eigenvalues --   -0.64981  -0.60963  -0.60895  -0.59379  -0.59327
 Alpha  occ. eigenvalues --   -0.57651  -0.57539  -0.55305  -0.55247  -0.52710
 Alpha  occ. eigenvalues --   -0.52643  -0.52449  -0.52377  -0.49972  -0.49890
 Alpha  occ. eigenvalues --   -0.47971  -0.47903  -0.46769  -0.46625  -0.46175
 Alpha  occ. eigenvalues --   -0.45761  -0.45714  -0.45121  -0.43818  -0.43753
 Alpha virt. eigenvalues --    0.20758   0.23408   0.23895   0.24375   0.24655
 Alpha virt. eigenvalues --    0.26432   0.26907   0.27908   0.28410   0.30099
 Alpha virt. eigenvalues --    0.31155   0.31412   0.31550   0.31873   0.32068

 Mulliken charges:
               1
     1  C   -0.298971
     2  C   -0.299580
     3  C   -0.475686
     4  H    0.148354
     5  H    0.149687
     6  H    0.151932
     7  H    0.152279
     8  H    0.155231
     9  H    0.154836
    10  H    0.160365
    11  C   -0.297847
    12  C   -0.309391
    13  C   -0.475183
    14  H    0.149062
    15  H    0.149470
    16  H    0.163440
    17  H    0.151347
    18  H    0.154714
    19  H    0.155057
    20  H    0.159469
    21  C   -0.303729
    22  C   -0.298917
    23  C   -0.475948
    24  H    0.153491
    25  H    0.150615
    26  H    0.151885
    27  H    0.152290
    28  H    0.155645
    29  H    0.154339
    30  H    0.160662
    31  C   -0.297925
    32  C   -0.300904
    33  C   -0.475731
    34  H    0.149350
    35  H    0.149747
    36  H    0.153930
    37  H    0.152055
    38  H    0.155071
    39  H    0.155147
    40  H    0.160344
 Sum of Mulliken charges =  -0.00000

 Dipole moment (field-independent basis, Debye):
    X=             -0.0395    Y=              0.0034    Z=             -0.0086  Tot=              0.0405
 Quadrupole moment (field-independent basis, Debye-Ang):
   XX=            -84.3171   YY=            -86.0900   ZZ=            -84.3934
   XY=              0.7613   XZ=              0.1441   YZ=              0.5599

 Normal termination of Gaussian 16 at Thu May  6 04:00:40 2021.
