 Gaussian 16, Revision A.03,
 Gaussian 16:  EM64L-G16RevA.03 25-Dec-2016

 -------------
 #p 6-31g* mp2
 -------------

 ------------------------------------------------------
 Input file generated by CHIRIPA (05-May-2021 14:55:22)
 ------------------------------------------------------
 Symbolic Z-matrix:
 Charge =  0 Multiplicity = 1

                         Standard orientation:
 ---------------------------------------------------------------------
 Center     Atomic      Atomic             Coordinates (Angstroms)
 Number     Number       Type             X           Y           Z
 ---------------------------------------------------------------------
      1          6           0        0.494225   -1.311833    0.838654
      2          6           0        0.659225   -0.957333   -0.504337
      3          6           0        1.859598   -0.394247   -0.947717
      4          6           0        2.878666   -0.198771   -0.016814
      5          6           0        2.744722   -0.541524    1.327757
      6          6           0        1.535664   -1.103165    1.748810
      7          1           0       -0.441627   -1.748691    1.174411
      8          1           0       -0.147855   -1.118238   -1.213405
      9          1           0        2.014204   -0.110588   -1.981668
     10          1           0        3.567331   -0.369016    2.011110
     11          1           0        1.410339   -1.377509    2.792397
     12          7           0        4.154044    0.396578   -0.474382
     13          8           0        5.036585    0.558568    0.365568
     14          8           0        4.246995    0.689950   -1.664311
     15          6           0       -3.371816    1.094285   -0.342102
     16          6           0       -2.958531    2.114306    0.719377
     17          6           0       -2.875265    3.538665    0.169775
     18          1           0       -2.653166    1.127019   -1.172412
     19          1           0       -4.345718    1.384552   -0.760021
     20          1           0       -1.986343    1.821441    1.136148
     21          1           0       -3.678141    2.079004    1.547344
     22          1           0       -3.844627    3.855098   -0.228733
     23          1           0       -2.143217    3.596071   -0.642266
     24          1           0       -2.578239    4.251510    0.945331
     25          6           0       -3.459462   -0.334241    0.192089
     26          6           0       -3.872747   -1.354263   -0.869390
     27          6           0       -3.956012   -2.778621   -0.319789
     28          1           0       -2.485559   -0.624508    0.610007
     29          1           0       -4.178112   -0.366975    1.022400
     30          1           0       -3.153136   -1.318960   -1.697358
     31          1           0       -4.844934   -1.061398   -1.286162
     32          1           0       -4.688061   -2.836027    0.492252
     33          1           0       -2.986651   -3.095054    0.078720
     34          1           0       -4.253038   -3.491466   -1.095345
 ---------------------------------------------------------------------

 SCF Done:  E(RHF) =  -669.535334559     A.U. after   15 cycles
 E2 =    -0.2092535159D+01 EUMP2 =    -0.67162786971849D+03

 The electronic state is 1-A.
 Alpha  occ. eigenvalues --  -20.60795 -20.60790 -15.85849 -11.31234 -11.27801
 Alpha  occ. eigenvalues --  -11.27796 -11.27532 -11.26826 -11.26810 -11.22658
 Alpha  occ. eigenvalues --  -11.22413 -11.22197 -11.22141 -11.22134 -11.21492
 Alpha  occ. eigenvalues --   -1.59871  -1.39423  -1.19407  -1.09315  -1.08796
 Alpha  occ. eigenvalues --   -1.04810  -1.04334  -0.96783  -0.95633  -0.87795
 Alpha  occ. eigenvalues --   -0.86207  -0.82466  -0.80416  -0.79106  -0.77505
 Alpha  occ. eigenvalues --   -0.72067  -0.71194  -0.70546  -0.66017  -0.65051
 Alpha  occ. eigenvalues --   -0.64759  -0.62161  -0.61715  -0.60164  -0.58385
 Alpha  occ. eigenvalues --   -0.56104  -0.55328  -0.53447  -0.53215  -0.53113
 Alpha  occ. eigenvalues --   -0.52898  -0.50736  -0.48829  -0.48822  -0.48715
 Alpha  occ. eigenvalues --   -0.47468  -0.46626  -0.46543  -0.44825  -0.44597
 Alpha  occ. eigenvalues --   -0.37368  -0.36411
 Alpha virt. eigenvalues --    0.04996   0.11166   0.16406   0.18056   0.22667
 Alpha virt. eigenvalues --    0.23791   0.24453   0.25348   0.27207   0.28310
 Alpha virt. eigenvalues --    0.29250   0.30059   0.30973   0.31519   0.31770

 Mulliken charges:
               1
     1  C   -0.174313
     2  C   -0.220896
     3  C   -0.171407
     4  C    0.158742
     5  C   -0.170807
     6  C   -0.219229
     7  H    0.229665
     8  H    0.226222
     9  H    0.275852
    10  H    0.275812
    11  H    0.224089
    12  N    0.488054
    13  O   -0.460214
    14  O   -0.460294
    15  C   -0.297487
    16  C   -0.301251
    17  C   -0.476228
    18  H    0.147939
    19  H    0.152750
    20  H    0.153395
    21  H    0.152310
    22  H    0.155920
    23  H    0.157020
    24  H    0.162689
    25  C   -0.303547
    26  C   -0.301680
    27  C   -0.475771
    28  H    0.142562
    29  H    0.153430
    30  H    0.147640
    31  H    0.157955
    32  H    0.159110
    33  H    0.146869
    34  H    0.165098
 Sum of Mulliken charges =  -0.00000

 Dipole moment (field-independent basis, Debye):
    X=             -4.6329    Y=             -2.0150    Z=              1.6140  Tot=              5.3037
 Quadrupole moment (field-independent basis, Debye-Ang):
   XX=           -118.7941   YY=            -95.5952   ZZ=            -90.5303
   XY=             -5.5822   XZ=              6.5829   YZ=             -0.2948

 Normal termination of Gaussian 16 at Thu May  6 04:37:30 2021.
