 Gaussian 16, Revision A.03,
 Gaussian 16:  EM64L-G16RevA.03 25-Dec-2016

 -------------
 #p 6-31g* mp2
 -------------

 ------------------------------------------------------
 Input file generated by CHIRIPA (05-May-2021 14:51:12)
 ------------------------------------------------------
 Symbolic Z-matrix:
 Charge =  0 Multiplicity = 1

                         Standard orientation:
 ---------------------------------------------------------------------
 Center     Atomic      Atomic             Coordinates (Angstroms)
 Number     Number       Type             X           Y           Z
 ---------------------------------------------------------------------
      1          6           0        3.252197   -0.668026   -0.055418
      2          6           0        1.999340   -1.536123   -0.176840
      3          6           0        2.317992   -3.030829   -0.222750
      4          1           0        3.918574   -0.876441   -0.903622
      5          1           0        3.801942   -0.954712    0.851768
      6          1           0        1.451398   -1.246941   -1.082792
      7          1           0        1.335781   -1.325477    0.671650
      8          1           0        2.844346   -3.340597    0.685873
      9          1           0        2.960619   -3.261614   -1.078537
     10          1           0        1.408089   -3.632811   -0.309660
     11          6           0        2.949934    0.828687   -0.008337
     12          6           0        4.202790    1.696784    0.113084
     13          6           0        3.884138    3.191490    0.158995
     14          1           0        2.400188    1.115373   -0.915523
     15          1           0        2.283557    1.037102    0.839866
     16          1           0        4.866349    1.486138   -0.735405
     17          1           0        4.750733    1.407602    1.019036
     18          1           0        3.241511    3.422275    1.014781
     19          1           0        3.357785    3.501258   -0.749629
     20          1           0        4.794042    3.793472    0.245904
     21          6           0       -3.063121    0.671332   -0.098490
     22          6           0       -4.408832    1.381543    0.052006
     23          6           0       -4.316705    2.884755   -0.211928
     24          1           0       -2.338209    1.122664    0.592701
     25          1           0       -2.676962    0.843481   -1.112709
     26          1           0       -4.792995    1.206954    1.065196
     27          1           0       -5.130677    0.928341   -0.639488
     28          1           0       -3.957158    3.076132   -1.228147
     29          1           0       -3.617557    3.356328    0.486222
     30          1           0       -5.289891    3.372596   -0.098880
     31          6           0       -3.139009   -0.831993    0.162245
     32          6           0       -1.793298   -1.542204    0.011749
     33          6           0       -1.885426   -3.045415    0.275683
     34          1           0       -3.525169   -1.004143    1.176464
     35          1           0       -3.863922   -1.283325   -0.528946
     36          1           0       -1.071453   -1.089002    0.703243
     37          1           0       -1.409136   -1.367614   -1.001441
     38          1           0       -2.584574   -3.516989   -0.422467
     39          1           0       -2.244973   -3.236793    1.291903
     40          1           0       -0.912240   -3.533257    0.162636
 ---------------------------------------------------------------------

 SCF Done:  E(RHF) =  -470.732250774     A.U. after   11 cycles
 E2 =    -0.1583942100D+01 EUMP2 =    -0.47231619287433D+03

 The electronic state is 1-A.
 Alpha  occ. eigenvalues --  -11.21595 -11.21584 -11.21537 -11.21520 -11.21389
 Alpha  occ. eigenvalues --  -11.21372 -11.21327 -11.21309 -11.21067 -11.21063
 Alpha  occ. eigenvalues --  -11.21057 -11.21036  -1.08440  -1.08375  -1.03583
 Alpha  occ. eigenvalues --   -1.03439  -0.96028  -0.95903  -0.87043  -0.86922
 Alpha  occ. eigenvalues --   -0.79767  -0.79413  -0.78350  -0.78061  -0.65115
 Alpha  occ. eigenvalues --   -0.64972  -0.61036  -0.60789  -0.59796  -0.59036
 Alpha  occ. eigenvalues --   -0.57860  -0.57181  -0.55284  -0.55217  -0.52926
 Alpha  occ. eigenvalues --   -0.52521  -0.52484  -0.52143  -0.49959  -0.49858
 Alpha  occ. eigenvalues --   -0.48292  -0.47568  -0.46854  -0.46419  -0.45996
 Alpha  occ. eigenvalues --   -0.45796  -0.45556  -0.45368  -0.43902  -0.43594
 Alpha virt. eigenvalues --    0.21166   0.23212   0.23233   0.25110   0.25408
 Alpha virt. eigenvalues --    0.26202   0.26673   0.27320   0.28742   0.29157
 Alpha virt. eigenvalues --    0.29998   0.30272   0.31094   0.31957   0.32480

 Mulliken charges:
               1
     1  C   -0.298220
     2  C   -0.301935
     3  C   -0.481059
     4  H    0.149368
     5  H    0.149139
     6  H    0.153320
     7  H    0.155690
     8  H    0.155148
     9  H    0.155288
    10  H    0.163928
    11  C   -0.297978
    12  C   -0.299611
    13  C   -0.475658
    14  H    0.149702
    15  H    0.148959
    16  H    0.151958
    17  H    0.151843
    18  H    0.155041
    19  H    0.155264
    20  H    0.160219
    21  C   -0.297995
    22  C   -0.299595
    23  C   -0.475655
    24  H    0.149525
    25  H    0.149310
    26  H    0.151822
    27  H    0.151884
    28  H    0.155119
    29  H    0.155178
    30  H    0.160169
    31  C   -0.298334
    32  C   -0.300339
    33  C   -0.482618
    34  H    0.149079
    35  H    0.149228
    36  H    0.154843
    37  H    0.152347
    38  H    0.155104
    39  H    0.154951
    40  H    0.165574
 Sum of Mulliken charges =  -0.00000

 Dipole moment (field-independent basis, Debye):
    X=              0.0115    Y=              0.0038    Z=             -0.0043  Tot=              0.0129
 Quadrupole moment (field-independent basis, Debye-Ang):
   XX=            -84.9765   YY=            -87.2853   ZZ=            -82.7457
   XY=              0.2043   XZ=              0.1171   YZ=              0.2448

 Normal termination of Gaussian 16 at Wed May  5 15:19:00 2021.
