 Gaussian 16, Revision A.03,
 Gaussian 16:  EM64L-G16RevA.03 25-Dec-2016

 -------------
 #p 6-31g* mp2
 -------------

 ------------------------------------------------------
 Input file generated by CHIRIPA (05-May-2021 14:51:12)
 ------------------------------------------------------
 Symbolic Z-matrix:
 Charge =  0 Multiplicity = 1

                         Standard orientation:
 ---------------------------------------------------------------------
 Center     Atomic      Atomic             Coordinates (Angstroms)
 Number     Number       Type             X           Y           Z
 ---------------------------------------------------------------------
      1          6           0        3.287868    0.483893   -0.086074
      2          6           0        2.101136    0.514629    0.877621
      3          6           0        1.013027    1.497498    0.444284
      4          1           0        3.714014    1.493388   -0.165214
      5          1           0        2.929397    0.216373   -1.089731
      6          1           0        2.461940    0.780658    1.879451
      7          1           0        1.677885   -0.495096    0.954623
      8          1           0        0.625294    1.231618   -0.544438
      9          1           0        1.413805    2.514621    0.385644
     10          1           0        0.174226    1.503371    1.147305
     11          6           0        4.383926   -0.493979    0.333630
     12          6           0        5.570658   -0.524716   -0.630065
     13          6           0        6.658767   -1.507585   -0.196728
     14          1           0        4.742396   -0.226460    1.337287
     15          1           0        3.957780   -1.503475    0.412770
     16          1           0        5.993909    0.485010   -0.707068
     17          1           0        5.209853   -0.790745   -1.631896
     18          1           0        6.257989   -2.524708   -0.138089
     19          1           0        7.046499   -1.241705    0.791994
     20          1           0        7.497567   -1.513458   -0.899750
     21          6           0       -3.922976   -0.715056   -0.363164
     22          6           0       -4.982677   -1.490517    0.420211
     23          6           0       -5.145329   -2.929490   -0.070397
     24          1           0       -4.192223   -0.712597   -1.428267
     25          1           0       -2.961353   -1.240962   -0.285065
     26          1           0       -5.941707   -0.962567    0.341805
     27          1           0       -4.710977   -1.490967    1.483599
     28          1           0       -4.202205   -3.477473    0.023591
     29          1           0       -5.439928   -2.946070   -1.124691
     30          1           0       -5.907775   -3.465511    0.503377
     31          6           0       -3.748818    0.725143    0.115608
     32          6           0       -2.689115    1.500604   -0.667766
     33          6           0       -2.526465    2.939577   -0.177159
     34          1           0       -4.710440    1.251049    0.037510
     35          1           0       -3.479570    0.722684    1.180711
     36          1           0       -2.960818    1.501054   -1.731155
     37          1           0       -1.730087    0.972654   -0.589360
     38          1           0       -2.231865    2.956156    0.877136
     39          1           0       -3.469589    3.487559   -0.271147
     40          1           0       -1.764018    3.475597   -0.750933
 ---------------------------------------------------------------------

 SCF Done:  E(RHF) =  -470.732509758     A.U. after   11 cycles
 E2 =    -0.1583199474D+01 EUMP2 =    -0.47231570923162D+03

 The electronic state is 1-A.
 Alpha  occ. eigenvalues --  -11.21635 -11.21619 -11.21576 -11.21432 -11.21429
 Alpha  occ. eigenvalues --  -11.21372 -11.21355 -11.21287 -11.21087 -11.21086
 Alpha  occ. eigenvalues --  -11.21057 -11.20961  -1.08462  -1.08366  -1.03586
 Alpha  occ. eigenvalues --   -1.03438  -0.96052  -0.95880  -0.87039  -0.86928
 Alpha  occ. eigenvalues --   -0.79662  -0.79500  -0.78280  -0.78175  -0.65129
 Alpha  occ. eigenvalues --   -0.64983  -0.61103  -0.60795  -0.59370  -0.59260
 Alpha  occ. eigenvalues --   -0.57645  -0.57509  -0.55362  -0.55169  -0.52690
 Alpha  occ. eigenvalues --   -0.52590  -0.52434  -0.52323  -0.50075  -0.49783
 Alpha  occ. eigenvalues --   -0.47947  -0.47838  -0.46815  -0.46403  -0.45836
 Alpha  occ. eigenvalues --   -0.45769  -0.45711  -0.45513  -0.43793  -0.43711
 Alpha virt. eigenvalues --    0.21549   0.23029   0.23643   0.24895   0.26287
 Alpha virt. eigenvalues --    0.26653   0.26881   0.27580   0.27717   0.29150
 Alpha virt. eigenvalues --    0.29840   0.31047   0.31633   0.32051   0.32403

 Mulliken charges:
               1
     1  C   -0.298720
     2  C   -0.300567
     3  C   -0.478640
     4  H    0.149810
     5  H    0.149750
     6  H    0.152038
     7  H    0.151495
     8  H    0.158066
     9  H    0.155739
    10  H    0.162399
    11  C   -0.298259
    12  C   -0.299670
    13  C   -0.475721
    14  H    0.149587
    15  H    0.149609
    16  H    0.151994
    17  H    0.151975
    18  H    0.155190
    19  H    0.155204
    20  H    0.160329
    21  C   -0.298115
    22  C   -0.299563
    23  C   -0.475657
    24  H    0.149515
    25  H    0.148980
    26  H    0.151948
    27  H    0.151809
    28  H    0.154967
    29  H    0.155117
    30  H    0.160172
    31  C   -0.297722
    32  C   -0.306744
    33  C   -0.474719
    34  H    0.149177
    35  H    0.148647
    36  H    0.150657
    37  H    0.160134
    38  H    0.154596
    39  H    0.154238
    40  H    0.160950
 Sum of Mulliken charges =  -0.00000

 Dipole moment (field-independent basis, Debye):
    X=              0.0539    Y=              0.0141    Z=             -0.0020  Tot=              0.0557
 Quadrupole moment (field-independent basis, Debye-Ang):
   XX=            -85.0981   YY=            -85.7349   ZZ=            -84.1693
   XY=              0.5130   XZ=              0.4982   YZ=              0.0738

 Normal termination of Gaussian 16 at Wed May  5 19:53:27 2021.
