 Gaussian 16, Revision A.03,
 Gaussian 16:  EM64L-G16RevA.03 25-Dec-2016

 -------------
 #p 6-31g* mp2
 -------------

 ------------------------------------------------------
 Input file generated by CHIRIPA (05-May-2021 14:55:20)
 ------------------------------------------------------
 Symbolic Z-matrix:
 Charge =  0 Multiplicity = 1

                         Standard orientation:
 ---------------------------------------------------------------------
 Center     Atomic      Atomic             Coordinates (Angstroms)
 Number     Number       Type             X           Y           Z
 ---------------------------------------------------------------------
      1          6           0        3.890540   -0.988696   -1.578567
      2          6           0        3.556474    0.363984   -1.455373
      3          6           0        2.733997    0.800063   -0.412342
      4          6           0        2.261114   -0.147943    0.493725
      5          6           0        2.576151   -1.502500    0.397722
      6          6           0        3.400177   -1.915986   -0.653258
      7          1           0        4.530062   -1.318677   -2.391906
      8          1           0        3.935847    1.086361   -2.172515
      9          1           0        2.459666    1.841220   -0.293376
     10          1           0        2.182693   -2.199091    1.128044
     11          1           0        3.657971   -2.967129   -0.746459
     12          7           0        1.389574    0.301755    1.602143
     13          8           0        0.985864   -0.553288    2.387354
     14          8           0        1.126674    1.500756    1.664721
     15          6           0       -3.643705   -0.118276   -0.079559
     16          6           0       -3.761282   -1.539768   -0.630486
     17          6           0       -4.897338   -2.332487    0.016639
     18          1           0       -3.487831   -0.164673    1.006947
     19          1           0       -4.595288    0.408241   -0.236608
     20          1           0       -2.809308   -2.063002   -0.473690
     21          1           0       -3.916705   -1.489987   -1.715835
     22          1           0       -5.858282   -1.835537   -0.151372
     23          1           0       -4.744593   -2.411808    1.097832
     24          1           0       -4.963371   -3.345698   -0.391898
     25          6           0       -2.512466    0.686747   -0.716714
     26          6           0       -2.394889    2.108239   -0.165787
     27          6           0       -1.258834    2.900956   -0.812912
     28          1           0       -1.560884    0.160228   -0.559665
     29          1           0       -2.668341    0.733144   -1.803220
     30          1           0       -2.239467    2.058457    0.919562
     31          1           0       -3.346864    2.631472   -0.322584
     32          1           0       -1.411578    2.980278   -1.894105
     33          1           0       -0.297890    2.404006   -0.644902
     34          1           0       -1.192801    3.914168   -0.404375
 ---------------------------------------------------------------------

 SCF Done:  E(RHF) =  -669.536203525     A.U. after   15 cycles
 E2 =    -0.2092211262D+01 EUMP2 =    -0.67162841478753D+03

 The electronic state is 1-A.
 Alpha  occ. eigenvalues --  -20.60991 -20.60979 -15.86007 -11.31315 -11.27868
 Alpha  occ. eigenvalues --  -11.27862 -11.27597 -11.26871 -11.26859 -11.21155
 Alpha  occ. eigenvalues --  -11.20815 -11.20761 -11.20723 -11.20666 -11.20294
 Alpha  occ. eigenvalues --   -1.60046  -1.39602  -1.19476  -1.08884  -1.07808
 Alpha  occ. eigenvalues --   -1.04866  -1.02901  -0.95732  -0.95369  -0.86403
 Alpha  occ. eigenvalues --   -0.86266  -0.82560  -0.78986  -0.77659  -0.77587
 Alpha  occ. eigenvalues --   -0.72231  -0.71368  -0.70582  -0.65132  -0.64870
 Alpha  occ. eigenvalues --   -0.64416  -0.62219  -0.60269  -0.58754  -0.56987
 Alpha  occ. eigenvalues --   -0.55372  -0.54654  -0.53197  -0.52959  -0.52075
 Alpha  occ. eigenvalues --   -0.51818  -0.49393  -0.48986  -0.48929  -0.47315
 Alpha  occ. eigenvalues --   -0.46001  -0.45236  -0.45074  -0.44872  -0.43173
 Alpha  occ. eigenvalues --   -0.37449  -0.36460
 Alpha virt. eigenvalues --    0.04869   0.11112   0.16365   0.21180   0.23377
 Alpha virt. eigenvalues --    0.24711   0.26524   0.27250   0.27847   0.28107
 Alpha virt. eigenvalues --    0.28954   0.30516   0.31550   0.32331   0.32483

 Mulliken charges:
               1
     1  C   -0.170397
     2  C   -0.218585
     3  C   -0.171793
     4  C    0.157912
     5  C   -0.171003
     6  C   -0.218326
     7  H    0.226177
     8  H    0.224367
     9  H    0.277617
    10  H    0.275737
    11  H    0.223951
    12  N    0.488172
    13  O   -0.459320
    14  O   -0.459129
    15  C   -0.299164
    16  C   -0.298823
    17  C   -0.475676
    18  H    0.156287
    19  H    0.147759
    20  H    0.150965
    21  H    0.148977
    22  H    0.154321
    23  H    0.157402
    24  H    0.157586
    25  C   -0.296082
    26  C   -0.300643
    27  C   -0.477025
    28  H    0.145107
    29  H    0.145040
    30  H    0.166094
    31  H    0.147667
    32  H    0.146142
    33  H    0.158516
    34  H    0.160171
 Sum of Mulliken charges =  -0.00000

 Dipole moment (field-independent basis, Debye):
    X=              3.2274    Y=             -1.5969    Z=             -3.7166  Tot=              5.1749
 Quadrupole moment (field-independent basis, Debye-Ang):
   XX=            -81.9042   YY=            -90.5197   ZZ=            -98.4527
   XY=             -4.6381   XZ=             -7.4562   YZ=             -1.6816

 Normal termination of Gaussian 16 at Wed May  5 15:52:34 2021.
