 Gaussian 16, Revision A.03,
 Gaussian 16:  EM64L-G16RevA.03 25-Dec-2016

 -------------
 #p 6-31g* mp2
 -------------

 ------------------------------------------------------
 Input file generated by CHIRIPA (05-May-2021 14:51:10)
 ------------------------------------------------------
 Symbolic Z-matrix:
 Charge =  0 Multiplicity = 1

                         Standard orientation:
 ---------------------------------------------------------------------
 Center     Atomic      Atomic             Coordinates (Angstroms)
 Number     Number       Type             X           Y           Z
 ---------------------------------------------------------------------
      1          6           0        2.553091    1.367973   -0.340510
      2          6           0        1.808126    2.461287    0.426092
      3          6           0        1.719294    3.773842   -0.353077
      4          1           0        3.564735    1.722241   -0.581374
      5          1           0        2.046722    1.192462   -1.299771
      6          1           0        2.314946    2.633712    1.384225
      7          1           0        0.798203    2.104303    0.665326
      8          1           0        1.194610    3.623688   -1.302161
      9          1           0        2.719971    4.156105   -0.579178
     10          1           0        1.182875    4.541464    0.213377
     11          6           0        2.650151    0.049786    0.425446
     12          6           0        3.395115   -1.043528   -0.341155
     13          6           0        3.483947   -2.356082    0.438013
     14          1           0        3.156520    0.225297    1.384707
     15          1           0        1.638507   -0.304482    0.666311
     16          1           0        4.405038   -0.686543   -0.580390
     17          1           0        2.888295   -1.215953   -1.299288
     18          1           0        2.483270   -2.738346    0.664114
     19          1           0        4.008632   -2.205928    1.387098
     20          1           0        4.020366   -3.123705   -0.128441
     21          6           0       -2.677842    0.047492   -0.116792
     22          6           0       -4.067147    0.557585    0.267424
     23          6           0       -4.204088    2.072620    0.113442
     24          1           0       -1.924659    0.550266    0.505203
     25          1           0       -2.465022    0.332025   -1.156573
     26          1           0       -4.277845    0.270974    1.305728
     27          1           0       -4.817126    0.053397   -0.355427
     28          1           0       -4.020108    2.372668   -0.923246
     29          1           0       -3.477763    2.591481    0.747347
     30          1           0       -5.204948    2.415771    0.393418
     31          6           0       -2.525399   -1.465252    0.031856
     32          6           0       -1.136094   -1.975344   -0.352360
     33          6           0       -0.999154   -3.490379   -0.198379
     34          1           0       -2.738219   -1.749784    1.071637
     35          1           0       -3.278583   -1.968025   -0.590139
     36          1           0       -0.386116   -1.471157    0.270490
     37          1           0       -0.925397   -1.688733   -1.390664
     38          1           0       -1.725479   -4.009241   -0.832283
     39          1           0       -1.183134   -3.790428    0.838310
     40          1           0        0.001706   -3.833531   -0.478354
 ---------------------------------------------------------------------

 SCF Done:  E(RHF) =  -470.733339661     A.U. after   11 cycles
 E2 =    -0.1583826334D+01 EUMP2 =    -0.47231716599526D+03

 The electronic state is 1-A.
 Alpha  occ. eigenvalues --  -11.21678 -11.21651 -11.21591 -11.21579 -11.21479
 Alpha  occ. eigenvalues --  -11.21419 -11.21373 -11.21312 -11.21137 -11.21104
 Alpha  occ. eigenvalues --  -11.21057 -11.21052  -1.08507  -1.08402  -1.03600
 Alpha  occ. eigenvalues --   -1.03504  -0.96040  -0.95958  -0.87064  -0.86967
 Alpha  occ. eigenvalues --   -0.79673  -0.79565  -0.78373  -0.78173  -0.65239
 Alpha  occ. eigenvalues --   -0.64947  -0.61074  -0.60849  -0.59408  -0.59313
 Alpha  occ. eigenvalues --   -0.57648  -0.57570  -0.55324  -0.55257  -0.52734
 Alpha  occ. eigenvalues --   -0.52655  -0.52500  -0.52351  -0.50042  -0.49855
 Alpha  occ. eigenvalues --   -0.48010  -0.47862  -0.46846  -0.46526  -0.46180
 Alpha  occ. eigenvalues --   -0.45814  -0.45720  -0.45233  -0.43846  -0.43763
 Alpha virt. eigenvalues --    0.19776   0.22103   0.23545   0.24740   0.25343
 Alpha virt. eigenvalues --    0.26487   0.26776   0.27596   0.28620   0.29482
 Alpha virt. eigenvalues --    0.30812   0.31053   0.31608   0.31805   0.31934

 Mulliken charges:
               1
     1  C   -0.297706
     2  C   -0.301413
     3  C   -0.475567
     4  H    0.149527
     5  H    0.149972
     6  H    0.151712
     7  H    0.152890
     8  H    0.155495
     9  H    0.155093
    10  H    0.160135
    11  C   -0.305610
    12  C   -0.299155
    13  C   -0.479035
    14  H    0.149224
    15  H    0.156386
    16  H    0.151905
    17  H    0.152275
    18  H    0.157943
    19  H    0.155133
    20  H    0.160120
    21  C   -0.300356
    22  C   -0.299687
    23  C   -0.475785
    24  H    0.150631
    25  H    0.149541
    26  H    0.152166
    27  H    0.152233
    28  H    0.155263
    29  H    0.155332
    30  H    0.160481
    31  C   -0.297582
    32  C   -0.308441
    33  C   -0.477378
    34  H    0.149790
    35  H    0.150129
    36  H    0.159274
    37  H    0.151729
    38  H    0.155664
    39  H    0.155457
    40  H    0.162216
 Sum of Mulliken charges =  -0.00000

 Dipole moment (field-independent basis, Debye):
    X=             -0.0334    Y=             -0.0117    Z=             -0.0065  Tot=              0.0360
 Quadrupole moment (field-independent basis, Debye-Ang):
   XX=            -83.9772   YY=            -86.8585   ZZ=            -83.8566
   XY=              0.7581   XZ=              0.5843   YZ=              0.7534

 Normal termination of Gaussian 16 at Thu May  6 02:13:42 2021.
