 Gaussian 16, Revision A.03,
 Gaussian 16:  EM64L-G16RevA.03 25-Dec-2016

 -------------
 #p 6-31g* mp2
 -------------

 ------------------------------------------------------
 Input file generated by CHIRIPA (05-May-2021 14:57:24)
 ------------------------------------------------------
 Symbolic Z-matrix:
 Charge =  0 Multiplicity = 1

                         Standard orientation:
 ---------------------------------------------------------------------
 Center     Atomic      Atomic             Coordinates (Angstroms)
 Number     Number       Type             X           Y           Z
 ---------------------------------------------------------------------
      1          6           0       -4.499340    1.894495    0.178582
      2          6           0       -4.500946    1.141771   -1.000369
      3          6           0       -3.661144    0.032259   -1.135509
      4          6           0       -2.828837   -0.297627   -0.066991
      5          6           0       -2.804312    0.432502    1.120275
      6          6           0       -3.652522    1.538087    1.233282
      7          1           0       -5.154984    2.754866    0.274965
      8          1           0       -5.157542    1.416231   -1.821099
      9          1           0       -3.642158   -0.567972   -2.037052
     10          1           0       -2.138675    0.134335    1.921176
     11          1           0       -3.649155    2.120828    2.150040
     12          7           0       -1.935326   -1.470139   -0.198341
     13          8           0       -1.211442   -1.740024    0.757583
     14          8           0       -1.975794   -2.097068   -1.254731
     15          6           0        2.176145   -2.203126    0.678908
     16          6           0        2.629787   -1.951669   -0.620131
     17          6           0        3.075325   -0.676965   -0.982310
     18          6           0        3.053435    0.327465   -0.015908
     19          6           0        2.607326    0.108211    1.286476
     20          6           0        2.166380   -1.174196    1.626395
     21          1           0        1.831825   -3.196338    0.951611
     22          1           0        2.638496   -2.748832   -1.358033
     23          1           0        3.431695   -0.454696   -1.980817
     24          1           0        2.610496    0.923055    2.000226
     25          1           0        1.814619   -1.366588    2.635995
     26          7           0        3.522674    1.681014   -0.387548
     27          8           0        3.493384    2.548871    0.482281
     28          8           0        3.910871    1.848440   -1.541632
 ---------------------------------------------------------------------

 SCF Done:  E(RHF) =  -868.339351968     A.U. after   16 cycles
 E2 =    -0.2599779983D+01 EUMP2 =    -0.87093913195128D+03

 The electronic state is 1-A.
 Alpha  occ. eigenvalues --  -20.61342 -20.61321 -20.60113 -20.60104 -15.86354
 Alpha  occ. eigenvalues --  -15.85158 -11.31512 -11.30205 -11.28073 -11.28043
 Alpha  occ. eigenvalues --  -11.27745 -11.27022 -11.27007 -11.26789 -11.26763
 Alpha  occ. eigenvalues --  -11.26315 -11.25648 -11.25610  -1.60392  -1.59197
 Alpha  occ. eigenvalues --   -1.39956  -1.38760  -1.19660  -1.18343  -1.09094
 Alpha  occ. eigenvalues --   -1.07750  -1.05035  -1.03720  -0.95972  -0.94651
 Alpha  occ. eigenvalues --   -0.86443  -0.85112  -0.82816  -0.81520  -0.77888
 Alpha  occ. eigenvalues --   -0.76639  -0.72621  -0.71690  -0.71384  -0.70770
 Alpha  occ. eigenvalues --   -0.70522  -0.69389  -0.65322  -0.65038  -0.63985
 Alpha  occ. eigenvalues --   -0.63712  -0.62393  -0.61104  -0.55540  -0.54124
 Alpha  occ. eigenvalues --   -0.53370  -0.53129  -0.52042  -0.51814  -0.49371
 Alpha  occ. eigenvalues --   -0.49328  -0.48156  -0.48108  -0.45404  -0.44239
 Alpha  occ. eigenvalues --   -0.37625  -0.36626  -0.36122  -0.35323
 Alpha virt. eigenvalues --    0.04626   0.05933   0.11034   0.12360   0.16188
 Alpha virt. eigenvalues --    0.17542   0.21164   0.22489   0.27064   0.27908
 Alpha virt. eigenvalues --    0.28411   0.29413   0.30754   0.31983   0.32346

 Mulliken charges:
               1
     1  C   -0.169667
     2  C   -0.218121
     3  C   -0.170289
     4  C    0.158834
     5  C   -0.169444
     6  C   -0.217719
     7  H    0.227515
     8  H    0.224943
     9  H    0.275666
    10  H    0.272052
    11  H    0.224679
    12  N    0.490409
    13  O   -0.466505
    14  O   -0.461085
    15  C   -0.150213
    16  C   -0.219407
    17  C   -0.173004
    18  C    0.155647
    19  C   -0.176238
    20  C   -0.212145
    21  H    0.230466
    22  H    0.223469
    23  H    0.271910
    24  H    0.268931
    25  H    0.219882
    26  N    0.488292
    27  O   -0.465525
    28  O   -0.463333
 Sum of Mulliken charges =  -0.00000

 Dipole moment (field-independent basis, Debye):
    X=             -5.1529    Y=             -0.8839    Z=              1.7722  Tot=              5.5204
 Quadrupole moment (field-independent basis, Debye-Ang):
   XX=            -98.2309   YY=           -110.6511   ZZ=            -96.6927
   XY=            -27.2611   XZ=              3.9307   YZ=              2.5826

 Normal termination of Gaussian 16 at Thu May  6 13:02:29 2021.
