 Gaussian 16, Revision A.03,
 Gaussian 16:  EM64L-G16RevA.03 25-Dec-2016

 -------------
 #p 6-31g* mp2
 -------------

 ------------------------------------------------------
 Input file generated by CHIRIPA (05-May-2021 14:51:12)
 ------------------------------------------------------
 Symbolic Z-matrix:
 Charge =  0 Multiplicity = 1

                         Standard orientation:
 ---------------------------------------------------------------------
 Center     Atomic      Atomic             Coordinates (Angstroms)
 Number     Number       Type             X           Y           Z
 ---------------------------------------------------------------------
      1          6           0       -3.099242   -0.467215    0.159411
      2          6           0       -3.275209   -1.648777   -0.795017
      3          6           0       -2.535108   -2.902136   -0.326896
      4          1           0       -2.028461   -0.244889    0.264024
      5          1           0       -3.457787   -0.754565    1.157544
      6          1           0       -2.917717   -1.358826   -1.791383
      7          1           0       -4.345707   -1.868193   -0.897520
      8          1           0       -2.897360   -3.218685    0.656553
      9          1           0       -1.461257   -2.706424   -0.242389
     10          1           0       -2.674453   -3.734459   -1.023804
     11          6           0       -3.833251    0.793131   -0.294997
     12          6           0       -3.657283    1.974692    0.659432
     13          6           0       -4.397384    3.228051    0.191310
     14          1           0       -3.474705    1.080481   -1.293130
     15          1           0       -4.904032    0.570805   -0.399610
     16          1           0       -2.586786    2.194109    0.761934
     17          1           0       -4.014775    1.684742    1.655797
     18          1           0       -5.471235    3.032339    0.106803
     19          1           0       -4.035132    3.544600   -0.792138
     20          1           0       -4.258040    4.060375    0.888218
     21          6           0        3.253496   -0.768627    0.481719
     22          6           0        2.055829   -1.514961   -0.106977
     23          6           0        1.642080   -2.724160    0.732334
     24          1           0        4.101172   -1.461661    0.571686
     25          1           0        3.007634   -0.441479    1.501484
     26          1           0        2.303378   -1.839401   -1.125838
     27          1           0        1.210965   -0.820020   -0.195732
     28          1           0        1.368746   -2.414081    1.746110
     29          1           0        2.467367   -3.439254    0.810719
     30          1           0        0.784188   -3.242966    0.293335
     31          6           0        3.678997    0.442711   -0.346133
     32          6           0        4.876664    1.189045    0.242563
     33          6           0        5.290411    2.398244   -0.596748
     34          1           0        3.924858    0.115563   -1.365899
     35          1           0        2.831321    1.135745   -0.436100
     36          1           0        5.721528    0.494105    0.331318
     37          1           0        4.629114    1.513485    1.261423
     38          1           0        4.465125    3.113338   -0.675134
     39          1           0        5.563746    2.088167   -1.610524
     40          1           0        6.148305    2.917050   -0.157750
 ---------------------------------------------------------------------

 SCF Done:  E(RHF) =  -470.733298679     A.U. after   11 cycles
 E2 =    -0.1582596406D+01 EUMP2 =    -0.47231589508444D+03

 The electronic state is 1-A.
 Alpha  occ. eigenvalues --  -11.21650 -11.21622 -11.21619 -11.21598 -11.21435
 Alpha  occ. eigenvalues --  -11.21417 -11.21375 -11.21358 -11.21089 -11.21085
 Alpha  occ. eigenvalues --  -11.21063 -11.21039  -1.08461  -1.08436  -1.03569
 Alpha  occ. eigenvalues --   -1.03521  -0.96032  -0.95956  -0.87062  -0.86959
 Alpha  occ. eigenvalues --   -0.79635  -0.79581  -0.78276  -0.78248  -0.65116
 Alpha  occ. eigenvalues --   -0.65046  -0.61015  -0.60898  -0.59421  -0.59323
 Alpha  occ. eigenvalues --   -0.57729  -0.57498  -0.55321  -0.55235  -0.52807
 Alpha  occ. eigenvalues --   -0.52665  -0.52493  -0.52251  -0.49963  -0.49879
 Alpha  occ. eigenvalues --   -0.47991  -0.47841  -0.46665  -0.46610  -0.45844
 Alpha  occ. eigenvalues --   -0.45786  -0.45751  -0.45671  -0.43803  -0.43781
 Alpha virt. eigenvalues --    0.20766   0.23156   0.23446   0.24936   0.25897
 Alpha virt. eigenvalues --    0.26651   0.26942   0.27237   0.28131   0.28960
 Alpha virt. eigenvalues --    0.30462   0.31021   0.31573   0.31755   0.31993

 Mulliken charges:
               1
     1  C   -0.299208
     2  C   -0.299140
     3  C   -0.483088
     4  H    0.149926
     5  H    0.149665
     6  H    0.151947
     7  H    0.151924
     8  H    0.155358
     9  H    0.162656
    10  H    0.160015
    11  C   -0.298334
    12  C   -0.299573
    13  C   -0.475717
    14  H    0.149601
    15  H    0.149807
    16  H    0.151532
    17  H    0.151978
    18  H    0.155275
    19  H    0.155224
    20  H    0.160234
    21  C   -0.298222
    22  C   -0.301348
    23  C   -0.480778
    24  H    0.150023
    25  H    0.149760
    26  H    0.152166
    27  H    0.151719
    28  H    0.155569
    29  H    0.155517
    30  H    0.165509
    31  C   -0.298262
    32  C   -0.299700
    33  C   -0.475722
    34  H    0.149579
    35  H    0.149341
    36  H    0.152049
    37  H    0.152017
    38  H    0.155135
    39  H    0.155206
    40  H    0.160360
 Sum of Mulliken charges =  -0.00000

 Dipole moment (field-independent basis, Debye):
    X=              0.0110    Y=             -0.0116    Z=              0.0054  Tot=              0.0169
 Quadrupole moment (field-independent basis, Debye-Ang):
   XX=            -84.0442   YY=            -86.1092   ZZ=            -84.5174
   XY=             -0.0728   XZ=             -0.6870   YZ=              0.8095

 Normal termination of Gaussian 16 at Wed May  5 18:18:07 2021.
