 Gaussian 16, Revision A.03,
 Gaussian 16:  EM64L-G16RevA.03 25-Dec-2016

 -------------
 #p 6-31g* mp2
 -------------

 ------------------------------------------------------
 Input file generated by CHIRIPA (05-May-2021 14:53:12)
 ------------------------------------------------------
 Symbolic Z-matrix:
 Charge =  0 Multiplicity = 1

                         Standard orientation:
 ---------------------------------------------------------------------
 Center     Atomic      Atomic             Coordinates (Angstroms)
 Number     Number       Type             X           Y           Z
 ---------------------------------------------------------------------
      1          6           0       -2.635435    1.365035    0.127588
      2          6           0       -1.797994    2.287724   -0.758596
      3          6           0       -1.479577    3.623723   -0.086650
      4          1           0       -3.571143    1.874533    0.395555
      5          1           0       -2.097425    1.184275    1.068474
      6          1           0       -2.336802    2.465577   -1.698102
      7          1           0       -0.864255    1.775896   -1.024642
      8          1           0       -0.920631    3.464725    0.841197
      9          1           0       -2.401544    4.158325    0.163910
     10          1           0       -0.880198    4.267759   -0.737668
     11          6           0       -2.961910    0.025527   -0.530332
     12          6           0       -3.799351   -0.897163    0.355852
     13          6           0       -4.117768   -2.233162   -0.316094
     14          1           0       -3.499920    0.206287   -1.471218
     15          1           0       -2.026202   -0.483972   -0.798299
     16          1           0       -4.733090   -0.385335    0.621898
     17          1           0       -3.260544   -1.075015    1.295358
     18          1           0       -3.195802   -2.767763   -0.566654
     19          1           0       -4.676715   -2.074164   -1.243941
     20          1           0       -4.717147   -2.877197    0.334923
     21          6           0        0.018397   -1.749008    0.617116
     22          6           0        0.347177   -0.598962    1.342249
     23          6           0        1.545768    0.077246    1.095934
     24          6           0        2.396064   -0.426614    0.112871
     25          6           0        2.096624   -1.569926   -0.626361
     26          6           0        0.892628   -2.229972   -0.363146
     27          1           0       -0.914797   -2.268025    0.815024
     28          1           0       -0.329846   -0.223157    2.104126
     29          1           0        1.825122    0.969786    1.642515
     30          1           0        2.791709   -1.920510   -1.379597
     31          1           0        0.639895   -3.122881   -0.927844
     32          7           0        3.667819    0.280702   -0.156838
     33          8           0        4.399880   -0.183493   -1.028186
     34          8           0        3.908479    1.285898    0.508219
 ---------------------------------------------------------------------

 SCF Done:  E(RHF) =  -669.533910705     A.U. after   15 cycles
 E2 =    -0.2095618959D+01 EUMP2 =    -0.67162952966430D+03

 The electronic state is 1-A.
 Alpha  occ. eigenvalues --  -20.60831 -20.60826 -15.85888 -11.31289 -11.27876
 Alpha  occ. eigenvalues --  -11.27864 -11.27581 -11.26877 -11.26864 -11.22626
 Alpha  occ. eigenvalues --  -11.22145 -11.22040 -11.21986 -11.21934 -11.21377
 Alpha  occ. eigenvalues --   -1.59907  -1.39459  -1.19480  -1.09187  -1.08816
 Alpha  occ. eigenvalues --   -1.04883  -1.04225  -0.96660  -0.95692  -0.87681
 Alpha  occ. eigenvalues --   -0.86280  -0.82524  -0.80297  -0.78907  -0.77556
 Alpha  occ. eigenvalues --   -0.72105  -0.71232  -0.70646  -0.65938  -0.65119
 Alpha  occ. eigenvalues --   -0.64755  -0.62228  -0.61650  -0.60045  -0.58248
 Alpha  occ. eigenvalues --   -0.56060  -0.55300  -0.53369  -0.53217  -0.53078
 Alpha  occ. eigenvalues --   -0.52923  -0.50640  -0.48870  -0.48857  -0.48596
 Alpha  occ. eigenvalues --   -0.47374  -0.46435  -0.46321  -0.44857  -0.44439
 Alpha  occ. eigenvalues --   -0.37354  -0.36465
 Alpha virt. eigenvalues --    0.04941   0.11063   0.16297   0.18725   0.22669
 Alpha virt. eigenvalues --    0.23569   0.24672   0.26301   0.27282   0.28141
 Alpha virt. eigenvalues --    0.29527   0.30412   0.31053   0.31166   0.32127

 Mulliken charges:
               1
     1  C   -0.296331
     2  C   -0.302536
     3  C   -0.475048
     4  H    0.151370
     5  H    0.140170
     6  H    0.153384
     7  H    0.156921
     8  H    0.151269
     9  H    0.155307
    10  H    0.165135
    11  C   -0.305749
    12  C   -0.302789
    13  C   -0.476392
    14  H    0.153008
    15  H    0.156022
    16  H    0.158267
    17  H    0.140310
    18  H    0.146165
    19  H    0.161560
    20  H    0.163127
    21  C   -0.176136
    22  C   -0.216617
    23  C   -0.171991
    24  C    0.158054
    25  C   -0.170073
    26  C   -0.220412
    27  H    0.234310
    28  H    0.225175
    29  H    0.276229
    30  H    0.276185
    31  H    0.224171
    32  N    0.488102
    33  O   -0.460131
    34  O   -0.460033
 Sum of Mulliken charges =  -0.00000

 Dipole moment (field-independent basis, Debye):
    X=             -4.4892    Y=             -2.4377    Z=              0.8365  Tot=              5.1764
 Quadrupole moment (field-independent basis, Debye-Ang):
   XX=           -115.6981   YY=            -91.4663   ZZ=            -92.4708
   XY=             -5.6553   XZ=              1.3940   YZ=              1.4543

 Normal termination of Gaussian 16 at Thu May  6 12:01:19 2021.
