 Gaussian 16, Revision A.03,
 Gaussian 16:  EM64L-G16RevA.03 25-Dec-2016

 -------------
 #p 6-31g* mp2
 -------------

 ------------------------------------------------------
 Input file generated by CHIRIPA (05-May-2021 14:57:23)
 ------------------------------------------------------
 Symbolic Z-matrix:
 Charge =  0 Multiplicity = 1

                         Standard orientation:
 ---------------------------------------------------------------------
 Center     Atomic      Atomic             Coordinates (Angstroms)
 Number     Number       Type             X           Y           Z
 ---------------------------------------------------------------------
      1          6           0        3.494915   -2.363074   -0.520051
      2          6           0        3.024388   -1.646959   -1.625630
      3          6           0        2.640680   -0.309052   -1.494018
      4          6           0        2.740945    0.284075   -0.236466
      5          6           0        3.205796   -0.402842    0.883956
      6          6           0        3.583960   -1.739829    0.729012
      7          1           0        3.790835   -3.402034   -0.631353
      8          1           0        2.954167   -2.128405   -2.596878
      9          1           0        2.272933    0.268780   -2.333238
     10          1           0        3.264544    0.104207    1.839398
     11          1           0        3.949012   -2.293516    1.589368
     12          7           0        2.337665    1.699970   -0.084784
     13          8           0        2.435499    2.199621    1.033883
     14          8           0        1.931376    2.283288   -1.087434
     15          6           0       -4.726652   -0.308924   -1.355867
     16          6           0       -4.705703   -1.050834   -0.170266
     17          6           0       -3.647348   -0.915828    0.733177
     18          6           0       -2.621865   -0.025756    0.417823
     19          6           0       -2.614165    0.727388   -0.755209
     20          6           0       -3.682658    0.576259   -1.644047
     21          1           0       -5.552745   -0.420061   -2.052010
     22          1           0       -5.515126   -1.739031    0.056149
     23          1           0       -3.605918   -1.477872    1.658275
     24          1           0       -1.792991    1.405482   -0.953396
     25          1           0       -3.696284    1.153728   -2.564041
     26          7           0       -1.496066    0.125702    1.366526
     27          8           0       -0.604689    0.916556    1.065470
     28          8           0       -1.526359   -0.549306    2.393212
 ---------------------------------------------------------------------

 SCF Done:  E(RHF) =  -868.338273226     A.U. after   16 cycles
 E2 =    -0.2600826122D+01 EUMP2 =    -0.87093909934813D+03

 The electronic state is 1-A.
 Alpha  occ. eigenvalues --  -20.60577 -20.60569 -20.59672 -20.59556 -15.85623
 Alpha  occ. eigenvalues --  -15.84675 -11.30972 -11.30232 -11.27585 -11.27475
 Alpha  occ. eigenvalues --  -11.27324 -11.26911 -11.26765 -11.26676 -11.26600
 Alpha  occ. eigenvalues --  -11.26540 -11.25996 -11.25892  -1.59649  -1.58645
 Alpha  occ. eigenvalues --   -1.39202  -1.38214  -1.19157  -1.18435  -1.08562
 Alpha  occ. eigenvalues --   -1.07798  -1.04553  -1.03891  -0.95393  -0.94608
 Alpha  occ. eigenvalues --   -0.85953  -0.85279  -0.82229  -0.81462  -0.77269
 Alpha  occ. eigenvalues --   -0.76458  -0.71972  -0.70985  -0.70936  -0.70279
 Alpha  occ. eigenvalues --   -0.69728  -0.69586  -0.64804  -0.64557  -0.64109
 Alpha  occ. eigenvalues --   -0.63925  -0.61885  -0.61246  -0.55073  -0.54420
 Alpha  occ. eigenvalues --   -0.52898  -0.52640  -0.52191  -0.52006  -0.48615
 Alpha  occ. eigenvalues --   -0.48592  -0.47702  -0.47645  -0.44617  -0.43571
 Alpha  occ. eigenvalues --   -0.37161  -0.36414  -0.36162  -0.35500
 Alpha virt. eigenvalues --    0.05209   0.06186   0.11488   0.12156   0.16733
 Alpha virt. eigenvalues --    0.17556   0.21630   0.22159   0.27550   0.28031
 Alpha virt. eigenvalues --    0.28511   0.29109   0.31124   0.31648   0.32837

 Mulliken charges:
               1
     1  C   -0.172334
     2  C   -0.219480
     3  C   -0.174080
     4  C    0.165893
     5  C   -0.164221
     6  C   -0.218867
     7  H    0.221549
     8  H    0.218072
     9  H    0.269532
    10  H    0.278974
    11  H    0.221817
    12  N    0.497224
    13  O   -0.451279
    14  O   -0.473378
    15  C   -0.171022
    16  C   -0.219134
    17  C   -0.171402
    18  C    0.156944
    19  C   -0.173743
    20  C   -0.219692
    21  H    0.224642
    22  H    0.222077
    23  H    0.274155
    24  H    0.285297
    25  H    0.224422
    26  N    0.491299
    27  O   -0.460360
    28  O   -0.462904
 Sum of Mulliken charges =  -0.00000

 Dipole moment (field-independent basis, Debye):
    X=             -2.6112    Y=             -5.2992    Z=             -3.6093  Tot=              6.9229
 Quadrupole moment (field-independent basis, Debye-Ang):
   XX=            -77.1069   YY=           -106.8251   ZZ=           -101.5052
   XY=            -10.1050   XZ=              6.1268   YZ=             -1.5694

 Normal termination of Gaussian 16 at Thu May  6 12:55:33 2021.
