 Gaussian 16, Revision A.03,
 Gaussian 16:  EM64L-G16RevA.03 25-Dec-2016

 -------------
 #p 6-31g* mp2
 -------------

 ------------------------------------------------------
 Input file generated by CHIRIPA (05-May-2021 14:53:11)
 ------------------------------------------------------
 Symbolic Z-matrix:
 Charge =  0 Multiplicity = 1

                         Standard orientation:
 ---------------------------------------------------------------------
 Center     Atomic      Atomic             Coordinates (Angstroms)
 Number     Number       Type             X           Y           Z
 ---------------------------------------------------------------------
      1          6           0       -4.943962   -0.332093   -0.346589
      2          6           0       -6.158393    0.379956    0.250175
      3          6           0       -7.483548   -0.155407   -0.293097
      4          1           0       -4.964140   -0.224146   -1.439697
      5          1           0       -5.019149   -1.408174   -0.137325
      6          1           0       -6.080241    1.454560    0.041045
      7          1           0       -6.135219    0.270465    1.342004
      8          1           0       -7.587830   -1.222454   -0.071428
      9          1           0       -7.532539   -0.031631   -1.379780
     10          1           0       -8.338413    0.367611    0.146812
     11          6           0       -3.611826    0.192024    0.186743
     12          6           0       -2.397396   -0.520025   -0.410022
     13          6           0       -1.072240    0.015337    0.133250
     14          1           0       -3.536640    1.268105   -0.022522
     15          1           0       -3.591649    0.084077    1.279851
     16          1           0       -2.420570   -0.410534   -1.501851
     17          1           0       -2.475548   -1.594629   -0.200891
     18          1           0       -1.023250   -0.108438    1.219933
     19          1           0       -0.967959    1.082385   -0.088418
     20          1           0       -0.217376   -0.507680   -0.306659
     21          6           0        3.036334    2.559160    0.049078
     22          6           0        3.955467    1.961536   -0.819577
     23          6           0        4.133158    0.574823   -0.820817
     24          6           0        3.371666   -0.187406    0.063732
     25          6           0        2.448022    0.378484    0.941194
     26          6           0        2.286866    1.767123    0.925146
     27          1           0        2.904722    3.637141    0.043325
     28          1           0        4.538881    2.574154   -1.501026
     29          1           0        4.837760    0.086099   -1.482711
     30          1           0        1.880850   -0.258418    1.609094
     31          1           0        1.572326    2.228514    1.600865
     32          7           0        3.551026   -1.656477    0.071571
     33          8           0        2.867992   -2.305871    0.860486
     34          8           0        4.371249   -2.130723   -0.711349
 ---------------------------------------------------------------------

 SCF Done:  E(RHF) =  -669.535378470     A.U. after   15 cycles
 E2 =    -0.2091817150D+01 EUMP2 =    -0.67162719562036D+03

 The electronic state is 1-A.
 Alpha  occ. eigenvalues --  -20.60753 -20.60748 -15.85804 -11.31139 -11.27724
 Alpha  occ. eigenvalues --  -11.27692 -11.27464 -11.26727 -11.26702 -11.21717
 Alpha  occ. eigenvalues --  -11.21710 -11.21549 -11.21465 -11.21343 -11.21147
 Alpha  occ. eigenvalues --   -1.59828  -1.39382  -1.19323  -1.08722  -1.08562
 Alpha  occ. eigenvalues --   -1.04722  -1.03668  -0.96143  -0.95556  -0.87170
 Alpha  occ. eigenvalues --   -0.86117  -0.82388  -0.79746  -0.78376  -0.77430
 Alpha  occ. eigenvalues --   -0.72021  -0.71154  -0.70434  -0.65192  -0.64973
 Alpha  occ. eigenvalues --   -0.64721  -0.62074  -0.61065  -0.59496  -0.57739
 Alpha  occ. eigenvalues --   -0.55445  -0.55224  -0.53301  -0.52836  -0.52565
 Alpha  occ. eigenvalues --   -0.52544  -0.50085  -0.48778  -0.48778  -0.48060
 Alpha  occ. eigenvalues --   -0.46763  -0.45922  -0.45836  -0.44795  -0.43921
 Alpha  occ. eigenvalues --   -0.37305  -0.36258
 Alpha virt. eigenvalues --    0.05083   0.11281   0.16532   0.21041   0.22761
 Alpha virt. eigenvalues --    0.24078   0.26067   0.26563   0.27475   0.28056
 Alpha virt. eigenvalues --    0.28904   0.30431   0.31311   0.31685   0.32001

 Mulliken charges:
               1
     1  C   -0.298496
     2  C   -0.299617
     3  C   -0.475801
     4  H    0.150004
     5  H    0.151296
     6  H    0.150878
     7  H    0.151860
     8  H    0.156086
     9  H    0.155335
    10  H    0.160196
    11  C   -0.298514
    12  C   -0.300671
    13  C   -0.477557
    14  H    0.147082
    15  H    0.149018
    16  H    0.153028
    17  H    0.156632
    18  H    0.148956
    19  H    0.150907
    20  H    0.166966
    21  C   -0.171403
    22  C   -0.218760
    23  C   -0.171032
    24  C    0.156262
    25  C   -0.167061
    26  C   -0.217422
    27  H    0.225315
    28  H    0.223123
    29  H    0.275368
    30  H    0.277191
    31  H    0.224007
    32  N    0.488148
    33  O   -0.460793
    34  O   -0.460530
 Sum of Mulliken charges =  -0.00000

 Dipole moment (field-independent basis, Debye):
    X=             -0.6606    Y=              5.1352    Z=             -0.0518  Tot=              5.1778
 Quadrupole moment (field-independent basis, Debye-Ang):
   XX=            -98.1821   YY=            -96.9197   ZZ=            -92.1288
   XY=             18.0005   XZ=             -3.2599   YZ=             -0.5970

 Normal termination of Gaussian 16 at Wed May  5 21:41:49 2021.
