 Gaussian 16, Revision A.03,
 Gaussian 16:  EM64L-G16RevA.03 25-Dec-2016

 -------------
 #p 6-31g* mp2
 -------------

 ------------------------------------------------------
 Input file generated by CHIRIPA (05-May-2021 14:53:12)
 ------------------------------------------------------
 Symbolic Z-matrix:
 Charge =  0 Multiplicity = 1

                         Standard orientation:
 ---------------------------------------------------------------------
 Center     Atomic      Atomic             Coordinates (Angstroms)
 Number     Number       Type             X           Y           Z
 ---------------------------------------------------------------------
      1          6           0        3.936955    0.466245   -0.428792
      2          6           0        3.021125    1.406299    0.355771
      3          6           0        2.040312    2.161401   -0.541793
      4          1           0        4.494408    1.047113   -1.176311
      5          1           0        3.321382   -0.252628   -0.987082
      6          1           0        3.638278    2.122310    0.913504
      7          1           0        2.465929    0.823156    1.101637
      8          1           0        1.400302    1.460916   -1.087969
      9          1           0        2.579313    2.767452   -1.277172
     10          1           0        1.395332    2.827620    0.039596
     11          6           0        4.923133   -0.295736    0.454704
     12          6           0        5.838962   -1.235790   -0.329858
     13          6           0        6.819775   -1.990892    0.567706
     14          1           0        5.538705    0.423137    1.012994
     15          1           0        4.365680   -0.876603    1.202223
     16          1           0        6.394159   -0.652647   -1.075725
     17          1           0        5.221809   -1.951801   -0.887591
     18          1           0        6.280774   -2.596942    1.303084
     19          1           0        7.459785   -1.290407    1.113882
     20          1           0        7.464755   -2.657111   -0.013683
     21          6           0       -5.563596   -1.445546    0.198244
     22          6           0       -4.777586   -1.537537   -0.955121
     23          6           0       -3.610545   -0.778188   -1.081429
     24          6           0       -3.257698    0.066706   -0.030266
     25          6           0       -4.019881    0.180340    1.131393
     26          6           0       -5.182905   -0.588413    1.235989
     27          1           0       -6.468621   -2.039079    0.287929
     28          1           0       -5.070789   -2.202357   -1.762642
     29          1           0       -2.983569   -0.830006   -1.963263
     30          1           0       -3.701832    0.851926    1.919579
     31          1           0       -5.791395   -0.514939    2.132866
     32          7           0       -2.024330    0.875573   -0.152490
     33          8           0       -1.735228    1.612446    0.787762
     34          8           0       -1.370072    0.757372   -1.186227
 ---------------------------------------------------------------------

 SCF Done:  E(RHF) =  -669.536227025     A.U. after   15 cycles
 E2 =    -0.2091222918D+01 EUMP2 =    -0.67162744994345D+03

 The electronic state is 1-A.
 Alpha  occ. eigenvalues --  -20.60990 -20.60984 -15.86012 -11.31327 -11.27887
 Alpha  occ. eigenvalues --  -11.27883 -11.27621 -11.26891 -11.26881 -11.20944
 Alpha  occ. eigenvalues --  -11.20550 -11.20541 -11.20272 -11.20134 -11.18972
 Alpha  occ. eigenvalues --   -1.60037  -1.39595  -1.19492  -1.08897  -1.07421
 Alpha  occ. eigenvalues --   -1.04886  -1.02393  -0.95742  -0.94809  -0.86287
 Alpha  occ. eigenvalues --   -0.85825  -0.82574  -0.78519  -0.77628  -0.77168
 Alpha  occ. eigenvalues --   -0.72229  -0.71352  -0.70599  -0.65147  -0.64889
 Alpha  occ. eigenvalues --   -0.64066  -0.62233  -0.59796  -0.58290  -0.56403
 Alpha  occ. eigenvalues --   -0.55395  -0.54112  -0.53218  -0.52977  -0.51479
 Alpha  occ. eigenvalues --   -0.51249  -0.49235  -0.48973  -0.48497  -0.46790
 Alpha  occ. eigenvalues --   -0.45565  -0.45014  -0.44705  -0.44562  -0.42640
 Alpha  occ. eigenvalues --   -0.37470  -0.36487
 Alpha virt. eigenvalues --    0.04895   0.11168   0.16394   0.21306   0.23781
 Alpha virt. eigenvalues --    0.25544   0.27224   0.27605   0.28188   0.28433
 Alpha virt. eigenvalues --    0.29322   0.30886   0.32362   0.32553   0.32680

 Mulliken charges:
               1
     1  C   -0.297411
     2  C   -0.299341
     3  C   -0.480724
     4  H    0.146922
     5  H    0.149203
     6  H    0.145363
     7  H    0.151179
     8  H    0.176185
     9  H    0.142895
    10  H    0.167897
    11  C   -0.297155
    12  C   -0.298730
    13  C   -0.475039
    14  H    0.147787
    15  H    0.147792
    16  H    0.150974
    17  H    0.150595
    18  H    0.153868
    19  H    0.154395
    20  H    0.157933
    21  C   -0.170550
    22  C   -0.218548
    23  C   -0.170822
    24  C    0.158116
    25  C   -0.170700
    26  C   -0.218577
    27  H    0.226104
    28  H    0.223925
    29  H    0.275768
    30  H    0.275918
    31  H    0.223938
    32  N    0.489152
    33  O   -0.458952
    34  O   -0.459359
 Sum of Mulliken charges =  -0.00000

 Dipole moment (field-independent basis, Debye):
    X=             -4.7790    Y=             -2.8367    Z=              0.4074  Tot=              5.5724
 Quadrupole moment (field-independent basis, Debye-Ang):
   XX=            -68.4972   YY=            -95.1065   ZZ=            -91.1593
   XY=              9.8486   XZ=             -2.7512   YZ=              2.5100

 Normal termination of Gaussian 16 at Wed May  5 16:59:57 2021.
