 Gaussian 16, Revision A.03,
 Gaussian 16:  EM64L-G16RevA.03 25-Dec-2016

 -------------
 #p 6-31g* mp2
 -------------

 ------------------------------------------------------
 Input file generated by CHIRIPA (05-May-2021 14:57:26)
 ------------------------------------------------------
 Symbolic Z-matrix:
 Charge =  0 Multiplicity = 1

                         Standard orientation:
 ---------------------------------------------------------------------
 Center     Atomic      Atomic             Coordinates (Angstroms)
 Number     Number       Type             X           Y           Z
 ---------------------------------------------------------------------
      1          6           0       -3.086352    2.047648    1.301927
      2          6           0       -3.449880    0.822036    1.869593
      3          6           0       -3.240806   -0.372496    1.173943
      4          6           0       -2.663311   -0.304269   -0.092997
      5          6           0       -2.290380    0.901242   -0.685412
      6          6           0       -2.508780    2.083277    0.028482
      7          1           0       -3.252388    2.970735    1.849411
      8          1           0       -3.898619    0.791340    2.858398
      9          1           0       -3.512762   -1.335085    1.589731
     10          1           0       -1.845049    0.899945   -1.672881
     11          1           0       -2.225466    3.033660   -0.414856
     12          7           0       -2.437037   -1.562251   -0.839107
     13          8           0       -1.926580   -1.475213   -1.953780
     14          8           0       -2.774425   -2.611475   -0.295108
     15          6           0        3.326403   -2.112957    1.014377
     16          6           0        2.234508   -2.034431    0.143675
     17          6           0        1.878663   -0.815258   -0.440739
     18          6           0        2.640104    0.310582   -0.130935
     19          6           0        3.733409    0.264507    0.732691
     20          6           0        4.071056   -0.965260    1.305592
     21          1           0        3.595763   -3.064155    1.463892
     22          1           0        1.654394   -2.924116   -0.084304
     23          1           0        1.038139   -0.726089   -1.118225
     24          1           0        4.292666    1.168576    0.940794
     25          1           0        4.919538   -1.023270    1.981431
     26          7           0        2.273020    1.606874   -0.743534
     27          8           0        2.959915    2.584230   -0.454422
     28          8           0        1.305354    1.621005   -1.501202
 ---------------------------------------------------------------------

 SCF Done:  E(RHF) =  -868.341353912     A.U. after   16 cycles
 E2 =    -0.2599492599D+01 EUMP2 =    -0.87094084651155D+03

 The electronic state is 1-A.
 Alpha  occ. eigenvalues --  -20.61024 -20.61010 -20.60910 -20.60889 -15.86020
 Alpha  occ. eigenvalues --  -15.85936 -11.31006 -11.30974 -11.27594 -11.27578
 Alpha  occ. eigenvalues --  -11.27430 -11.27374 -11.27252 -11.27200 -11.26563
 Alpha  occ. eigenvalues --  -11.26513 -11.26406 -11.26314  -1.60089  -1.59970
 Alpha  occ. eigenvalues --   -1.39647  -1.39532  -1.19157  -1.19125  -1.08614
 Alpha  occ. eigenvalues --   -1.08608  -1.04502  -1.04436  -0.95515  -0.95476
 Alpha  occ. eigenvalues --   -0.85921  -0.85868  -0.82361  -0.82297  -0.77472
 Alpha  occ. eigenvalues --   -0.77341  -0.72258  -0.72166  -0.71415  -0.71276
 Alpha  occ. eigenvalues --   -0.70259  -0.70214  -0.64813  -0.64768  -0.64493
 Alpha  occ. eigenvalues --   -0.64418  -0.61847  -0.61747  -0.55035  -0.54989
 Alpha  occ. eigenvalues --   -0.52878  -0.52825  -0.52576  -0.52504  -0.49025
 Alpha  occ. eigenvalues --   -0.48971  -0.48923  -0.48897  -0.45128  -0.44999
 Alpha  occ. eigenvalues --   -0.37161  -0.37111  -0.36105  -0.35999
 Alpha virt. eigenvalues --    0.04964   0.05140   0.11432   0.11703   0.16509
 Alpha virt. eigenvalues --    0.16707   0.21495   0.22002   0.27188   0.27823
 Alpha virt. eigenvalues --    0.28215   0.29069   0.31045   0.31488   0.32096

 Mulliken charges:
               1
     1  C   -0.170696
     2  C   -0.219507
     3  C   -0.172167
     4  C    0.152722
     5  C   -0.168289
     6  C   -0.218691
     7  H    0.226103
     8  H    0.221674
     9  H    0.272367
    10  H    0.286044
    11  H    0.232379
    12  N    0.486366
    13  O   -0.463257
    14  O   -0.461945
    15  C   -0.170603
    16  C   -0.221551
    17  C   -0.177941
    18  C    0.157634
    19  C   -0.171752
    20  C   -0.219235
    21  H    0.226058
    22  H    0.233106
    23  H    0.285057
    24  H    0.273383
    25  H    0.222143
    26  N    0.489576
    27  O   -0.461380
    28  O   -0.467596
 Sum of Mulliken charges =  -0.00000

 Dipole moment (field-independent basis, Debye):
    X=              0.4640    Y=             -0.0516    Z=              4.7105  Tot=              4.7336
 Quadrupole moment (field-independent basis, Debye-Ang):
   XX=            -91.5287   YY=           -108.5531   ZZ=           -102.8625
   XY=            -21.1457   XZ=             -0.8234   YZ=             -1.0646

 Normal termination of Gaussian 16 at Thu May  6 00:24:47 2021.
