 Gaussian 16, Revision A.03,
 Gaussian 16:  EM64L-G16RevA.03 25-Dec-2016

 -------------
 #p 6-31g* mp2
 -------------

 ------------------------------------------------------
 Input file generated by CHIRIPA (05-May-2021 14:57:26)
 ------------------------------------------------------
 Symbolic Z-matrix:
 Charge =  0 Multiplicity = 1

                         Standard orientation:
 ---------------------------------------------------------------------
 Center     Atomic      Atomic             Coordinates (Angstroms)
 Number     Number       Type             X           Y           Z
 ---------------------------------------------------------------------
      1          6           0       -1.240373   -1.571392   -0.970859
      2          6           0       -1.100138   -0.265502   -0.489709
      3          6           0       -2.209603    0.437855   -0.011249
      4          6           0       -3.450003   -0.198067   -0.028626
      5          6           0       -3.621922   -1.498069   -0.501625
      6          6           0       -2.498599   -2.182431   -0.975274
      7          1           0       -0.373131   -2.110399   -1.340669
      8          1           0       -0.124204    0.211548   -0.485080
      9          1           0       -2.129450    1.449792    0.366873
     10          1           0       -4.607648   -1.947176   -0.493592
     11          1           0       -2.610486   -3.196501   -1.348351
     12          7           0       -4.631879    0.536491    0.475352
     13          8           0       -5.713810   -0.046079    0.449364
     14          8           0       -4.453924    1.680898    0.886814
     15          6           0        2.071389    2.385470   -0.721814
     16          6           0        1.822596    1.909120    0.569587
     17          6           0        2.472816    0.765154    1.041922
     18          6           0        3.369663    0.119365    0.192267
     19          6           0        3.638721    0.569366   -1.099397
     20          6           0        2.977061    1.715253   -1.550723
     21          1           0        1.561838    3.274876   -1.080575
     22          1           0        1.119748    2.427586    1.215528
     23          1           0        2.298898    0.374674    2.037259
     24          1           0        4.344712    0.031126   -1.720117
     25          1           0        3.172235    2.082918   -2.554105
     26          7           0        4.064078   -1.092718    0.681186
     27          8           0        4.849679   -1.643587   -0.086937
     28          8           0        3.809611   -1.468930    1.823267
 ---------------------------------------------------------------------

 SCF Done:  E(RHF) =  -868.337514177     A.U. after   16 cycles
 E2 =    -0.2601537069D+01 EUMP2 =    -0.87093905124613D+03

 The electronic state is 1-A.
 Alpha  occ. eigenvalues --  -20.61653 -20.61645 -20.60981 -20.60963 -15.86711
 Alpha  occ. eigenvalues --  -15.86024 -11.32255 -11.31346 -11.28824 -11.28818
 Alpha  occ. eigenvalues --  -11.28570 -11.27923 -11.27859 -11.27845 -11.27823
 Alpha  occ. eigenvalues --  -11.27541 -11.26858 -11.26724  -1.60729  -1.60050
 Alpha  occ. eigenvalues --   -1.40274  -1.39606  -1.20468  -1.19482  -1.09808
 Alpha  occ. eigenvalues --   -1.08873  -1.05869  -1.04874  -0.96597  -0.95730
 Alpha  occ. eigenvalues --   -0.87229  -0.86270  -0.83408  -0.82566  -0.78437
 Alpha  occ. eigenvalues --   -0.77640  -0.72914  -0.72243  -0.72068  -0.71481
 Alpha  occ. eigenvalues --   -0.71372  -0.70586  -0.66069  -0.65806  -0.65124
 Alpha  occ. eigenvalues --   -0.64901  -0.63160  -0.62276  -0.56295  -0.55392
 Alpha  occ. eigenvalues --   -0.54358  -0.53894  -0.53209  -0.52725  -0.49692
 Alpha  occ. eigenvalues --   -0.49664  -0.49008  -0.48986  -0.45637  -0.45023
 Alpha  occ. eigenvalues --   -0.38460  -0.37563  -0.37372  -0.36455
 Alpha virt. eigenvalues --    0.04061   0.04898   0.10072   0.11176   0.15484
 Alpha virt. eigenvalues --    0.16459   0.20157   0.21653   0.25701   0.27391
 Alpha virt. eigenvalues --    0.27829   0.28319   0.30175   0.31287   0.31568

 Mulliken charges:
               1
     1  C   -0.173279
     2  C   -0.227040
     3  C   -0.176970
     4  C    0.159623
     5  C   -0.171729
     6  C   -0.217702
     7  H    0.228294
     8  H    0.237332
     9  H    0.267271
    10  H    0.275917
    11  H    0.224835
    12  N    0.488244
    13  O   -0.459158
    14  O   -0.463199
    15  C   -0.173571
    16  C   -0.234421
    17  C   -0.172193
    18  C    0.157235
    19  C   -0.172449
    20  C   -0.218337
    21  H    0.231760
    22  H    0.229536
    23  H    0.280871
    24  H    0.278731
    25  H    0.228266
    26  N    0.487590
    27  O   -0.458456
    28  O   -0.457000
 Sum of Mulliken charges =  -0.00000

 Dipole moment (field-independent basis, Debye):
    X=              2.0372    Y=              1.6538    Z=             -3.5249  Tot=              4.3943
 Quadrupole moment (field-independent basis, Debye-Ang):
   XX=           -147.7602   YY=           -100.0884   ZZ=           -102.0399
   XY=             25.1252   XZ=             -2.0084   YZ=              2.2968

 Normal termination of Gaussian 16 at Wed May  5 19:33:36 2021.
