 Gaussian 16, Revision A.03,
 Gaussian 16:  EM64L-G16RevA.03 25-Dec-2016

 -------------
 #p 6-31g* mp2
 -------------

 ------------------------------------------------------
 Input file generated by CHIRIPA (05-May-2021 14:57:22)
 ------------------------------------------------------
 Symbolic Z-matrix:
 Charge =  0 Multiplicity = 1

                         Standard orientation:
 ---------------------------------------------------------------------
 Center     Atomic      Atomic             Coordinates (Angstroms)
 Number     Number       Type             X           Y           Z
 ---------------------------------------------------------------------
      1          6           0       -1.263569   -1.255408   -0.166329
      2          6           0       -1.401549   -0.068065    0.560100
      3          6           0       -2.654672    0.534969    0.703567
      4          6           0       -3.753467   -0.079301    0.104726
      5          6           0       -3.648257   -1.262285   -0.625185
      6          6           0       -2.385386   -1.847684   -0.755614
      7          1           0       -0.286327   -1.717009   -0.272713
      8          1           0       -0.532080    0.394140    1.018831
      9          1           0       -2.789959    1.454166    1.260516
     10          1           0       -4.533405   -1.699478   -1.071047
     11          1           0       -2.281213   -2.769791   -1.320338
     12          7           0       -5.085252    0.549769    0.249707
     13          8           0       -6.037743   -0.011291   -0.287517
     14          8           0       -5.151397    1.591983    0.897822
     15          6           0        4.078436   -2.209196    0.508217
     16          6           0        2.922136   -1.913700   -0.221284
     17          6           0        2.610496   -0.591879   -0.553278
     18          6           0        3.481336    0.414247   -0.137779
     19          6           0        4.640908    0.151790    0.590095
     20          6           0        4.932626   -1.177328    0.910869
     21          1           0        4.312787   -3.238852    0.761759
     22          1           0        2.256930   -2.713032   -0.535314
     23          1           0        1.721964   -0.334920   -1.117104
     24          1           0        5.284731    0.969996    0.889174
     25          1           0        5.831319   -1.403859    1.477507
     26          7           0        3.161962    1.817461   -0.483306
     27          8           0        3.945457    2.685798   -0.105464
     28          8           0        2.134190    2.022394   -1.125431
 ---------------------------------------------------------------------

 SCF Done:  E(RHF) =  -868.336711027     A.U. after   16 cycles
 E2 =    -0.2601067073D+01 EUMP2 =    -0.87093777809952D+03

 The electronic state is 1-A.
 Alpha  occ. eigenvalues --  -20.61618 -20.61601 -20.60741 -20.60730 -15.86668
 Alpha  occ. eigenvalues --  -15.85791 -11.32181 -11.31243 -11.28824 -11.28705
 Alpha  occ. eigenvalues --  -11.28488 -11.27892 -11.27816 -11.27744 -11.27716
 Alpha  occ. eigenvalues --  -11.27684 -11.26936 -11.26827  -1.60688  -1.59810
 Alpha  occ. eigenvalues --   -1.40236  -1.39361  -1.20366  -1.19421  -1.09716
 Alpha  occ. eigenvalues --   -1.08839  -1.05806  -1.04818  -0.96531  -0.95658
 Alpha  occ. eigenvalues --   -0.87177  -0.86233  -0.83381  -0.82467  -0.78414
 Alpha  occ. eigenvalues --   -0.77471  -0.72875  -0.72027  -0.72009  -0.71487
 Alpha  occ. eigenvalues --   -0.71130  -0.70602  -0.66011  -0.65804  -0.65086
 Alpha  occ. eigenvalues --   -0.64842  -0.63136  -0.62149  -0.56258  -0.55439
 Alpha  occ. eigenvalues --   -0.54080  -0.53897  -0.53143  -0.52918  -0.49647
 Alpha  occ. eigenvalues --   -0.49626  -0.48778  -0.48758  -0.45607  -0.44746
 Alpha  occ. eigenvalues --   -0.38318  -0.37470  -0.37394  -0.36390
 Alpha virt. eigenvalues --    0.04099   0.05011   0.10178   0.11221   0.15454
 Alpha virt. eigenvalues --    0.16405   0.18963   0.22025   0.25054   0.26886
 Alpha virt. eigenvalues --    0.27432   0.29188   0.29816   0.31383   0.32578

 Mulliken charges:
               1
     1  C   -0.175939
     2  C   -0.215618
     3  C   -0.169348
     4  C    0.159456
     5  C   -0.170755
     6  C   -0.218467
     7  H    0.216041
     8  H    0.228236
     9  H    0.278766
    10  H    0.275794
    11  H    0.221026
    12  N    0.487909
    13  O   -0.460573
    14  O   -0.458342
    15  C   -0.169864
    16  C   -0.221368
    17  C   -0.179351
    18  C    0.157759
    19  C   -0.169481
    20  C   -0.217876
    21  H    0.228983
    22  H    0.219293
    23  H    0.275983
    24  H    0.279046
    25  H    0.227571
    26  N    0.487446
    27  O   -0.456245
    28  O   -0.460079
 Sum of Mulliken charges =  -0.00000

 Dipole moment (field-independent basis, Debye):
    X=              6.0132    Y=             -6.9589    Z=              0.8254  Tot=              9.2339
 Quadrupole moment (field-independent basis, Debye-Ang):
   XX=           -126.7795   YY=           -106.2666   ZZ=           -103.9183
   XY=             -6.0033   XZ=             10.2766   YZ=              4.0502

 Normal termination of Gaussian 16 at Wed May  5 19:22:41 2021.
