 Gaussian 16, Revision A.03,
 Gaussian 16:  EM64L-G16RevA.03 25-Dec-2016

 -------------
 #p 6-31g* mp2
 -------------

 ------------------------------------------------------
 Input file generated by CHIRIPA (05-May-2021 14:51:09)
 ------------------------------------------------------
 Symbolic Z-matrix:
 Charge =  0 Multiplicity = 1

                         Standard orientation:
 ---------------------------------------------------------------------
 Center     Atomic      Atomic             Coordinates (Angstroms)
 Number     Number       Type             X           Y           Z
 ---------------------------------------------------------------------
      1          6           0       -3.033373   -0.514451   -0.016212
      2          6           0       -2.249747   -1.026943    1.192617
      3          6           0       -1.059921   -1.902343    0.797926
      4          1           0       -3.386464   -1.371209   -0.606329
      5          1           0       -2.357140    0.056327   -0.667608
      6          1           0       -2.927572   -1.595417    1.842238
      7          1           0       -1.898644   -0.168869    1.780029
      8          1           0       -0.361315   -1.341816    0.168355
      9          1           0       -1.396089   -2.776468    0.230918
     10          1           0       -0.513868   -2.257848    1.677302
     11          6           0       -4.225879    0.362172    0.362190
     12          6           0       -5.009505    0.874663   -0.846639
     13          6           0       -6.199331    1.750064   -0.451947
     14          1           0       -4.902112   -0.208607    1.013586
     15          1           0       -3.872788    1.218929    0.952307
     16          1           0       -5.360608    0.016590   -1.434050
     17          1           0       -4.331680    1.443137   -1.496260
     18          1           0       -5.863163    2.624188    0.115060
     19          1           0       -6.897937    1.189536    0.177623
     20          1           0       -6.745384    2.105568   -1.331324
     21          6           0        3.809201    0.648349    0.300046
     22          6           0        4.398662    1.864298   -0.415488
     23          6           0        4.752850    3.000689    0.544181
     24          1           0        2.911423    0.956098    0.853426
     25          1           0        4.528795    0.287181    1.047801
     26          1           0        3.678742    2.222223   -1.162629
     27          1           0        5.295033    1.553580   -0.967385
     28          1           0        5.489019    2.666244    1.282288
     29          1           0        3.863545    3.338686    1.085934
     30          1           0        5.172584    3.859784    0.011602
     31          6           0        3.450051   -0.496069   -0.646023
     32          6           0        2.860590   -1.712018    0.069509
     33          6           0        2.506402   -2.848409   -0.890158
     34          1           0        2.730457   -0.134901   -1.393779
     35          1           0        4.347829   -0.803818   -1.199404
     36          1           0        1.964219   -1.401300    0.621406
     37          1           0        3.580510   -2.069943    0.816650
     38          1           0        3.395706   -3.186406   -1.431911
     39          1           0        1.770233   -2.513964   -1.628267
     40          1           0        2.086668   -3.707504   -0.357581
 ---------------------------------------------------------------------

 SCF Done:  E(RHF) =  -470.732894558     A.U. after   11 cycles
 E2 =    -0.1582892748D+01 EUMP2 =    -0.47231578730563D+03

 The electronic state is 1-A.
 Alpha  occ. eigenvalues --  -11.21639 -11.21628 -11.21591 -11.21458 -11.21442
 Alpha  occ. eigenvalues --  -11.21382 -11.21373 -11.21308 -11.21096 -11.21092
 Alpha  occ. eigenvalues --  -11.21068 -11.20974  -1.08469  -1.08386  -1.03583
 Alpha  occ. eigenvalues --   -1.03462  -0.96040  -0.95910  -0.87038  -0.86947
 Alpha  occ. eigenvalues --   -0.79664  -0.79512  -0.78286  -0.78192  -0.65153
 Alpha  occ. eigenvalues --   -0.64987  -0.61128  -0.60750  -0.59419  -0.59265
 Alpha  occ. eigenvalues --   -0.57622  -0.57541  -0.55404  -0.55135  -0.52724
 Alpha  occ. eigenvalues --   -0.52603  -0.52423  -0.52354  -0.50033  -0.49830
 Alpha  occ. eigenvalues --   -0.47965  -0.47831  -0.46793  -0.46448  -0.45849
 Alpha  occ. eigenvalues --   -0.45777  -0.45710  -0.45563  -0.43807  -0.43731
 Alpha virt. eigenvalues --    0.21401   0.23044   0.23690   0.24814   0.26391
 Alpha virt. eigenvalues --    0.26710   0.27180   0.27589   0.27806   0.29096
 Alpha virt. eigenvalues --    0.30384   0.31242   0.31611   0.31934   0.32378

 Mulliken charges:
               1
     1  C   -0.298523
     2  C   -0.300186
     3  C   -0.478968
     4  H    0.149888
     5  H    0.149223
     6  H    0.152155
     7  H    0.151702
     8  H    0.159037
     9  H    0.155924
    10  H    0.160929
    11  C   -0.298295
    12  C   -0.299671
    13  C   -0.475727
    14  H    0.149695
    15  H    0.149622
    16  H    0.152036
    17  H    0.151851
    18  H    0.155193
    19  H    0.155255
    20  H    0.160344
    21  C   -0.298039
    22  C   -0.299561
    23  C   -0.475656
    24  H    0.149032
    25  H    0.149613
    26  H    0.151635
    27  H    0.152028
    28  H    0.155227
    29  H    0.154960
    30  H    0.160189
    31  C   -0.298360
    32  C   -0.306466
    33  C   -0.474912
    34  H    0.148432
    35  H    0.149581
    36  H    0.159419
    37  H    0.151247
    38  H    0.154367
    39  H    0.154897
    40  H    0.160882
 Sum of Mulliken charges =  -0.00000

 Dipole moment (field-independent basis, Debye):
    X=             -0.0416    Y=             -0.0209    Z=              0.0137  Tot=              0.0486
 Quadrupole moment (field-independent basis, Debye-Ang):
   XX=            -84.5369   YY=            -85.1760   ZZ=            -85.1479
   XY=              0.4708   XZ=              0.0597   YZ=             -0.6960

 Normal termination of Gaussian 16 at Thu May  6 00:34:55 2021.
