 Gaussian 16, Revision A.03,
 Gaussian 16:  EM64L-G16RevA.03 25-Dec-2016

 -------------
 #p 6-31g* mp2
 -------------

 ------------------------------------------------------
 Input file generated by CHIRIPA (05-May-2021 14:55:23)
 ------------------------------------------------------
 Symbolic Z-matrix:
 Charge =  0 Multiplicity = 1

                         Standard orientation:
 ---------------------------------------------------------------------
 Center     Atomic      Atomic             Coordinates (Angstroms)
 Number     Number       Type             X           Y           Z
 ---------------------------------------------------------------------
      1          6           0       -2.957869   -2.325171    0.494801
      2          6           0       -3.976214   -1.845093   -0.335271
      3          6           0       -4.140506   -0.471256   -0.535588
      4          6           0       -3.264593    0.398101    0.112706
      5          6           0       -2.240362   -0.049397    0.945764
      6          6           0       -2.094715   -1.427373    1.131547
      7          1           0       -2.837485   -3.394009    0.644766
      8          1           0       -4.648025   -2.540009   -0.831061
      9          1           0       -4.920378   -0.072405   -1.172875
     10          1           0       -1.586194    0.667832    1.426457
     11          1           0       -1.302964   -1.797358    1.776750
     12          7           0       -3.428652    1.854713   -0.091668
     13          8           0       -2.643864    2.599932    0.490908
     14          8           0       -4.338922    2.223605   -0.830561
     15          6           0        4.859861   -0.076356   -0.422358
     16          6           0        5.698436    0.712549    0.583826
     17          6           0        7.128005    0.956508    0.099459
     18          1           0        5.349687   -1.038947   -0.623437
     19          1           0        4.836809    0.467982   -1.376590
     20          1           0        5.718754    0.167567    1.536295
     21          1           0        5.206458    1.673294    0.782679
     22          1           0        7.125855    1.520615   -0.838826
     23          1           0        7.641062    0.006333   -0.080928
     24          1           0        7.709753    1.522078    0.834007
     25          6           0        3.428277   -0.328212    0.047602
     26          6           0        2.589701   -1.117117   -0.958582
     27          6           0        1.160133   -1.361076   -0.474215
     28          1           0        3.451329   -0.872550    1.001835
     29          1           0        2.938451    0.634379    0.248681
     30          1           0        3.081680   -2.077862   -1.157435
     31          1           0        2.569383   -0.572135   -1.911051
     32          1           0        0.647076   -0.410901   -0.293828
     33          1           0        1.162283   -1.925183    0.464071
     34          1           0        0.578385   -1.926646   -1.208762
 ---------------------------------------------------------------------

 SCF Done:  E(RHF) =  -669.535250722     A.U. after   15 cycles
 E2 =    -0.2091847038D+01 EUMP2 =    -0.67162709776020D+03

 The electronic state is 1-A.
 Alpha  occ. eigenvalues --  -20.60756 -20.60750 -15.85808 -11.31160 -11.27711
 Alpha  occ. eigenvalues --  -11.27706 -11.27448 -11.26742 -11.26713 -11.21891
 Alpha  occ. eigenvalues --  -11.21718 -11.21638 -11.21536 -11.21531 -11.21152
 Alpha  occ. eigenvalues --   -1.59831  -1.39385  -1.19327  -1.08726  -1.08646
 Alpha  occ. eigenvalues --   -1.04731  -1.03762  -0.96229  -0.95562  -0.87257
 Alpha  occ. eigenvalues --   -0.86122  -0.82395  -0.79837  -0.78456  -0.77439
 Alpha  occ. eigenvalues --   -0.72027  -0.71154  -0.70434  -0.65279  -0.64979
 Alpha  occ. eigenvalues --   -0.64730  -0.62083  -0.61160  -0.59593  -0.57835
 Alpha  occ. eigenvalues --   -0.55534  -0.55227  -0.53300  -0.52845  -0.52804
 Alpha  occ. eigenvalues --   -0.52508  -0.50168  -0.48784  -0.48783  -0.48150
 Alpha  occ. eigenvalues --   -0.46857  -0.46002  -0.45912  -0.44793  -0.44012
 Alpha  occ. eigenvalues --   -0.37299  -0.36262
 Alpha virt. eigenvalues --    0.05071   0.11257   0.16542   0.20852   0.22731
 Alpha virt. eigenvalues --    0.24040   0.25916   0.26374   0.27436   0.28068
 Alpha virt. eigenvalues --    0.29003   0.29628   0.31422   0.31714   0.32217

 Mulliken charges:
               1
     1  C   -0.172823
     2  C   -0.218340
     3  C   -0.171485
     4  C    0.158112
     5  C   -0.172177
     6  C   -0.211101
     7  H    0.225425
     8  H    0.223210
     9  H    0.275330
    10  H    0.275179
    11  H    0.224884
    12  N    0.488117
    13  O   -0.460869
    14  O   -0.460424
    15  C   -0.298411
    16  C   -0.300038
    17  C   -0.475883
    18  H    0.149219
    19  H    0.151235
    20  H    0.151006
    21  H    0.153630
    22  H    0.156116
    23  H    0.154762
    24  H    0.160892
    25  C   -0.299056
    26  C   -0.300882
    27  C   -0.475302
    28  H    0.146803
    29  H    0.151875
    30  H    0.151279
    31  H    0.155188
    32  H    0.158187
    33  H    0.144749
    34  H    0.161594
 Sum of Mulliken charges =  -0.00000

 Dipole moment (field-independent basis, Debye):
    X=              0.6097    Y=             -5.1110    Z=              0.6826  Tot=              5.1923
 Quadrupole moment (field-independent basis, Debye-Ang):
   XX=            -96.7702   YY=            -98.7253   ZZ=            -93.1452
   XY=             17.6434   XZ=              0.6614   YZ=             -0.0314

 Normal termination of Gaussian 16 at Thu May  6 12:37:43 2021.
