 Gaussian 16, Revision A.03,
 Gaussian 16:  EM64L-G16RevA.03 25-Dec-2016

 -------------
 #p 6-31g* mp2
 -------------

 ------------------------------------------------------
 Input file generated by CHIRIPA (05-May-2021 14:55:24)
 ------------------------------------------------------
 Symbolic Z-matrix:
 Charge =  0 Multiplicity = 1

                         Standard orientation:
 ---------------------------------------------------------------------
 Center     Atomic      Atomic             Coordinates (Angstroms)
 Number     Number       Type             X           Y           Z
 ---------------------------------------------------------------------
      1          6           0       -1.692467   -1.980020   -1.477729
      2          6           0       -2.988648   -1.969628   -0.952060
      3          6           0       -3.497539   -0.820124   -0.340325
      4          6           0       -2.679167    0.306281   -0.271273
      5          6           0       -1.383670    0.327131   -0.785610
      6          6           0       -0.895520   -0.833629   -1.392976
      7          1           0       -1.305204   -2.877355   -1.951242
      8          1           0       -3.609819   -2.858471   -1.016457
      9          1           0       -4.497399   -0.784544    0.074925
     10          1           0       -0.788189    1.228547   -0.706418
     11          1           0        0.111489   -0.838814   -1.800348
     12          7           0       -3.206928    1.529168    0.374031
     13          8           0       -2.465903    2.508554    0.422204
     14          8           0       -4.351620    1.485124    0.819428
     15          6           0        3.117796   -0.464044    1.142499
     16          6           0        1.636727   -0.838401    1.207909
     17          6           0        1.251546   -1.497584    2.532638
     18          1           0        3.724758   -1.367063    1.294485
     19          1           0        3.354233    0.214993    1.973402
     20          1           0        1.402842   -1.515435    0.376321
     21          1           0        1.033220    0.065582    1.055561
     22          1           0        1.456747   -0.824888    3.371670
     23          1           0        1.828469   -2.414887    2.688571
     24          1           0        0.188551   -1.756939    2.557871
     25          6           0        3.518199    0.195924   -0.175775
     26          6           0        4.999267    0.570280   -0.241185
     27          6           0        5.384448    1.229463   -1.565914
     28          1           0        3.281761   -0.483115   -1.006678
     29          1           0        2.911236    1.098942   -0.327759
     30          1           0        5.602774   -0.333703   -0.088835
     31          1           0        5.233152    1.247314    0.590403
     32          1           0        4.807525    2.146767   -1.721847
     33          1           0        5.179247    0.556766   -2.404945
     34          1           0        6.447443    1.488818   -1.591147
 ---------------------------------------------------------------------

 SCF Done:  E(RHF) =  -669.534536924     A.U. after   15 cycles
 E2 =    -0.2093180400D+01 EUMP2 =    -0.67162771732489D+03

 The electronic state is 1-A.
 Alpha  occ. eigenvalues --  -20.60769 -20.60763 -15.85821 -11.31179 -11.27720
 Alpha  occ. eigenvalues --  -11.27715 -11.27464 -11.26758 -11.26720 -11.22042
 Alpha  occ. eigenvalues --  -11.22004 -11.21973 -11.21783 -11.21457 -11.21344
 Alpha  occ. eigenvalues --   -1.59844  -1.39397  -1.19345  -1.08905  -1.08739
 Alpha  occ. eigenvalues --   -1.04752  -1.03923  -0.96375  -0.95579  -0.87391
 Alpha  occ. eigenvalues --   -0.86146  -0.82420  -0.80020  -0.78769  -0.77434
 Alpha  occ. eigenvalues --   -0.72039  -0.71166  -0.70453  -0.65555  -0.64993
 Alpha  occ. eigenvalues --   -0.64733  -0.62103  -0.61320  -0.59751  -0.58007
 Alpha  occ. eigenvalues --   -0.55661  -0.55247  -0.53173  -0.52971  -0.52844
 Alpha  occ. eigenvalues --   -0.52785  -0.50315  -0.48799  -0.48796  -0.48315
 Alpha  occ. eigenvalues --   -0.47046  -0.46266  -0.46201  -0.44803  -0.44205
 Alpha  occ. eigenvalues --   -0.37316  -0.36245
 Alpha virt. eigenvalues --    0.05057   0.11186   0.16543   0.20068   0.22803
 Alpha virt. eigenvalues --    0.24001   0.24901   0.25231   0.27506   0.28404
 Alpha virt. eigenvalues --    0.29791   0.30676   0.31246   0.31611   0.31959

 Mulliken charges:
               1
     1  C   -0.173407
     2  C   -0.218079
     3  C   -0.171856
     4  C    0.157626
     5  C   -0.170798
     6  C   -0.212762
     7  H    0.225261
     8  H    0.223297
     9  H    0.275371
    10  H    0.274872
    11  H    0.225838
    12  N    0.488187
    13  O   -0.460855
    14  O   -0.460303
    15  C   -0.298228
    16  C   -0.300636
    17  C   -0.476349
    18  H    0.149956
    19  H    0.153393
    20  H    0.145258
    21  H    0.153282
    22  H    0.158696
    23  H    0.154074
    24  H    0.162508
    25  C   -0.299206
    26  C   -0.299656
    27  C   -0.476274
    28  H    0.142236
    29  H    0.148450
    30  H    0.152816
    31  H    0.155191
    32  H    0.156379
    33  H    0.153293
    34  H    0.162426
 Sum of Mulliken charges =  -0.00000

 Dipole moment (field-independent basis, Debye):
    X=              1.9271    Y=             -4.2835    Z=             -2.1931  Tot=              5.1838
 Quadrupole moment (field-independent basis, Debye-Ang):
   XX=           -101.0469   YY=            -96.2694   ZZ=            -94.6580
   XY=             14.3628   XZ=              5.1892   YZ=              0.8407

 Normal termination of Gaussian 16 at Wed May  5 17:37:34 2021.
