 Gaussian 16, Revision A.03,
 Gaussian 16:  EM64L-G16RevA.03 25-Dec-2016

 -------------
 #p 6-31g* mp2
 -------------

 ------------------------------------------------------
 Input file generated by CHIRIPA (05-May-2021 14:57:27)
 ------------------------------------------------------
 Symbolic Z-matrix:
 Charge =  0 Multiplicity = 1

                         Standard orientation:
 ---------------------------------------------------------------------
 Center     Atomic      Atomic             Coordinates (Angstroms)
 Number     Number       Type             X           Y           Z
 ---------------------------------------------------------------------
      1          6           0       -3.822520    2.526327   -0.147498
      2          6           0       -2.643683    1.852079    0.187545
      3          6           0       -2.603778    0.454645    0.199104
      4          6           0       -3.766380   -0.240055   -0.131110
      5          6           0       -4.956128    0.402947   -0.469248
      6          6           0       -4.972952    1.800888   -0.474249
      7          1           0       -3.844555    3.612085   -0.153930
      8          1           0       -1.748726    2.412868    0.441736
      9          1           0       -1.704613   -0.092720    0.454665
     10          1           0       -5.832285   -0.183434   -0.718093
     11          1           0       -5.889862    2.321858   -0.734848
     12          7           0       -3.736351   -1.719724   -0.122344
     13          8           0       -4.774096   -2.308656   -0.417100
     14          8           0       -2.675639   -2.262539    0.179116
     15          6           0        1.510424   -0.072875    1.250351
     16          6           0        2.146546   -1.263348    0.883410
     17          6           0        3.399366   -1.237069    0.263494
     18          6           0        3.989904    0.002864    0.024490
     19          6           0        3.381475    1.206172    0.378259
     20          6           0        2.128830    1.155919    0.997049
     21          1           0        0.537271   -0.102601    1.731480
     22          1           0        1.668651   -2.219094    1.078891
     23          1           0        3.914201   -2.143507   -0.031010
     24          1           0        3.882806    2.143651    0.170368
     25          1           0        1.637154    2.082049    1.280926
     26          7           0        5.316117    0.043375   -0.631192
     27          8           0        5.815323    1.148637   -0.830758
     28          8           0        5.831284   -1.030902   -0.933136
 ---------------------------------------------------------------------

 SCF Done:  E(RHF) =  -868.337456391     A.U. after   16 cycles
 E2 =    -0.2599846209D+01 EUMP2 =    -0.87093730259940D+03

 The electronic state is 1-A.
 Alpha  occ. eigenvalues --  -20.61511 -20.61477 -20.60924 -20.60912 -15.86552
 Alpha  occ. eigenvalues --  -15.85974 -11.31927 -11.31423 -11.28580 -11.28444
 Alpha  occ. eigenvalues --  -11.28210 -11.28022 -11.27911 -11.27812 -11.27574
 Alpha  occ. eigenvalues --  -11.27449 -11.27155 -11.26933  -1.60566  -1.59993
 Alpha  occ. eigenvalues --   -1.40123  -1.39544  -1.20095  -1.19597  -1.09479
 Alpha  occ. eigenvalues --   -1.08999  -1.05515  -1.04998  -0.96320  -0.95819
 Alpha  occ. eigenvalues --   -0.86908  -0.86402  -0.83164  -0.82637  -0.78221
 Alpha  occ. eigenvalues --   -0.77654  -0.72776  -0.72192  -0.71885  -0.71315
 Alpha  occ. eigenvalues --   -0.71259  -0.70711  -0.65754  -0.65526  -0.65255
 Alpha  occ. eigenvalues --   -0.65005  -0.62881  -0.62330  -0.56019  -0.55546
 Alpha  occ. eigenvalues --   -0.53818  -0.53607  -0.53320  -0.53088  -0.49538
 Alpha  occ. eigenvalues --   -0.49515  -0.48957  -0.48941  -0.45527  -0.44931
 Alpha  occ. eigenvalues --   -0.38050  -0.37617  -0.37109  -0.36584
 Alpha virt. eigenvalues --    0.04335   0.04819   0.10539   0.11031   0.15835
 Alpha virt. eigenvalues --    0.16119   0.18555   0.22152   0.25286   0.25457
 Alpha virt. eigenvalues --    0.27801   0.29377   0.30421   0.31094   0.32866

 Mulliken charges:
               1
     1  C   -0.169979
     2  C   -0.218098
     3  C   -0.174802
     4  C    0.160022
     5  C   -0.169423
     6  C   -0.218175
     7  H    0.227819
     8  H    0.218180
     9  H    0.271429
    10  H    0.277845
    11  H    0.226335
    12  N    0.488200
    13  O   -0.456508
    14  O   -0.464796
    15  C   -0.176523
    16  C   -0.216997
    17  C   -0.170570
    18  C    0.159700
    19  C   -0.170827
    20  C   -0.219384
    21  H    0.223108
    22  H    0.233772
    23  H    0.278335
    24  H    0.275359
    25  H    0.216973
    26  N    0.487939
    27  O   -0.460651
    28  O   -0.458283
 Sum of Mulliken charges =  -0.00000

 Dipole moment (field-independent basis, Debye):
    X=             -4.8644    Y=              4.9444    Z=              2.1793  Tot=              7.2704
 Quadrupole moment (field-independent basis, Debye-Ang):
   XX=           -135.7201   YY=           -102.6004   ZZ=           -106.0222
   XY=            -20.8850   XZ=             11.0173   YZ=             -0.5485

 Normal termination of Gaussian 16 at Wed May  5 22:52:15 2021.
