 Gaussian 16, Revision A.03,
 Gaussian 16:  EM64L-G16RevA.03 25-Dec-2016

 -------------
 #p 6-31g* mp2
 -------------

 ------------------------------------------------------
 Input file generated by CHIRIPA (05-May-2021 14:51:14)
 ------------------------------------------------------
 Symbolic Z-matrix:
 Charge =  0 Multiplicity = 1

                         Standard orientation:
 ---------------------------------------------------------------------
 Center     Atomic      Atomic             Coordinates (Angstroms)
 Number     Number       Type             X           Y           Z
 ---------------------------------------------------------------------
      1          6           0        3.096982    0.981213    0.422502
      2          6           0        2.896208    2.206686   -0.469624
      3          6           0        2.110592    3.320243    0.223625
      4          1           0        2.115837    0.599183    0.736114
      5          1           0        3.621436    1.285431    1.338905
      6          1           0        2.373516    1.899996   -1.384692
      7          1           0        3.877940    2.585729   -0.781304
      8          1           0        2.631405    3.654356    1.126799
      9          1           0        1.118432    2.964727    0.519983
     10          1           0        1.978670    4.186594   -0.432037
     11          6           0        3.880664   -0.140606   -0.256535
     12          6           0        4.081438   -1.366080    0.635592
     13          6           0        4.867054   -2.479636   -0.057657
     14          1           0        3.356211   -0.444824   -1.172938
     15          1           0        4.861810    0.241423   -0.570146
     16          1           0        3.099706   -1.745122    0.947272
     17          1           0        4.604131   -1.059389    1.550660
     18          1           0        5.859214   -2.124120   -0.354015
     19          1           0        4.346242   -2.813749   -0.960831
     20          1           0        4.998977   -3.345987    0.598005
     21          6           0       -2.793616   -0.248497   -0.348693
     22          6           0       -1.736889   -1.299276   -0.006377
     23          6           0       -0.351281   -0.941425   -0.544734
     24          1           0       -2.842296   -0.128522   -1.439647
     25          1           0       -2.480445    0.722682    0.058898
     26          1           0       -2.052631   -2.268469   -0.413301
     27          1           0       -1.690854   -1.416902    1.083880
     28          1           0       -0.011149    0.012654   -0.129229
     29          1           0       -0.374981   -0.843752   -1.634916
     30          1           0        0.388710   -1.706071   -0.288629
     31          6           0       -4.184031   -0.592109    0.182726
     32          6           0       -5.240757    0.458669   -0.159590
     33          6           0       -6.626365    0.100818    0.378765
     34          1           0       -4.497201   -1.563288   -0.224865
     35          1           0       -4.135350   -0.712084    1.273680
     36          1           0       -5.286792    0.576295   -1.249847
     37          1           0       -4.925014    1.427862    0.247333
     38          1           0       -6.602665    0.003145    1.468949
     39          1           0       -6.966498   -0.853261   -0.036738
     40          1           0       -7.366357    0.865464    0.122661
 ---------------------------------------------------------------------

 SCF Done:  E(RHF) =  -470.733106687     A.U. after   11 cycles
 E2 =    -0.1583266990D+01 EUMP2 =    -0.47231637367636D+03

 The electronic state is 1-A.
 Alpha  occ. eigenvalues --  -11.21683 -11.21633 -11.21553 -11.21541 -11.21461
 Alpha  occ. eigenvalues --  -11.21398 -11.21310 -11.21240 -11.21183 -11.21094
 Alpha  occ. eigenvalues --  -11.21062 -11.21036  -1.08490  -1.08359  -1.03595
 Alpha  occ. eigenvalues --   -1.03483  -0.96057  -0.95922  -0.87073  -0.86945
 Alpha  occ. eigenvalues --   -0.79666  -0.79539  -0.78304  -0.78167  -0.65177
 Alpha  occ. eigenvalues --   -0.64960  -0.61047  -0.60847  -0.59412  -0.59295
 Alpha  occ. eigenvalues --   -0.57652  -0.57542  -0.55425  -0.55147  -0.52743
 Alpha  occ. eigenvalues --   -0.52628  -0.52490  -0.52341  -0.50093  -0.49794
 Alpha  occ. eigenvalues --   -0.48018  -0.47822  -0.46775  -0.46538  -0.45885
 Alpha  occ. eigenvalues --   -0.45798  -0.45674  -0.45469  -0.43836  -0.43722
 Alpha virt. eigenvalues --    0.20377   0.22903   0.23289   0.24547   0.26105
 Alpha virt. eigenvalues --    0.26484   0.27295   0.27500   0.27950   0.29267
 Alpha virt. eigenvalues --    0.29810   0.31470   0.31720   0.31950   0.32357

 Mulliken charges:
               1
     1  C   -0.303110
     2  C   -0.300278
     3  C   -0.475924
     4  H    0.155615
     5  H    0.148723
     6  H    0.152873
     7  H    0.151805
     8  H    0.155224
     9  H    0.153934
    10  H    0.160322
    11  C   -0.298293
    12  C   -0.301472
    13  C   -0.475702
    14  H    0.150958
    15  H    0.149184
    16  H    0.153077
    17  H    0.151726
    18  H    0.155155
    19  H    0.155118
    20  H    0.159944
    21  C   -0.298566
    22  C   -0.299847
    23  C   -0.482120
    24  H    0.149847
    25  H    0.149534
    26  H    0.152345
    27  H    0.152270
    28  H    0.159603
    29  H    0.155526
    30  H    0.161900
    31  C   -0.298345
    32  C   -0.299727
    33  C   -0.475751
    34  H    0.149664
    35  H    0.149808
    36  H    0.152010
    37  H    0.152090
    38  H    0.155260
    39  H    0.155217
    40  H    0.160402
 Sum of Mulliken charges =  -0.00000

 Dipole moment (field-independent basis, Debye):
    X=             -0.0440    Y=             -0.0128    Z=             -0.0122  Tot=              0.0474
 Quadrupole moment (field-independent basis, Debye-Ang):
   XX=            -85.4704   YY=            -85.2681   ZZ=            -84.1337
   XY=              0.8321   XZ=              1.0042   YZ=              0.2877

 Normal termination of Gaussian 16 at Thu May  6 05:36:48 2021.
