 Gaussian 16, Revision A.03,
 Gaussian 16:  EM64L-G16RevA.03 25-Dec-2016

 -------------
 #p 6-31g* mp2
 -------------

 ------------------------------------------------------
 Input file generated by CHIRIPA (05-May-2021 14:57:26)
 ------------------------------------------------------
 Symbolic Z-matrix:
 Charge =  0 Multiplicity = 1

                         Standard orientation:
 ---------------------------------------------------------------------
 Center     Atomic      Atomic             Coordinates (Angstroms)
 Number     Number       Type             X           Y           Z
 ---------------------------------------------------------------------
      1          6           0        4.906625   -0.269765   -1.258437
      2          6           0        4.280177    0.940835   -0.944536
      3          6           0        3.181177    0.968549   -0.080836
      4          6           0        2.732923   -0.238500    0.453385
      5          6           0        3.335776   -1.460667    0.159844
      6          6           0        4.433259   -1.464545   -0.706218
      7          1           0        5.759765   -0.282036   -1.930297
      8          1           0        4.645637    1.870258   -1.371920
      9          1           0        2.677415    1.891622    0.179121
     10          1           0        2.948690   -2.370927    0.601443
     11          1           0        4.917798   -2.406194   -0.948221
     12          7           0        1.570264   -0.221777    1.368996
     13          8           0        1.194582   -1.298896    1.826507
     14          8           0        1.056669    0.868132    1.611804
     15          6           0       -1.463498    2.296021   -0.206516
     16          6           0       -1.586145    1.579500   -1.401538
     17          6           0       -2.392887    0.439535   -1.466289
     18          6           0       -3.065792    0.042609   -0.311759
     19          6           0       -2.963898    0.735336    0.893661
     20          6           0       -2.151554    1.872399    0.935256
     21          1           0       -0.834625    3.180447   -0.165210
     22          1           0       -1.052960    1.906166   -2.289822
     23          1           0       -2.505749   -0.133844   -2.378383
     24          1           0       -3.507704    0.385197    1.762625
     25          1           0       -2.058182    2.426901    1.864694
     26          7           0       -3.922820   -1.162685   -0.368050
     27          8           0       -4.505265   -1.491692    0.663040
     28          8           0       -3.995884   -1.755567   -1.442197
 ---------------------------------------------------------------------

 SCF Done:  E(RHF) =  -868.337864125     A.U. after   16 cycles
 E2 =    -0.2600857720D+01 EUMP2 =    -0.87093872184565D+03

 The electronic state is 1-A.
 Alpha  occ. eigenvalues --  -20.61252 -20.61246 -20.59942 -20.59916 -15.86278
 Alpha  occ. eigenvalues --  -15.84980 -11.31633 -11.30184 -11.28251 -11.28146
 Alpha  occ. eigenvalues --  -11.27913 -11.27232 -11.27160 -11.26821 -11.26652
 Alpha  occ. eigenvalues --  -11.26484 -11.25848 -11.25624  -1.60305  -1.59008
 Alpha  occ. eigenvalues --   -1.39867  -1.38567  -1.19796  -1.18341  -1.09190
 Alpha  occ. eigenvalues --   -1.07771  -1.05200  -1.03731  -0.96036  -0.94639
 Alpha  occ. eigenvalues --   -0.86597  -0.85148  -0.82876  -0.81485  -0.77930
 Alpha  occ. eigenvalues --   -0.76548  -0.72533  -0.71620  -0.71211  -0.70903
 Alpha  occ. eigenvalues --   -0.70321  -0.69495  -0.65454  -0.65201  -0.64013
 Alpha  occ. eigenvalues --   -0.63764  -0.62554  -0.61105  -0.55689  -0.54282
 Alpha  occ. eigenvalues --   -0.53528  -0.53292  -0.52058  -0.51852  -0.49295
 Alpha  occ. eigenvalues --   -0.49242  -0.47969  -0.47951  -0.45277  -0.44011
 Alpha  occ. eigenvalues --   -0.37771  -0.36805  -0.36231  -0.35269
 Alpha virt. eigenvalues --    0.04584   0.06020   0.10845   0.12369   0.16111
 Alpha virt. eigenvalues --    0.17542   0.20888   0.22261   0.26739   0.27633
 Alpha virt. eigenvalues --    0.28229   0.29123   0.30668   0.31576   0.32703

 Mulliken charges:
               1
     1  C   -0.170699
     2  C   -0.218649
     3  C   -0.171626
     4  C    0.159778
     5  C   -0.170247
     6  C   -0.218257
     7  H    0.226919
     8  H    0.222673
     9  H    0.269204
    10  H    0.278323
    11  H    0.225770
    12  N    0.489799
    13  O   -0.455877
    14  O   -0.465918
    15  C   -0.161325
    16  C   -0.223623
    17  C   -0.173545
    18  C    0.158372
    19  C   -0.168623
    20  C   -0.199991
    21  H    0.219069
    22  H    0.215299
    23  H    0.270670
    24  H    0.274887
    25  H    0.224800
    26  N    0.488566
    27  O   -0.460476
    28  O   -0.465275
 Sum of Mulliken charges =  -0.00000

 Dipole moment (field-independent basis, Debye):
    X=              7.3121    Y=              4.1116    Z=             -2.7342  Tot=              8.8231
 Quadrupole moment (field-independent basis, Debye-Ang):
   XX=           -102.2633   YY=           -100.1101   ZZ=           -104.1827
   XY=            -15.1650   XZ=            -10.7325   YZ=             -0.2258

 Normal termination of Gaussian 16 at Thu May  6 18:09:49 2021.
