 Gaussian 16, Revision A.03,
 Gaussian 16:  EM64L-G16RevA.03 25-Dec-2016

 -------------
 #p 6-31g* mp2
 -------------

 ------------------------------------------------------
 Input file generated by CHIRIPA (05-May-2021 14:53:14)
 ------------------------------------------------------
 Symbolic Z-matrix:
 Charge =  0 Multiplicity = 1

                         Standard orientation:
 ---------------------------------------------------------------------
 Center     Atomic      Atomic             Coordinates (Angstroms)
 Number     Number       Type             X           Y           Z
 ---------------------------------------------------------------------
      1          6           0        3.969845   -0.572882    0.135537
      2          6           0        4.555686    0.595800   -0.657533
      3          6           0        6.061718    0.756412   -0.448091
      4          1           0        4.179149   -0.424350    1.203748
      5          1           0        4.482614   -1.499465   -0.157560
      6          1           0        4.041014    1.519697   -0.364031
      7          1           0        4.344796    0.444565   -1.723961
      8          1           0        6.592628   -0.149204   -0.758888
      9          1           0        6.287120    0.932036    0.608768
     10          1           0        6.459713    1.597580   -1.024196
     11          6           0        2.465170   -0.746287   -0.063488
     12          6           0        1.879328   -1.914968    0.729581
     13          6           0        0.373296   -2.075580    0.520140
     14          1           0        1.952400    0.180297    0.229609
     15          1           0        2.255865   -0.894818   -1.131699
     16          1           0        2.090218   -1.763733    1.796009
     17          1           0        2.394000   -2.838865    0.436080
     18          1           0        0.147894   -2.251204   -0.536720
     19          1           0       -0.157614   -1.169964    0.830937
     20          1           0       -0.024698   -2.916748    1.096245
     21          6           0       -1.227091    2.546693    0.736097
     22          6           0       -1.659894    1.599904    1.670333
     23          6           0       -2.373523    0.470542    1.258237
     24          6           0       -2.638060    0.318913   -0.102028
     25          6           0       -2.220315    1.244540   -1.057011
     26          6           0       -1.508188    2.366307   -0.622197
     27          1           0       -0.673311    3.421058    1.065047
     28          1           0       -1.443026    1.737395    2.725846
     29          1           0       -2.720465   -0.278031    1.960152
     30          1           0       -2.451630    1.080102   -2.102416
     31          1           0       -1.173314    3.099960   -1.349974
     32          7           0       -3.392752   -0.872672   -0.550321
     33          8           0       -3.613034   -0.983143   -1.754442
     34          8           0       -3.749707   -1.673602    0.310917
 ---------------------------------------------------------------------

 SCF Done:  E(RHF) =  -669.534902943     A.U. after   15 cycles
 E2 =    -0.2093164697D+01 EUMP2 =    -0.67162806764030D+03

 The electronic state is 1-A.
 Alpha  occ. eigenvalues --  -20.60769 -20.60753 -15.85815 -11.31201 -11.27798
 Alpha  occ. eigenvalues --  -11.27778 -11.27577 -11.26841 -11.26826 -11.21845
 Alpha  occ. eigenvalues --  -11.21579 -11.21541 -11.21446 -11.21296 -11.20807
 Alpha  occ. eigenvalues --   -1.59833  -1.39387  -1.19417  -1.08795  -1.08539
 Alpha  occ. eigenvalues --   -1.04830  -1.03603  -0.96045  -0.95622  -0.87064
 Alpha  occ. eigenvalues --   -0.86213  -0.82454  -0.79686  -0.78356  -0.77490
 Alpha  occ. eigenvalues --   -0.72037  -0.71151  -0.70521  -0.65180  -0.65064
 Alpha  occ. eigenvalues --   -0.64820  -0.62166  -0.61022  -0.59414  -0.57675
 Alpha  occ. eigenvalues --   -0.55411  -0.55313  -0.53315  -0.52910  -0.52710
 Alpha  occ. eigenvalues --   -0.52329  -0.49965  -0.48798  -0.48788  -0.47972
 Alpha  occ. eigenvalues --   -0.46720  -0.45882  -0.45813  -0.44779  -0.43852
 Alpha  occ. eigenvalues --   -0.37363  -0.36376
 Alpha virt. eigenvalues --    0.05027   0.11196   0.16508   0.21349   0.22731
 Alpha virt. eigenvalues --    0.24252   0.26500   0.27207   0.27323   0.27828
 Alpha virt. eigenvalues --    0.28423   0.30886   0.31387   0.31721   0.32012

 Mulliken charges:
               1
     1  C   -0.298120
     2  C   -0.298894
     3  C   -0.475603
     4  H    0.148310
     5  H    0.151008
     6  H    0.147932
     7  H    0.152433
     8  H    0.156579
     9  H    0.154697
    10  H    0.159684
    11  C   -0.298344
    12  C   -0.298991
    13  C   -0.484348
    14  H    0.146696
    15  H    0.150405
    16  H    0.148677
    17  H    0.153003
    18  H    0.157591
    19  H    0.157955
    20  H    0.164309
    21  C   -0.171390
    22  C   -0.217122
    23  C   -0.177715
    24  C    0.165623
    25  C   -0.170886
    26  C   -0.217641
    27  H    0.225909
    28  H    0.223909
    29  H    0.276566
    30  H    0.275878
    31  H    0.223926
    32  N    0.488893
    33  O   -0.460939
    34  O   -0.459992
 Sum of Mulliken charges =  -0.00000

 Dipole moment (field-independent basis, Debye):
    X=              2.5657    Y=              4.1795    Z=              1.5513  Tot=              5.1437
 Quadrupole moment (field-independent basis, Debye-Ang):
   XX=           -110.8785   YY=            -91.7492   ZZ=            -90.0336
   XY=            -10.5874   XZ=             -5.1008   YZ=             -1.1140

 Normal termination of Gaussian 16 at Thu May  6 18:47:02 2021.
