 Gaussian 16, Revision A.03,
 Gaussian 16:  EM64L-G16RevA.03 25-Dec-2016

 -------------
 #p 6-31g* mp2
 -------------

 ------------------------------------------------------
 Input file generated by CHIRIPA (05-May-2021 14:53:14)
 ------------------------------------------------------
 Symbolic Z-matrix:
 Charge =  0 Multiplicity = 1

                         Standard orientation:
 ---------------------------------------------------------------------
 Center     Atomic      Atomic             Coordinates (Angstroms)
 Number     Number       Type             X           Y           Z
 ---------------------------------------------------------------------
      1          6           0        3.851971    0.981531   -0.145870
      2          6           0        2.588825    1.820219    0.051741
      3          6           0        2.890670    3.306045    0.249242
      4          1           0        4.510190    1.110948    0.724155
      5          1           0        4.404721    1.363103   -1.015505
      6          1           0        2.037914    1.436306    0.919913
      7          1           0        1.933450    1.688640   -0.818769
      8          1           0        3.419786    3.710485   -0.619703
      9          1           0        3.524843    3.456717    1.128858
     10          1           0        1.973616    3.886940    0.388646
     11          6           0        3.566544   -0.506005   -0.344606
     12          6           0        4.829689   -1.344694   -0.542217
     13          6           0        4.527845   -2.830519   -0.739718
     14          1           0        3.013793   -0.887577    0.525029
     15          1           0        2.908324   -0.635422   -1.214631
     16          1           0        5.485064   -1.213114    0.328293
     17          1           0        5.380601   -0.960781   -1.410389
     18          1           0        3.893672   -2.981191   -1.619334
     19          1           0        3.998729   -3.234959    0.129227
     20          1           0        5.444898   -3.411414   -0.879122
     21          6           0       -0.895423   -0.609280    1.666992
     22          6           0       -1.833236   -1.624423    1.451331
     23          6           0       -2.946543   -1.400978    0.635752
     24          6           0       -3.091445   -0.144807    0.048956
     25          6           0       -2.174447    0.886764    0.244571
     26          6           0       -1.068716    0.640871    1.063987
     27          1           0       -0.033522   -0.791577    2.302043
     28          1           0       -1.701221   -2.596288    1.918338
     29          1           0       -3.687892   -2.169080    0.451805
     30          1           0       -2.333094    1.845223   -0.234602
     31          1           0       -0.342004    1.431109    1.229692
     32          7           0       -4.266044    0.103628   -0.816492
     33          8           0       -4.370867    1.219048   -1.321948
     34          8           0       -5.059629   -0.821774   -0.972986
 ---------------------------------------------------------------------

 SCF Done:  E(RHF) =  -669.535298342     A.U. after   15 cycles
 E2 =    -0.2091593855D+01 EUMP2 =    -0.67162689219678D+03

 The electronic state is 1-A.
 Alpha  occ. eigenvalues --  -20.60729 -20.60723 -15.85780 -11.31136 -11.27698
 Alpha  occ. eigenvalues --  -11.27683 -11.27440 -11.26723 -11.26661 -11.22585
 Alpha  occ. eigenvalues --  -11.22193 -11.22160 -11.22077 -11.21913 -11.21598
 Alpha  occ. eigenvalues --   -1.59804  -1.39358  -1.19302  -1.09190  -1.08700
 Alpha  occ. eigenvalues --   -1.04704  -1.04275  -0.96698  -0.95539  -0.87712
 Alpha  occ. eigenvalues --   -0.86106  -0.82372  -0.80366  -0.79002  -0.77412
 Alpha  occ. eigenvalues --   -0.72000  -0.71127  -0.70418  -0.65836  -0.64953
 Alpha  occ. eigenvalues --   -0.64715  -0.62098  -0.61638  -0.60072  -0.58318
 Alpha  occ. eigenvalues --   -0.55972  -0.55207  -0.53403  -0.53127  -0.53026
 Alpha  occ. eigenvalues --   -0.52799  -0.50630  -0.48796  -0.48755  -0.48607
 Alpha  occ. eigenvalues --   -0.47390  -0.46524  -0.46445  -0.44766  -0.44523
 Alpha  occ. eigenvalues --   -0.37276  -0.36293
 Alpha virt. eigenvalues --    0.05102   0.11305   0.16566   0.19748   0.22510
 Alpha virt. eigenvalues --    0.23447   0.25153   0.25958   0.26508   0.28338
 Alpha virt. eigenvalues --    0.29273   0.30271   0.30723   0.31332   0.32021

 Mulliken charges:
               1
     1  C   -0.298562
     2  C   -0.302443
     3  C   -0.476744
     4  H    0.150526
     5  H    0.153513
     6  H    0.140451
     7  H    0.156391
     8  H    0.160452
     9  H    0.157129
    10  H    0.158102
    11  C   -0.297427
    12  C   -0.300349
    13  C   -0.475769
    14  H    0.142753
    15  H    0.153372
    16  H    0.152162
    17  H    0.154322
    18  H    0.157161
    19  H    0.152849
    20  H    0.162351
    21  C   -0.172095
    22  C   -0.218350
    23  C   -0.171425
    24  C    0.158815
    25  C   -0.172975
    26  C   -0.219357
    27  H    0.224693
    28  H    0.223126
    29  H    0.275345
    30  H    0.275324
    31  H    0.229829
    32  N    0.488010
    33  O   -0.460596
    34  O   -0.460587
 Sum of Mulliken charges =  -0.00000

 Dipole moment (field-independent basis, Debye):
    X=              4.3310    Y=             -0.8592    Z=              2.9387  Tot=              5.3040
 Quadrupole moment (field-independent basis, Debye-Ang):
   XX=           -119.9774   YY=            -91.2063   ZZ=            -94.0914
   XY=              3.8845   XZ=             -9.8307   YZ=             -1.7620

 Normal termination of Gaussian 16 at Thu May  6 15:27:20 2021.
