 Gaussian 16, Revision A.03,
 Gaussian 16:  EM64L-G16RevA.03 25-Dec-2016

 -------------
 #p 6-31g* mp2
 -------------

 ------------------------------------------------------
 Input file generated by CHIRIPA (05-May-2021 14:51:10)
 ------------------------------------------------------
 Symbolic Z-matrix:
 Charge =  0 Multiplicity = 1

                         Standard orientation:
 ---------------------------------------------------------------------
 Center     Atomic      Atomic             Coordinates (Angstroms)
 Number     Number       Type             X           Y           Z
 ---------------------------------------------------------------------
      1          6           0        2.638749    1.061814    0.137847
      2          6           0        3.088353    2.499008   -0.127322
      3          6           0        2.082265    3.535258    0.374442
      4          1           0        1.665937    0.893845   -0.344198
      5          1           0        2.480203    0.927785    1.216872
      6          1           0        3.247337    2.629895   -1.205380
      7          1           0        4.060298    2.663517    0.355250
      8          1           0        1.930292    3.433457    1.453860
      9          1           0        1.112713    3.399644   -0.115637
     10          1           0        2.423602    4.555763    0.174648
     11          6           0        3.634095    0.014403   -0.358081
     12          6           0        3.184492   -1.422791   -0.092911
     13          6           0        4.190580   -2.459041   -0.594676
     14          1           0        3.792642    0.148432   -1.437106
     15          1           0        4.606908    0.182372    0.123965
     16          1           0        2.212547   -1.587300   -0.575483
     17          1           0        3.025507   -1.553678    0.985146
     18          1           0        5.160132   -2.323426   -0.104596
     19          1           0        4.342553   -2.357240   -1.674093
     20          1           0        3.849243   -3.479546   -0.394881
     21          6           0       -2.643233   -1.103622   -0.032676
     22          6           0       -1.457471   -1.132164    0.932280
     23          6           0       -0.479629   -2.269054    0.633783
     24          1           0       -3.171236   -2.065765    0.016719
     25          1           0       -2.268075   -1.005380   -1.060781
     26          1           0       -1.834812   -1.228932    1.958372
     27          1           0       -0.932342   -0.169772    0.880723
     28          1           0       -0.075402   -2.173518   -0.379171
     29          1           0       -0.982999   -3.238695    0.704602
     30          1           0        0.360301   -2.270786    1.335476
     31          6           0       -3.629612    0.027405    0.252909
     32          6           0       -4.815374    0.055947   -0.712046
     33          6           0       -5.793215    1.192837   -0.413549
     34          1           0       -4.004769   -0.070837    1.281015
     35          1           0       -3.101609    0.989548    0.203514
     36          1           0       -5.340502   -0.906445   -0.660488
     37          1           0       -4.438032    0.152715   -1.738138
     38          1           0       -5.289845    2.162478   -0.484368
     39          1           0       -6.197443    1.097300    0.599404
     40          1           0       -6.633147    1.194568   -1.115242
 ---------------------------------------------------------------------

 SCF Done:  E(RHF) =  -470.732528111     A.U. after   11 cycles
 E2 =    -0.1583519492D+01 EUMP2 =    -0.47231604760374D+03

 The electronic state is 1-A.
 Alpha  occ. eigenvalues --  -11.21621 -11.21598 -11.21558 -11.21493 -11.21410
 Alpha  occ. eigenvalues --  -11.21394 -11.21336 -11.21335 -11.21099 -11.21067
 Alpha  occ. eigenvalues --  -11.21021 -11.20986  -1.08441  -1.08396  -1.03549
 Alpha  occ. eigenvalues --   -1.03474  -0.95983  -0.95947  -0.87038  -0.86930
 Alpha  occ. eigenvalues --   -0.79710  -0.79451  -0.78245  -0.78217  -0.65138
 Alpha  occ. eigenvalues --   -0.64977  -0.61026  -0.60816  -0.59451  -0.59220
 Alpha  occ. eigenvalues --   -0.57584  -0.57564  -0.55304  -0.55226  -0.52733
 Alpha  occ. eigenvalues --   -0.52604  -0.52392  -0.52370  -0.50055  -0.49820
 Alpha  occ. eigenvalues --   -0.47931  -0.47859  -0.46772  -0.46408  -0.45870
 Alpha  occ. eigenvalues --   -0.45740  -0.45675  -0.45542  -0.43798  -0.43703
 Alpha virt. eigenvalues --    0.21062   0.23239   0.23800   0.24233   0.25530
 Alpha virt. eigenvalues --    0.26377   0.27340   0.27400   0.27920   0.29527
 Alpha virt. eigenvalues --    0.29964   0.31084   0.31629   0.32155   0.32264

 Mulliken charges:
               1
     1  C   -0.299982
     2  C   -0.299581
     3  C   -0.475656
     4  H    0.150415
     5  H    0.149683
     6  H    0.151891
     7  H    0.152226
     8  H    0.155378
     9  H    0.154515
    10  H    0.160432
    11  C   -0.298080
    12  C   -0.304239
    13  C   -0.475657
    14  H    0.149012
    15  H    0.149367
    16  H    0.159664
    17  H    0.151101
    18  H    0.154692
    19  H    0.154618
    20  H    0.160469
    21  C   -0.298338
    22  C   -0.302329
    23  C   -0.477522
    24  H    0.149665
    25  H    0.148890
    26  H    0.151726
    27  H    0.154168
    28  H    0.155418
    29  H    0.154222
    30  H    0.163907
    31  C   -0.298219
    32  C   -0.299611
    33  C   -0.475696
    34  H    0.149612
    35  H    0.149554
    36  H    0.151944
    37  H    0.151718
    38  H    0.155194
    39  H    0.155223
    40  H    0.160207
 Sum of Mulliken charges =  -0.00000

 Dipole moment (field-independent basis, Debye):
    X=              0.0056    Y=             -0.0087    Z=              0.0111  Tot=              0.0152
 Quadrupole moment (field-independent basis, Debye-Ang):
   XX=            -85.4809   YY=            -85.7747   ZZ=            -83.6565
   XY=              1.4902   XZ=              0.3759   YZ=             -0.7178

 Normal termination of Gaussian 16 at Wed May  5 23:01:17 2021.
