 Gaussian 16, Revision A.03,
 Gaussian 16:  EM64L-G16RevA.03 25-Dec-2016

 -------------
 #p 6-31g* mp2
 -------------

 ------------------------------------------------------
 Input file generated by CHIRIPA (05-May-2021 14:53:15)
 ------------------------------------------------------
 Symbolic Z-matrix:
 Charge =  0 Multiplicity = 1

                         Standard orientation:
 ---------------------------------------------------------------------
 Center     Atomic      Atomic             Coordinates (Angstroms)
 Number     Number       Type             X           Y           Z
 ---------------------------------------------------------------------
      1          6           0       -3.999507    0.027623    0.209818
      2          6           0       -4.928479    1.190177   -0.141558
      3          6           0       -5.941011    1.492590    0.963485
      4          1           0       -4.603232   -0.867911    0.411017
      5          1           0       -3.467175    0.261666    1.142150
      6          1           0       -5.457874    0.954608   -1.073686
      7          1           0       -4.322462    2.082999   -0.342131
      8          1           0       -5.428254    1.753057    1.895064
      9          1           0       -6.570117    0.618254    1.159351
     10          1           0       -6.594953    2.326979    0.691429
     11          6           0       -2.981629   -0.286738   -0.885092
     12          6           0       -2.052658   -1.449292   -0.533716
     13          6           0       -1.040125   -1.751704   -1.638759
     14          1           0       -3.513961   -0.520780   -1.817424
     15          1           0       -2.377905    0.608796   -1.086291
     16          1           0       -2.658674   -2.342113   -0.333143
     17          1           0       -1.523263   -1.213722    0.398413
     18          1           0       -0.411020   -0.877368   -1.834625
     19          1           0       -1.552882   -2.012171   -2.570337
     20          1           0       -0.386183   -2.586093   -1.366703
     21          6           0        3.698210    2.085233   -0.955386
     22          6           0        3.466488    2.155037    0.422276
     23          6           0        2.928733    1.061870    1.108097
     24          6           0        2.633114   -0.090591    0.381643
     25          6           0        2.852529   -0.190918   -0.991340
     26          6           0        3.391033    0.914542   -1.656561
     27          1           0        4.116243    2.939207   -1.480148
     28          1           0        3.704082    3.062923    0.969394
     29          1           0        2.739233    1.088750    2.174298
     30          1           0        2.605520   -1.109518   -1.509586
     31          1           0        3.569932    0.857485   -2.726506
     32          7           0        2.063420   -1.254385    1.096787
     33          8           0        1.811562   -2.258245    0.433861
     34          8           0        1.879540   -1.140672    2.306703
 ---------------------------------------------------------------------

 SCF Done:  E(RHF) =  -669.536077401     A.U. after   15 cycles
 E2 =    -0.2091941585D+01 EUMP2 =    -0.67162801898598D+03

 The electronic state is 1-A.
 Alpha  occ. eigenvalues --  -20.60910 -20.60891 -15.85936 -11.31264 -11.27829
 Alpha  occ. eigenvalues --  -11.27813 -11.27567 -11.26839 -11.26826 -11.21322
 Alpha  occ. eigenvalues --  -11.20986 -11.20929 -11.20874 -11.20827 -11.20315
 Alpha  occ. eigenvalues --   -1.59963  -1.39519  -1.19434  -1.08836  -1.07979
 Alpha  occ. eigenvalues --   -1.04829  -1.03046  -0.95689  -0.95493  -0.86534
 Alpha  occ. eigenvalues --   -0.86225  -0.82511  -0.79125  -0.77781  -0.77557
 Alpha  occ. eigenvalues --   -0.72165  -0.71285  -0.70539  -0.65090  -0.64832
 Alpha  occ. eigenvalues --   -0.64617  -0.62177  -0.60457  -0.58856  -0.57079
 Alpha  occ. eigenvalues --   -0.55337  -0.54826  -0.53164  -0.52920  -0.52166
 Alpha  occ. eigenvalues --   -0.51927  -0.49499  -0.48914  -0.48904  -0.47430
 Alpha  occ. eigenvalues --   -0.46174  -0.45329  -0.45245  -0.44895  -0.43268
 Alpha  occ. eigenvalues --   -0.37410  -0.36424
 Alpha virt. eigenvalues --    0.04942   0.11166   0.16412   0.21271   0.23246
 Alpha virt. eigenvalues --    0.24649   0.26857   0.27179   0.27799   0.27928
 Alpha virt. eigenvalues --    0.28895   0.30873   0.31645   0.31956   0.32273

 Mulliken charges:
               1
     1  C   -0.298176
     2  C   -0.299018
     3  C   -0.475439
     4  H    0.150281
     5  H    0.150847
     6  H    0.150935
     7  H    0.149743
     8  H    0.155224
     9  H    0.155575
    10  H    0.158592
    11  C   -0.297699
    12  C   -0.299252
    13  C   -0.482057
    14  H    0.147293
    15  H    0.145593
    16  H    0.152891
    17  H    0.157334
    18  H    0.143436
    19  H    0.148297
    20  H    0.181220
    21  C   -0.170601
    22  C   -0.218550
    23  C   -0.171105
    24  C    0.157702
    25  C   -0.170199
    26  C   -0.219369
    27  H    0.225933
    28  H    0.223694
    29  H    0.275636
    30  H    0.277703
    31  H    0.224123
    32  N    0.489171
    33  O   -0.459809
    34  O   -0.459950
 Sum of Mulliken charges =  -0.00000

 Dipole moment (field-independent basis, Debye):
    X=              2.1700    Y=              3.9815    Z=             -2.4163  Tot=              5.1381
 Quadrupole moment (field-independent basis, Debye-Ang):
   XX=            -85.4993   YY=            -94.0679   ZZ=            -93.7559
   XY=             11.8433   XZ=             -5.2634   YZ=              4.3126

 Normal termination of Gaussian 16 at Thu May  6 02:42:03 2021.
