 Gaussian 16, Revision A.03,
 Gaussian 16:  EM64L-G16RevA.03 25-Dec-2016

 -------------
 #p 6-31g* mp2
 -------------

 ------------------------------------------------------
 Input file generated by CHIRIPA (05-May-2021 14:53:15)
 ------------------------------------------------------
 Symbolic Z-matrix:
 Charge =  0 Multiplicity = 1

                         Standard orientation:
 ---------------------------------------------------------------------
 Center     Atomic      Atomic             Coordinates (Angstroms)
 Number     Number       Type             X           Y           Z
 ---------------------------------------------------------------------
      1          6           0       -3.100519    0.765351    0.036637
      2          6           0       -2.847798    1.596261   -1.221816
      3          6           0       -1.521969    2.356193   -1.172071
      4          1           0       -3.088080    1.426833    0.913696
      5          1           0       -2.273815    0.053890    0.169974
      6          1           0       -3.675425    2.304998   -1.353501
      7          1           0       -2.861031    0.932753   -2.095999
      8          1           0       -0.683176    1.660846   -1.064738
      9          1           0       -1.502197    3.040889   -0.318021
     10          1           0       -1.361508    2.943525   -2.081550
     11          6           0       -4.422079   -0.000157    0.001882
     12          6           0       -4.674800   -0.831068    1.260335
     13          6           0       -6.000630   -1.590999    1.210590
     14          1           0       -5.248783    0.711304   -0.131455
     15          1           0       -4.434518   -0.661639   -0.875177
     16          1           0       -4.661567   -0.167559    2.134518
     17          1           0       -3.847173   -1.539805    1.392020
     18          1           0       -6.020401   -2.275695    0.356540
     19          1           0       -6.839422   -0.895652    1.103257
     20          1           0       -6.161090   -2.178332    2.120069
     21          6           0        4.010102    1.281013    1.634646
     22          6           0        3.028871    1.748163    0.754034
     23          6           0        2.428343    0.881727   -0.164226
     24          6           0        2.834918   -0.451644   -0.174533
     25          6           0        3.809760   -0.947179    0.690001
     26          6           0        4.396734   -0.062798    1.599880
     27          1           0        4.471342    1.961052    2.344717
     28          1           0        2.726632    2.791276    0.778783
     29          1           0        1.666252    1.216819   -0.857298
     30          1           0        4.090226   -1.992366    0.641617
     31          1           0        5.158513   -0.428376    2.282587
     32          7           0        2.206341   -1.378400   -1.142217
     33          8           0        2.582112   -2.548577   -1.131277
     34          8           0        1.349793   -0.917067   -1.893306
 ---------------------------------------------------------------------

 SCF Done:  E(RHF) =  -669.535810665     A.U. after   15 cycles
 E2 =    -0.2091130851D+01 EUMP2 =    -0.67162694151575D+03

 The electronic state is 1-A.
 Alpha  occ. eigenvalues --  -20.60828 -20.60820 -15.85871 -11.31199 -11.27769
 Alpha  occ. eigenvalues --  -11.27740 -11.27506 -11.26782 -11.26762 -11.21409
 Alpha  occ. eigenvalues --  -11.21358 -11.21154 -11.21127 -11.21088 -11.20838
 Alpha  occ. eigenvalues --   -1.59897  -1.39452  -1.19371  -1.08775  -1.08200
 Alpha  occ. eigenvalues --   -1.04768  -1.03348  -0.95826  -0.95612  -0.86854
 Alpha  occ. eigenvalues --   -0.86169  -0.82445  -0.79423  -0.78012  -0.77496
 Alpha  occ. eigenvalues --   -0.72092  -0.71217  -0.70489  -0.65024  -0.64855
 Alpha  occ. eigenvalues --   -0.64741  -0.62147  -0.60719  -0.59182  -0.57429
 Alpha  occ. eigenvalues --   -0.55320  -0.55071  -0.53102  -0.52895  -0.52525
 Alpha  occ. eigenvalues --   -0.52226  -0.49752  -0.48848  -0.48845  -0.47739
 Alpha  occ. eigenvalues --   -0.46421  -0.45564  -0.45457  -0.44856  -0.43594
 Alpha  occ. eigenvalues --   -0.37354  -0.36365
 Alpha virt. eigenvalues --    0.05007   0.11243   0.16532   0.20901   0.23144
 Alpha virt. eigenvalues --    0.24266   0.25839   0.27046   0.27782   0.27916
 Alpha virt. eigenvalues --    0.29226   0.30347   0.31529   0.31867   0.32143

 Mulliken charges:
               1
     1  C   -0.299604
     2  C   -0.297955
     3  C   -0.484213
     4  H    0.145834
     5  H    0.154460
     6  H    0.150526
     7  H    0.159485
     8  H    0.159427
     9  H    0.149878
    10  H    0.161021
    11  C   -0.298709
    12  C   -0.299822
    13  C   -0.475731
    14  H    0.148026
    15  H    0.153091
    16  H    0.149822
    17  H    0.153762
    18  H    0.156667
    19  H    0.154208
    20  H    0.159481
    21  C   -0.170598
    22  C   -0.220878
    23  C   -0.176338
    24  C    0.157098
    25  C   -0.170518
    26  C   -0.218685
    27  H    0.225675
    28  H    0.224434
    29  H    0.285944
    30  H    0.275506
    31  H    0.223458
    32  N    0.487719
    33  O   -0.459856
    34  O   -0.462614
 Sum of Mulliken charges =  -0.00000

 Dipole moment (field-independent basis, Debye):
    X=              2.2180    Y=              3.1878    Z=              3.3582  Tot=              5.1341
 Quadrupole moment (field-independent basis, Debye-Ang):
   XX=            -81.7302   YY=            -95.1788   ZZ=            -95.8043
   XY=              5.2081   XZ=             10.8546   YZ=             -3.1353

 Normal termination of Gaussian 16 at Wed May  5 23:31:08 2021.
