 Gaussian 16, Revision A.03,
 Gaussian 16:  EM64L-G16RevA.03 25-Dec-2016

 -------------
 #p 6-31g* mp2
 -------------

 ------------------------------------------------------
 Input file generated by CHIRIPA (05-May-2021 14:53:16)
 ------------------------------------------------------
 Symbolic Z-matrix:
 Charge =  0 Multiplicity = 1

                         Standard orientation:
 ---------------------------------------------------------------------
 Center     Atomic      Atomic             Coordinates (Angstroms)
 Number     Number       Type             X           Y           Z
 ---------------------------------------------------------------------
      1          6           0        4.374764   -0.288266   -0.171969
      2          6           0        3.973254   -1.750464    0.024887
      3          6           0        5.178312   -2.686675    0.120472
      4          1           0        4.981966   -0.200897   -1.083352
      5          1           0        5.017413    0.023832    0.662891
      6          1           0        3.330423   -2.059304   -0.809381
      7          1           0        3.366776   -1.834332    0.935802
      8          1           0        5.818053   -2.406303    0.963516
      9          1           0        5.781493   -2.632553   -0.791583
     10          1           0        4.868397   -3.726895    0.261023
     11          6           0        3.180969    0.659943   -0.269336
     12          6           0        3.582479    2.122141   -0.466192
     13          6           0        2.377421    3.058352   -0.561777
     14          1           0        2.538320    0.347844   -1.104196
     15          1           0        2.573767    0.572574    0.642046
     16          1           0        4.188957    2.206009   -1.377108
     17          1           0        4.225310    2.430981    0.368076
     18          1           0        1.774240    3.004230    0.350278
     19          1           0        1.737680    2.777980   -1.404822
     20          1           0        2.687336    4.098572   -0.702328
     21          6           0       -1.334226    0.304441    2.056082
     22          6           0       -0.859209    0.132173    0.751780
     23          6           0       -1.746141   -0.117430   -0.299694
     24          6           0       -3.107806   -0.188654   -0.009724
     25          6           0       -3.611846   -0.021440    1.279180
     26          6           0       -2.706608    0.227222    2.315163
     27          1           0       -0.638125    0.497974    2.866876
     28          1           0        0.206078    0.191615    0.547630
     29          1           0       -1.405548   -0.254695   -1.318799
     30          1           0       -4.679305   -0.086260    1.451654
     31          1           0       -3.078359    0.360599    3.327120
     32          7           0       -4.056451   -0.452400   -1.114673
     33          8           0       -5.251412   -0.510449   -0.833009
     34          8           0       -3.587075   -0.596079   -2.241473
 ---------------------------------------------------------------------

 SCF Done:  E(RHF) =  -669.535577177     A.U. after   15 cycles
 E2 =    -0.2091609894D+01 EUMP2 =    -0.67162718707087D+03

 The electronic state is 1-A.
 Alpha  occ. eigenvalues --  -20.60699 -20.60694 -15.85750 -11.31096 -11.27661
 Alpha  occ. eigenvalues --  -11.27639 -11.27394 -11.26684 -11.26584 -11.22515
 Alpha  occ. eigenvalues --  -11.22419 -11.22331 -11.22181 -11.21849 -11.21629
 Alpha  occ. eigenvalues --   -1.59774  -1.39329  -1.19259  -1.09308  -1.08661
 Alpha  occ. eigenvalues --   -1.04654  -1.04293  -0.96752  -0.95502  -0.87762
 Alpha  occ. eigenvalues --   -0.86060  -0.82334  -0.80367  -0.79178  -0.77370
 Alpha  occ. eigenvalues --   -0.71970  -0.71096  -0.70380  -0.65945  -0.64909
 Alpha  occ. eigenvalues --   -0.64655  -0.62021  -0.61672  -0.60114  -0.58369
 Alpha  occ. eigenvalues --   -0.56043  -0.55171  -0.53399  -0.53221  -0.52987
 Alpha  occ. eigenvalues --   -0.52718  -0.50688  -0.48758  -0.48726  -0.48638
 Alpha  occ. eigenvalues --   -0.47402  -0.46637  -0.46598  -0.44738  -0.44587
 Alpha  occ. eigenvalues --   -0.37246  -0.36252
 Alpha virt. eigenvalues --    0.05145   0.11365   0.16635   0.19906   0.22576
 Alpha virt. eigenvalues --    0.23698   0.25077   0.25577   0.27263   0.28318
 Alpha virt. eigenvalues --    0.29266   0.30512   0.30691   0.31344   0.31728

 Mulliken charges:
               1
     1  C   -0.297401
     2  C   -0.300818
     3  C   -0.476166
     4  H    0.153865
     5  H    0.151432
     6  H    0.153255
     7  H    0.148871
     8  H    0.155895
     9  H    0.157378
    10  H    0.162695
    11  C   -0.304135
    12  C   -0.299575
    13  C   -0.477535
    14  H    0.149157
    15  H    0.141979
    16  H    0.156489
    17  H    0.153872
    18  H    0.151648
    19  H    0.156890
    20  H    0.165158
    21  C   -0.173813
    22  C   -0.226703
    23  C   -0.173877
    24  C    0.159066
    25  C   -0.171660
    26  C   -0.218280
    27  H    0.224440
    28  H    0.238054
    29  H    0.275225
    30  H    0.275174
    31  H    0.222865
    32  N    0.488041
    33  O   -0.460760
    34  O   -0.460728
 Sum of Mulliken charges =  -0.00000

 Dipole moment (field-independent basis, Debye):
    X=              3.6176    Y=              0.9595    Z=              3.8158  Tot=              5.3449
 Quadrupole moment (field-independent basis, Debye-Ang):
   XX=           -112.5569   YY=            -96.1782   ZZ=            -92.0965
   XY=             -3.0564   XZ=            -15.3428   YZ=             -0.4740

 Normal termination of Gaussian 16 at Thu May  6 20:29:02 2021.
