 Gaussian 16, Revision A.03,
 Gaussian 16:  EM64L-G16RevA.03 25-Dec-2016

 -------------
 #p 6-31g* mp2
 -------------

 ------------------------------------------------------
 Input file generated by CHIRIPA (05-May-2021 14:55:22)
 ------------------------------------------------------
 Symbolic Z-matrix:
 Charge =  0 Multiplicity = 1

                         Standard orientation:
 ---------------------------------------------------------------------
 Center     Atomic      Atomic             Coordinates (Angstroms)
 Number     Number       Type             X           Y           Z
 ---------------------------------------------------------------------
      1          6           0       -0.388963   -0.704793    0.159705
      2          6           0       -1.314602   -1.647899    0.618251
      3          6           0       -2.687015   -1.395352    0.533092
      4          6           0       -3.100619   -0.183857   -0.018724
      5          6           0       -2.202985    0.775736   -0.484260
      6          6           0       -0.835322    0.501887   -0.389119
      7          1           0        0.675315   -0.909251    0.229736
      8          1           0       -0.970832   -2.585878    1.044939
      9          1           0       -3.425323   -2.107867    0.880428
     10          1           0       -2.575995    1.701746   -0.904722
     11          1           0       -0.118734    1.236161   -0.746035
     12          7           0       -4.551017    0.094778   -0.114162
     13          8           0       -4.889802    1.169717   -0.604434
     14          8           0       -5.321590   -0.767042    0.303114
     15          6           0        3.502116    0.886355    0.458656
     16          6           0        3.065238    2.136665   -0.305443
     17          6           0        2.747212    3.312927    0.618170
     18          1           0        2.708719    0.598188    1.161809
     19          1           0        4.385913    1.126335    1.065870
     20          1           0        2.183358    1.894036   -0.912100
     21          1           0        3.859687    2.421778   -1.006996
     22          1           0        3.625033    3.583179    1.213986
     23          1           0        1.939178    3.052437    1.309420
     24          1           0        2.437049    4.196170    0.051125
     25          6           0        3.823518   -0.298119   -0.450989
     26          6           0        4.260396   -1.548429    0.313111
     27          6           0        4.578422   -2.724691   -0.610503
     28          1           0        2.939722   -0.538099   -1.058201
     29          1           0        4.616915   -0.009951   -1.154142
     30          1           0        3.465946   -1.833542    1.014663
     31          1           0        5.142277   -1.305800    0.919767
     32          1           0        5.386456   -2.464201   -1.301753
     33          1           0        3.700602   -2.994943   -1.206319
     34          1           0        4.888585   -3.607934   -0.043458
 ---------------------------------------------------------------------

 SCF Done:  E(RHF) =  -669.535157854     A.U. after   15 cycles
 E2 =    -0.2092694686D+01 EUMP2 =    -0.67162785254020D+03

 The electronic state is 1-A.
 Alpha  occ. eigenvalues --  -20.60748 -20.60743 -15.85801 -11.31170 -11.27738
 Alpha  occ. eigenvalues --  -11.27731 -11.27458 -11.26752 -11.26727 -11.22823
 Alpha  occ. eigenvalues --  -11.22735 -11.22627 -11.22568 -11.22025 -11.22007
 Alpha  occ. eigenvalues --   -1.59824  -1.39377  -1.19340  -1.09638  -1.08732
 Alpha  occ. eigenvalues --   -1.04750  -1.04628  -0.97054  -0.95570  -0.88058
 Alpha  occ. eigenvalues --   -0.86145  -0.82405  -0.80698  -0.79437  -0.77451
 Alpha  occ. eigenvalues --   -0.72020  -0.71146  -0.70502  -0.66354  -0.64987
 Alpha  occ. eigenvalues --   -0.64704  -0.62277  -0.61855  -0.60411  -0.58658
 Alpha  occ. eigenvalues --   -0.56433  -0.55154  -0.53708  -0.53449  -0.53073
 Alpha  occ. eigenvalues --   -0.52844  -0.50992  -0.48996  -0.48775  -0.48773
 Alpha  occ. eigenvalues --   -0.47747  -0.46939  -0.46932  -0.44901  -0.44782
 Alpha  occ. eigenvalues --   -0.37318  -0.36347
 Alpha virt. eigenvalues --    0.05069   0.11270   0.16517   0.17544   0.21888
 Alpha virt. eigenvalues --    0.23639   0.25184   0.25458   0.26697   0.27998
 Alpha virt. eigenvalues --    0.29500   0.30595   0.30829   0.31227   0.32573

 Mulliken charges:
               1
     1  C   -0.180238
     2  C   -0.219760
     3  C   -0.170809
     4  C    0.158787
     5  C   -0.171827
     6  C   -0.226908
     7  H    0.235583
     8  H    0.223624
     9  H    0.275499
    10  H    0.276156
    11  H    0.232376
    12  N    0.487926
    13  O   -0.460368
    14  O   -0.460491
    15  C   -0.302489
    16  C   -0.303706
    17  C   -0.477984
    18  H    0.146155
    19  H    0.156337
    20  H    0.144070
    21  H    0.158294
    22  H    0.159808
    23  H    0.156709
    24  H    0.163387
    25  C   -0.302984
    26  C   -0.301180
    27  C   -0.476188
    28  H    0.143606
    29  H    0.156626
    30  H    0.146243
    31  H    0.157191
    32  H    0.158872
    33  H    0.154245
    34  H    0.163439
 Sum of Mulliken charges =  -0.00000

 Dipole moment (field-independent basis, Debye):
    X=              5.4062    Y=             -0.9170    Z=              0.3582  Tot=              5.4951
 Quadrupole moment (field-independent basis, Debye-Ang):
   XX=           -124.5328   YY=            -90.8881   ZZ=            -94.9137
   XY=              3.8418   XZ=             -1.5123   YZ=             -2.6203

 Normal termination of Gaussian 16 at Wed May  5 20:38:02 2021.
