 Gaussian 16, Revision A.03,
 Gaussian 16:  EM64L-G16RevA.03 25-Dec-2016

 -------------
 #p 6-31g* mp2
 -------------

 ------------------------------------------------------
 Input file generated by CHIRIPA (05-May-2021 14:55:21)
 ------------------------------------------------------
 Symbolic Z-matrix:
 Charge =  0 Multiplicity = 1

                         Standard orientation:
 ---------------------------------------------------------------------
 Center     Atomic      Atomic             Coordinates (Angstroms)
 Number     Number       Type             X           Y           Z
 ---------------------------------------------------------------------
      1          6           0       -3.950846   -2.076798    0.570328
      2          6           0       -4.823752   -1.019211    0.846128
      3          6           0       -4.462686    0.296933    0.542906
      4          6           0       -3.215434    0.520332   -0.038253
      5          6           0       -2.323796   -0.512127   -0.325130
      6          6           0       -2.705849   -1.820333   -0.013391
      7          1           0       -4.239482   -3.096127    0.809186
      8          1           0       -5.791265   -1.215414    1.299414
      9          1           0       -5.119100    1.134424    0.745753
     10          1           0       -1.365987   -0.285236   -0.777392
     11          1           0       -2.025909   -2.639705   -0.228699
     12          7           0       -2.822081    1.909473   -0.363769
     13          8           0       -1.717631    2.079857   -0.875430
     14          8           0       -3.625668    2.801595   -0.101082
     15          6           0        3.455860   -0.527112    0.068651
     16          6           0        2.973476   -1.698146   -0.788070
     17          6           0        1.485253   -1.994345   -0.600314
     18          1           0        3.254938   -0.747424    1.126024
     19          1           0        2.868640    0.367359   -0.181323
     20          1           0        3.562366   -2.589807   -0.537540
     21          1           0        3.175745   -1.475104   -1.843512
     22          1           0        0.881791   -1.121339   -0.869193
     23          1           0        1.270607   -2.242375    0.444200
     24          1           0        1.161663   -2.834959   -1.222018
     25          6           0        4.941615   -0.218834   -0.108063
     26          6           0        5.423999    0.952200    0.748659
     27          6           0        6.912222    1.248399    0.560902
     28          1           0        5.528835   -1.113306    0.141910
     29          1           0        5.142537    0.001478   -1.165436
     30          1           0        5.221730    0.729158    1.804099
     31          1           0        4.835109    1.843861    0.498127
     32          1           0        7.126867    1.496429   -0.483613
     33          1           0        7.515684    0.375393    0.829780
     34          1           0        7.235812    2.089013    1.182607
 ---------------------------------------------------------------------

 SCF Done:  E(RHF) =  -669.535662682     A.U. after   15 cycles
 E2 =    -0.2091137232D+01 EUMP2 =    -0.67162679991482D+03

 The electronic state is 1-A.
 Alpha  occ. eigenvalues --  -20.60734 -20.60728 -15.85784 -11.31112 -11.27689
 Alpha  occ. eigenvalues --  -11.27650 -11.27427 -11.26704 -11.26663 -11.21961
 Alpha  occ. eigenvalues --  -11.21798 -11.21531 -11.21485 -11.21388 -11.20992
 Alpha  occ. eigenvalues --   -1.59808  -1.39363  -1.19286  -1.08690  -1.08552
 Alpha  occ. eigenvalues --   -1.04683  -1.03724  -0.96205  -0.95530  -0.87238
 Alpha  occ. eigenvalues --   -0.86085  -0.82360  -0.79803  -0.78321  -0.77407
 Alpha  occ. eigenvalues --   -0.72006  -0.71129  -0.70410  -0.65181  -0.64938
 Alpha  occ. eigenvalues --   -0.64688  -0.62070  -0.61100  -0.59589  -0.57783
 Alpha  occ. eigenvalues --   -0.55519  -0.55176  -0.53028  -0.52930  -0.52831
 Alpha  occ. eigenvalues --   -0.52555  -0.50135  -0.48762  -0.48759  -0.48104
 Alpha  occ. eigenvalues --   -0.46795  -0.45879  -0.45762  -0.44776  -0.43957
 Alpha  occ. eigenvalues --   -0.37274  -0.36280
 Alpha virt. eigenvalues --    0.05114   0.11362   0.16604   0.20307   0.22834
 Alpha virt. eigenvalues --    0.23973   0.25453   0.26292   0.27220   0.27962
 Alpha virt. eigenvalues --    0.29160   0.29583   0.31335   0.31573   0.32279

 Mulliken charges:
               1
     1  C   -0.170878
     2  C   -0.218859
     3  C   -0.170552
     4  C    0.159582
     5  C   -0.177548
     6  C   -0.222813
     7  H    0.225301
     8  H    0.223087
     9  H    0.275284
    10  H    0.283641
    11  H    0.226723
    12  N    0.487498
    13  O   -0.461149
    14  O   -0.460502
    15  C   -0.300581
    16  C   -0.298693
    17  C   -0.484479
    18  H    0.149279
    19  H    0.156299
    20  H    0.152743
    21  H    0.155068
    22  H    0.155962
    23  H    0.155831
    24  H    0.157378
    25  C   -0.298701
    26  C   -0.300391
    27  C   -0.475892
    28  H    0.148475
    29  H    0.150760
    30  H    0.151649
    31  H    0.155475
    32  H    0.155698
    33  H    0.154241
    34  H    0.161064
 Sum of Mulliken charges =  -0.00000

 Dipole moment (field-independent basis, Debye):
    X=             -1.2423    Y=             -4.8566    Z=              1.1508  Tot=              5.1434
 Quadrupole moment (field-independent basis, Debye-Ang):
   XX=            -82.9294   YY=            -99.6860   ZZ=            -94.4424
   XY=             13.2015   XZ=             -5.3961   YZ=              0.9257

 Normal termination of Gaussian 16 at Thu May  6 07:46:27 2021.
