 Gaussian 16, Revision A.03,
 Gaussian 16:  EM64L-G16RevA.03 25-Dec-2016

 -------------
 #p 6-31g* mp2
 -------------

 ------------------------------------------------------
 Input file generated by CHIRIPA (05-May-2021 14:55:20)
 ------------------------------------------------------
 Symbolic Z-matrix:
 Charge =  0 Multiplicity = 1

                         Standard orientation:
 ---------------------------------------------------------------------
 Center     Atomic      Atomic             Coordinates (Angstroms)
 Number     Number       Type             X           Y           Z
 ---------------------------------------------------------------------
      1          6           0        3.997123   -0.516233   -1.494420
      2          6           0        4.199841    0.517440   -0.574124
      3          6           0        3.246550    0.786872    0.412381
      4          6           0        2.096912   -0.000673    0.449721
      5          6           0        1.866132   -1.037521   -0.453040
      6          6           0        2.832968   -1.289052   -1.431053
      7          1           0        4.742923   -0.718582   -2.257463
      8          1           0        5.102992    1.119245   -0.620950
      9          1           0        3.378070    1.580954    1.137332
     10          1           0        0.955849   -1.620311   -0.381224
     11          1           0        2.672869   -2.092461   -2.144459
     12          7           0        1.080536    0.275087    1.489595
     13          8           0        0.076127   -0.433195    1.501268
     14          8           0        1.307555    1.194288    2.273283
     15          6           0       -2.800877   -0.666311   -0.574861
     16          6           0       -3.180589   -1.681069    0.504061
     17          6           0       -2.979886   -3.127780    0.051801
     18          1           0       -3.400192   -0.856872   -1.475668
     19          1           0       -1.750830   -0.820078   -0.859733
     20          1           0       -4.229208   -1.524530    0.787802
     21          1           0       -2.580437   -1.487948    1.402469
     22          1           0       -1.932685   -3.307031   -0.212471
     23          1           0       -3.590824   -3.343820   -0.830630
     24          1           0       -3.257386   -3.836454    0.838334
     25          6           0       -2.996045    0.784383   -0.137683
     26          6           0       -2.616335    1.799141   -1.216605
     27          6           0       -2.817037    3.245852   -0.764344
     28          1           0       -4.046092    0.938151    0.147189
     29          1           0       -2.396730    0.974945    0.763124
     30          1           0       -3.216486    1.606021   -2.115014
     31          1           0       -1.567715    1.642602   -1.500346
     32          1           0       -2.206099    3.461893    0.118086
     33          1           0       -3.864238    3.425104   -0.500074
     34          1           0       -2.539537    3.954526   -1.550878
 ---------------------------------------------------------------------

 SCF Done:  E(RHF) =  -669.536350218     A.U. after   15 cycles
 E2 =    -0.2093155741D+01 EUMP2 =    -0.67162950595839D+03

 The electronic state is 1-A.
 Alpha  occ. eigenvalues --  -20.61118 -20.61112 -15.86131 -11.31385 -11.27936
 Alpha  occ. eigenvalues --  -11.27931 -11.27656 -11.26927 -11.26916 -11.20890
 Alpha  occ. eigenvalues --  -11.20507 -11.20459 -11.20418 -11.20405 -11.20259
 Alpha  occ. eigenvalues --   -1.60168  -1.39728  -1.19543  -1.08961  -1.07482
 Alpha  occ. eigenvalues --   -1.04927  -1.02704  -0.95817  -0.95175  -0.86332
 Alpha  occ. eigenvalues --   -0.86203  -0.82655  -0.78758  -0.77721  -0.77298
 Alpha  occ. eigenvalues --   -0.72385  -0.71481  -0.70651  -0.65220  -0.64932
 Alpha  occ. eigenvalues --   -0.64030  -0.62276  -0.60081  -0.58554  -0.56794
 Alpha  occ. eigenvalues --   -0.55434  -0.54468  -0.53260  -0.53021  -0.51917
 Alpha  occ. eigenvalues --   -0.51621  -0.49258  -0.49122  -0.48996  -0.47097
 Alpha  occ. eigenvalues --   -0.45785  -0.45218  -0.44805  -0.44588  -0.42920
 Alpha  occ. eigenvalues --   -0.37514  -0.36521
 Alpha virt. eigenvalues --    0.04766   0.11082   0.16269   0.20228   0.23131
 Alpha virt. eigenvalues --    0.24491   0.26323   0.27489   0.28436   0.28879
 Alpha virt. eigenvalues --    0.29060   0.30776   0.31458   0.32441   0.32640

 Mulliken charges:
               1
     1  C   -0.170177
     2  C   -0.218571
     3  C   -0.170203
     4  C    0.156813
     5  C   -0.172820
     6  C   -0.219067
     7  H    0.226475
     8  H    0.224202
     9  H    0.275991
    10  H    0.279207
    11  H    0.224753
    12  N    0.493657
    13  O   -0.465670
    14  O   -0.457880
    15  C   -0.291980
    16  C   -0.306042
    17  C   -0.473540
    18  H    0.141612
    19  H    0.143602
    20  H    0.147154
    21  H    0.176887
    22  H    0.146339
    23  H    0.150572
    24  H    0.159257
    25  C   -0.305280
    26  C   -0.298000
    27  C   -0.476083
    28  H    0.145222
    29  H    0.170708
    30  H    0.147600
    31  H    0.145730
    32  H    0.159615
    33  H    0.154272
    34  H    0.155645
 Sum of Mulliken charges =  -0.00000

 Dipole moment (field-independent basis, Debye):
    X=              3.8471    Y=             -0.9055    Z=             -3.3724  Tot=              5.1955
 Quadrupole moment (field-independent basis, Debye-Ang):
   XX=            -78.0790   YY=            -94.1983   ZZ=            -98.0333
   XY=              0.3330   XZ=             -5.5602   YZ=              1.0544

 Normal termination of Gaussian 16 at Wed May  5 15:51:43 2021.
