 Gaussian 16, Revision A.03,
 Gaussian 16:  EM64L-G16RevA.03 25-Dec-2016

 -------------
 #p 6-31g* mp2
 -------------

 ------------------------------------------------------
 Input file generated by CHIRIPA (05-May-2021 14:51:09)
 ------------------------------------------------------
 Symbolic Z-matrix:
 Charge =  0 Multiplicity = 1

                         Standard orientation:
 ---------------------------------------------------------------------
 Center     Atomic      Atomic             Coordinates (Angstroms)
 Number     Number       Type             X           Y           Z
 ---------------------------------------------------------------------
      1          6           0       -2.531576   -1.480724   -0.016154
      2          6           0       -1.045529   -1.372563   -0.359593
      3          6           0       -0.338705   -2.728363   -0.360086
      4          1           0       -2.640083   -1.952758    0.969926
      5          1           0       -3.019923   -2.149598   -0.738318
      6          1           0       -0.560403   -0.702999    0.362177
      7          1           0       -0.940541   -0.900557   -1.344887
      8          1           0       -0.796133   -3.401014   -1.092822
      9          1           0       -0.413835   -3.202334    0.623941
     10          1           0        0.722544   -2.627755   -0.608054
     11          6           0       -3.251928   -0.133578   -0.011647
     12          6           0       -4.737975   -0.241739    0.331791
     13          6           0       -5.444799    1.114061    0.332284
     14          1           0       -2.763581    0.535296    0.710516
     15          1           0       -3.143421    0.338457   -0.997728
     16          1           0       -4.842963   -0.713745    1.317085
     17          1           0       -5.223102   -0.911303   -0.389979
     18          1           0       -5.369669    1.588032   -0.651743
     19          1           0       -4.987371    1.786712    1.065020
     20          1           0       -6.506048    1.013453    0.580252
     21          6           0        2.278422    1.088415   -0.344079
     22          6           0        1.805734    2.427105    0.223777
     23          6           0        0.577911    2.976972   -0.502783
     24          1           0        2.506467    1.210295   -1.411827
     25          1           0        1.457429    0.360837   -0.280871
     26          1           0        2.627815    3.151556    0.160787
     27          1           0        1.578970    2.302068    1.290341
     28          1           0       -0.259597    2.275747   -0.428859
     29          1           0        0.795207    3.130062   -1.564831
     30          1           0        0.256998    3.934430   -0.080705
     31          6           0        3.505082    0.525887    0.371880
     32          6           0        3.977770   -0.812802   -0.195975
     33          6           0        5.205593   -1.362670    0.530586
     34          1           0        4.326075    1.253465    0.308673
     35          1           0        3.277037    0.404007    1.439628
     36          1           0        4.204534   -0.687766   -1.262540
     37          1           0        3.155689   -1.537254   -0.132985
     38          1           0        4.988297   -1.515760    1.592634
     39          1           0        6.043101   -0.661445    0.456661
     40          1           0        5.526506   -2.320128    0.108507
 ---------------------------------------------------------------------

 SCF Done:  E(RHF) =  -470.733003663     A.U. after   11 cycles
 E2 =    -0.1584125538D+01 EUMP2 =    -0.47231712920107D+03

 The electronic state is 1-A.
 Alpha  occ. eigenvalues --  -11.21683 -11.21639 -11.21591 -11.21549 -11.21465
 Alpha  occ. eigenvalues --  -11.21406 -11.21345 -11.21244 -11.21152 -11.21088
 Alpha  occ. eigenvalues --  -11.21058 -11.21000  -1.08503  -1.08375  -1.03595
 Alpha  occ. eigenvalues --   -1.03489  -0.96041  -0.95929  -0.87057  -0.86946
 Alpha  occ. eigenvalues --   -0.79714  -0.79522  -0.78402  -0.78102  -0.65190
 Alpha  occ. eigenvalues --   -0.64974  -0.61005  -0.60875  -0.59413  -0.59304
 Alpha  occ. eigenvalues --   -0.57700  -0.57509  -0.55334  -0.55202  -0.52756
 Alpha  occ. eigenvalues --   -0.52623  -0.52471  -0.52345  -0.50006  -0.49859
 Alpha  occ. eigenvalues --   -0.48129  -0.47777  -0.46780  -0.46578  -0.46072
 Alpha  occ. eigenvalues --   -0.45792  -0.45706  -0.45226  -0.43833  -0.43735
 Alpha virt. eigenvalues --    0.20439   0.22493   0.23464   0.24186   0.25838
 Alpha virt. eigenvalues --    0.26292   0.26585   0.27159   0.28644   0.29292
 Alpha virt. eigenvalues --    0.30481   0.31315   0.31703   0.31975   0.32460

 Mulliken charges:
               1
     1  C   -0.297489
     2  C   -0.303762
     3  C   -0.481608
     4  H    0.149674
     5  H    0.149903
     6  H    0.153609
     7  H    0.153801
     8  H    0.156149
     9  H    0.155338
    10  H    0.164851
    11  C   -0.299824
    12  C   -0.299725
    13  C   -0.475788
    14  H    0.150104
    15  H    0.150455
    16  H    0.151999
    17  H    0.152145
    18  H    0.155492
    19  H    0.155377
    20  H    0.160345
    21  C   -0.309301
    22  C   -0.298907
    23  C   -0.478682
    24  H    0.148841
    25  H    0.162370
    26  H    0.151701
    27  H    0.150753
    28  H    0.158358
    29  H    0.154784
    30  H    0.159762
    31  C   -0.297313
    32  C   -0.304446
    33  C   -0.475428
    34  H    0.149410
    35  H    0.148931
    36  H    0.151925
    37  H    0.155590
    38  H    0.155152
    39  H    0.155268
    40  H    0.160189
 Sum of Mulliken charges =  -0.00000

 Dipole moment (field-independent basis, Debye):
    X=             -0.0556    Y=             -0.0374    Z=             -0.0155  Tot=              0.0688
 Quadrupole moment (field-independent basis, Debye-Ang):
   XX=            -85.6054   YY=            -85.6924   ZZ=            -83.5209
   XY=              1.3425   XZ=             -0.5206   YZ=             -0.0087

 Normal termination of Gaussian 16 at Thu May  6 05:20:19 2021.
