 Gaussian 16, Revision A.03,
 Gaussian 16:  EM64L-G16RevA.03 25-Dec-2016

 -------------
 #p 6-31g* mp2
 -------------

 ------------------------------------------------------
 Input file generated by CHIRIPA (05-May-2021 14:51:13)
 ------------------------------------------------------
 Symbolic Z-matrix:
 Charge =  0 Multiplicity = 1

                         Standard orientation:
 ---------------------------------------------------------------------
 Center     Atomic      Atomic             Coordinates (Angstroms)
 Number     Number       Type             X           Y           Z
 ---------------------------------------------------------------------
      1          6           0        3.170429    0.792727   -0.291163
      2          6           0        3.078516    2.194472    0.312698
      3          6           0        1.935169    3.019286   -0.279106
      4          1           0        3.301710    0.876768   -1.378659
      5          1           0        2.217943    0.268828   -0.130869
      6          1           0        4.031371    2.715079    0.152530
      7          1           0        2.947631    2.107088    1.398907
      8          1           0        0.973846    2.524618   -0.106588
      9          1           0        2.063743    3.136063   -1.360047
     10          1           0        1.887788    4.017706    0.166732
     11          6           0        4.308620   -0.043985    0.290354
     12          6           0        4.400533   -1.445730   -0.313507
     13          6           0        5.543881   -2.270543    0.278298
     14          1           0        5.261106    0.479915    0.130060
     15          1           0        4.177339   -0.128025    1.377850
     16          1           0        4.531419   -1.358345   -1.399715
     17          1           0        3.447679   -1.966336   -0.153338
     18          1           0        5.415307   -2.387320    1.359239
     19          1           0        6.505204   -1.775875    0.105780
     20          1           0        5.591261   -3.268964   -0.167540
     21          6           0       -3.039055   -0.221479    0.263838
     22          6           0       -1.931277   -0.941853   -0.505496
     23          6           0       -0.535685   -0.625922    0.033306
     24          1           0       -2.863467    0.862050    0.218246
     25          1           0       -2.982071   -0.503006    1.324447
     26          1           0       -1.991197   -0.660123   -1.564577
     27          1           0       -2.109627   -2.023784   -0.458229
     28          1           0       -0.451796   -0.923315    1.083601
     29          1           0       -0.332694    0.448093   -0.029033
     30          1           0        0.241002   -1.151306   -0.531130
     31          6           0       -4.439996   -0.527264   -0.263029
     32          6           0       -5.547774    0.193110    0.506304
     33          6           0       -6.943364   -0.122820   -0.032497
     34          1           0       -4.496978   -0.245737   -1.323638
     35          1           0       -4.615582   -1.610793   -0.217438
     36          1           0       -5.369423    1.275041    0.459038
     37          1           0       -5.487853   -0.088620    1.565386
     38          1           0       -7.146356   -1.196836    0.029841
     39          1           0       -7.027253    0.174572   -1.082793
     40          1           0       -7.720051    0.402564    0.531939
 ---------------------------------------------------------------------

 SCF Done:  E(RHF) =  -470.732452170     A.U. after   11 cycles
 E2 =    -0.1583606926D+01 EUMP2 =    -0.47231605909579D+03

 The electronic state is 1-A.
 Alpha  occ. eigenvalues --  -11.21652 -11.21621 -11.21554 -11.21523 -11.21441
 Alpha  occ. eigenvalues --  -11.21380 -11.21295 -11.21173 -11.21154 -11.21085
 Alpha  occ. eigenvalues --  -11.21040 -11.21034  -1.08472  -1.08340  -1.03585
 Alpha  occ. eigenvalues --   -1.03466  -0.96041  -0.95916  -0.87074  -0.86932
 Alpha  occ. eigenvalues --   -0.79703  -0.79501  -0.78302  -0.78117  -0.65123
 Alpha  occ. eigenvalues --   -0.64965  -0.61066  -0.60800  -0.59420  -0.59287
 Alpha  occ. eigenvalues --   -0.57687  -0.57487  -0.55360  -0.55186  -0.52815
 Alpha  occ. eigenvalues --   -0.52611  -0.52482  -0.52292  -0.50038  -0.49837
 Alpha  occ. eigenvalues --   -0.48027  -0.47796  -0.46788  -0.46465  -0.45903
 Alpha  occ. eigenvalues --   -0.45757  -0.45674  -0.45453  -0.43753  -0.43686
 Alpha virt. eigenvalues --    0.21592   0.22970   0.23527   0.24318   0.25821
 Alpha virt. eigenvalues --    0.26248   0.26982   0.27236   0.27872   0.29342
 Alpha virt. eigenvalues --    0.30099   0.31446   0.31763   0.31929   0.32389

 Mulliken charges:
               1
     1  C   -0.310257
     2  C   -0.298690
     3  C   -0.480372
     4  H    0.148069
     5  H    0.165667
     6  H    0.151451
     7  H    0.151541
     8  H    0.158429
     9  H    0.155060
    10  H    0.160117
    11  C   -0.297327
    12  C   -0.300334
    13  C   -0.475581
    14  H    0.148905
    15  H    0.149221
    16  H    0.151663
    17  H    0.151873
    18  H    0.155122
    19  H    0.155184
    20  H    0.159946
    21  C   -0.298742
    22  C   -0.299577
    23  C   -0.484356
    24  H    0.149731
    25  H    0.149489
    26  H    0.152621
    27  H    0.152098
    28  H    0.155233
    29  H    0.160981
    30  H    0.162366
    31  C   -0.298368
    32  C   -0.299680
    33  C   -0.475733
    34  H    0.149724
    35  H    0.149724
    36  H    0.152094
    37  H    0.151914
    38  H    0.155187
    39  H    0.155265
    40  H    0.160341
 Sum of Mulliken charges =  -0.00000

 Dipole moment (field-independent basis, Debye):
    X=             -0.0600    Y=             -0.0203    Z=             -0.0006  Tot=              0.0634
 Quadrupole moment (field-independent basis, Debye-Ang):
   XX=            -86.3790   YY=            -84.6676   ZZ=            -84.0359
   XY=              0.6586   XZ=             -1.0258   YZ=             -0.5739

 Normal termination of Gaussian 16 at Thu May  6 02:23:39 2021.
