 Gaussian 16, Revision A.03,
 Gaussian 16:  EM64L-G16RevA.03 25-Dec-2016

 -------------
 #p 6-31g* mp2
 -------------

 ------------------------------------------------------
 Input file generated by CHIRIPA (05-May-2021 14:55:22)
 ------------------------------------------------------
 Symbolic Z-matrix:
 Charge =  0 Multiplicity = 1

                         Standard orientation:
 ---------------------------------------------------------------------
 Center     Atomic      Atomic             Coordinates (Angstroms)
 Number     Number       Type             X           Y           Z
 ---------------------------------------------------------------------
      1          6           0        6.014558    1.047506    0.570110
      2          6           0        5.108734    1.745220   -0.235618
      3          6           0        3.874612    1.179965   -0.570248
      4          6           0        3.577588   -0.090609   -0.079628
      5          6           0        4.458976   -0.810841    0.725177
      6          6           0        5.687365   -0.226052    1.047096
      7          1           0        6.971027    1.494197    0.825121
      8          1           0        5.360158    2.734439   -0.607475
      9          1           0        3.154729    1.697981   -1.192218
     10          1           0        4.180115   -1.795290    1.080866
     11          1           0        6.388888   -0.770226    1.673024
     12          7           0        2.274113   -0.699359   -0.427157
     13          8           0        2.036268   -1.820132    0.017741
     14          8           0        1.514975   -0.044196   -1.137867
     15          6           0       -5.584595   -0.174964    0.182486
     16          6           0       -6.474112    1.064869    0.280242
     17          6           0       -7.932259    0.723464    0.588533
     18          1           0       -5.979362   -0.841125   -0.596830
     19          1           0       -5.639638   -0.732614    1.127680
     20          1           0       -6.416327    1.620750   -0.664360
     21          1           0       -6.077072    1.728245    1.059284
     22          1           0       -8.009705    0.188842    1.540784
     23          1           0       -8.350888    0.080736   -0.192654
     24          1           0       -8.550315    1.624342    0.653997
     25          6           0       -4.123992    0.150080   -0.125268
     26          6           0       -3.234474   -1.089753   -0.223024
     27          6           0       -1.776326   -0.748348   -0.531315
     28          1           0       -4.068948    0.707730   -1.070462
     29          1           0       -3.729225    0.816241    0.654048
     30          1           0       -3.631514   -1.753130   -1.002067
     31          1           0       -3.292259   -1.645634    0.721578
     32          1           0       -1.357699   -0.105620    0.249872
     33          1           0       -1.698881   -0.213727   -1.483567
     34          1           0       -1.158271   -1.649226   -0.596779
 ---------------------------------------------------------------------

 SCF Done:  E(RHF) =  -669.536061908     A.U. after   15 cycles
 E2 =    -0.2091388474D+01 EUMP2 =    -0.67162745038154D+03

 The electronic state is 1-A.
 Alpha  occ. eigenvalues --  -20.60927 -20.60912 -15.85934 -11.31282 -11.27844
 Alpha  occ. eigenvalues --  -11.27840 -11.27584 -11.26854 -11.26844 -11.20957
 Alpha  occ. eigenvalues --  -11.20562 -11.20544 -11.20324 -11.20156 -11.19006
 Alpha  occ. eigenvalues --   -1.59964  -1.39521  -1.19448  -1.08848  -1.07453
 Alpha  occ. eigenvalues --   -1.04847  -1.02421  -0.95690  -0.94819  -0.86247
 Alpha  occ. eigenvalues --   -0.85823  -0.82519  -0.78525  -0.77571  -0.77207
 Alpha  occ. eigenvalues --   -0.72140  -0.71277  -0.70556  -0.65102  -0.64849
 Alpha  occ. eigenvalues --   -0.64103  -0.62193  -0.59837  -0.58299  -0.56420
 Alpha  occ. eigenvalues --   -0.55351  -0.54136  -0.53179  -0.52939  -0.51507
 Alpha  occ. eigenvalues --   -0.51257  -0.48911  -0.48836  -0.48791  -0.46808
 Alpha  occ. eigenvalues --   -0.45615  -0.44961  -0.44682  -0.44659  -0.42613
 Alpha  occ. eigenvalues --   -0.37428  -0.36449
 Alpha virt. eigenvalues --    0.04953   0.11206   0.16450   0.21344   0.23740
 Alpha virt. eigenvalues --    0.25452   0.27258   0.27551   0.28210   0.28387
 Alpha virt. eigenvalues --    0.29223   0.30911   0.32432   0.32453   0.32640

 Mulliken charges:
               1
     1  C   -0.170651
     2  C   -0.218563
     3  C   -0.170891
     4  C    0.158692
     5  C   -0.170817
     6  C   -0.218577
     7  H    0.225917
     8  H    0.223780
     9  H    0.275892
    10  H    0.275787
    11  H    0.223747
    12  N    0.488483
    13  O   -0.460201
    14  O   -0.456807
    15  C   -0.297045
    16  C   -0.298726
    17  C   -0.475100
    18  H    0.148324
    19  H    0.147875
    20  H    0.150851
    21  H    0.150425
    22  H    0.154256
    23  H    0.154491
    24  H    0.157987
    25  C   -0.296552
    26  C   -0.303296
    27  C   -0.466219
    28  H    0.147697
    29  H    0.146836
    30  H    0.147368
    31  H    0.147216
    32  H    0.148915
    33  H    0.154291
    34  H    0.174615
 Sum of Mulliken charges =  -0.00000

 Dipole moment (field-independent basis, Debye):
    X=              5.0209    Y=              2.1099    Z=              1.1582  Tot=              5.5680
 Quadrupole moment (field-independent basis, Debye-Ang):
   XX=            -65.0197   YY=            -92.1343   ZZ=            -93.2546
   XY=              6.3104   XZ=              5.4624   YZ=             -2.7180

 Normal termination of Gaussian 16 at Thu May  6 06:14:22 2021.
