 Gaussian 16, Revision A.03,
 Gaussian 16:  EM64L-G16RevA.03 25-Dec-2016

 -------------
 #p 6-31g* mp2
 -------------

 ------------------------------------------------------
 Input file generated by CHIRIPA (05-May-2021 14:57:22)
 ------------------------------------------------------
 Symbolic Z-matrix:
 Charge =  0 Multiplicity = 1

                         Standard orientation:
 ---------------------------------------------------------------------
 Center     Atomic      Atomic             Coordinates (Angstroms)
 Number     Number       Type             X           Y           Z
 ---------------------------------------------------------------------
      1          6           0       -3.709788    2.203502   -1.114206
      2          6           0       -2.886859    2.318876    0.010959
      3          6           0       -2.497660    1.182012    0.725532
      4          6           0       -2.951842   -0.060135    0.284990
      5          6           0       -3.772534   -0.207687   -0.832141
      6          6           0       -4.149224    0.942812   -1.531430
      7          1           0       -4.007268    3.091941   -1.663367
      8          1           0       -2.544073    3.296658    0.337279
      9          1           0       -1.861270    1.242563    1.600038
     10          1           0       -4.098295   -1.195945   -1.133214
     11          1           0       -4.788394    0.850196   -2.404888
     12          7           0       -2.546436   -1.270899    1.033386
     13          8           0       -2.960033   -2.353789    0.624821
     14          8           0       -1.822758   -1.114081    2.014373
     15          6           0        4.769283    1.536354    0.540523
     16          6           0        3.518251    1.527203    1.166108
     17          6           0        2.540672    0.603201    0.785177
     18          6           0        2.849414   -0.301420   -0.229529
     19          6           0        4.086520   -0.317374   -0.871871
     20          6           0        5.048932    0.615659   -0.474681
     21          1           0        5.522798    2.257649    0.842755
     22          1           0        3.298287    2.241053    1.954828
     23          1           0        1.563935    0.573994    1.252670
     24          1           0        4.276437   -1.041343   -1.654955
     25          1           0        6.019637    0.620447   -0.962282
     26          7           0        1.822524   -1.284400   -0.641410
     27          8           0        2.119309   -2.070932   -1.538028
     28          8           0        0.740307   -1.249715   -0.059827
 ---------------------------------------------------------------------

 SCF Done:  E(RHF) =  -868.337052808     A.U. after   16 cycles
 E2 =    -0.2600875027D+01 EUMP2 =    -0.87093792783479D+03

 The electronic state is 1-A.
 Alpha  occ. eigenvalues --  -20.60436 -20.60401 -20.59717 -20.59712 -15.85477
 Alpha  occ. eigenvalues --  -15.84783 -11.30984 -11.30453 -11.27578 -11.27563
 Alpha  occ. eigenvalues --  -11.27360 -11.27130 -11.27024 -11.26894 -11.26634
 Alpha  occ. eigenvalues --  -11.26621 -11.26226 -11.26146  -1.59492  -1.58740
 Alpha  occ. eigenvalues --   -1.39041  -1.38307  -1.19175  -1.18654  -1.08547
 Alpha  occ. eigenvalues --   -1.07990  -1.04602  -1.04132  -0.95357  -0.94785
 Alpha  occ. eigenvalues --   -0.85992  -0.85513  -0.82192  -0.81641  -0.77214
 Alpha  occ. eigenvalues --   -0.76623  -0.71778  -0.71033  -0.70818  -0.70300
 Alpha  occ. eigenvalues --   -0.69900  -0.69801  -0.64825  -0.64612  -0.64326
 Alpha  occ. eigenvalues --   -0.64165  -0.61946  -0.61495  -0.55105  -0.54640
 Alpha  occ. eigenvalues --   -0.52924  -0.52700  -0.52409  -0.52252  -0.48468
 Alpha  occ. eigenvalues --   -0.48441  -0.47789  -0.47748  -0.44418  -0.43631
 Alpha  occ. eigenvalues --   -0.37171  -0.36627  -0.36214  -0.35745
 Alpha virt. eigenvalues --    0.05315   0.05989   0.11437   0.11891   0.16792
 Alpha virt. eigenvalues --    0.17396   0.21185   0.22019   0.26451   0.27762
 Alpha virt. eigenvalues --    0.28199   0.29206   0.30572   0.31588   0.32291

 Mulliken charges:
               1
     1  C   -0.172088
     2  C   -0.218875
     3  C   -0.170077
     4  C    0.168023
     5  C   -0.169200
     6  C   -0.218358
     7  H    0.222156
     8  H    0.217661
     9  H    0.268289
    10  H    0.276497
    11  H    0.221568
    12  N    0.495883
    13  O   -0.458753
    14  O   -0.462099
    15  C   -0.171181
    16  C   -0.218977
    17  C   -0.171674
    18  C    0.158333
    19  C   -0.171022
    20  C   -0.218739
    21  H    0.224429
    22  H    0.221475
    23  H    0.278153
    24  H    0.275534
    25  H    0.222672
    26  N    0.489683
    27  O   -0.461254
    28  O   -0.458058
 Sum of Mulliken charges =  -0.00000

 Dipole moment (field-independent basis, Debye):
    X=              2.2098    Y=              7.4289    Z=             -1.1879  Tot=              7.8411
 Quadrupole moment (field-independent basis, Debye-Ang):
   XX=            -74.0032   YY=           -106.4989   ZZ=           -103.7990
   XY=             -2.8560   XZ=             10.3778   YZ=              3.6870

 Normal termination of Gaussian 16 at Thu May  6 06:33:20 2021.
