 Gaussian 16, Revision A.03,
 Gaussian 16:  EM64L-G16RevA.03 25-Dec-2016

 -------------
 #p 6-31g* mp2
 -------------

 ------------------------------------------------------
 Input file generated by CHIRIPA (05-May-2021 14:55:22)
 ------------------------------------------------------
 Symbolic Z-matrix:
 Charge =  0 Multiplicity = 1

                         Standard orientation:
 ---------------------------------------------------------------------
 Center     Atomic      Atomic             Coordinates (Angstroms)
 Number     Number       Type             X           Y           Z
 ---------------------------------------------------------------------
      1          6           0        6.262584   -0.369632    0.052146
      2          6           0        5.329936   -1.370518   -0.239256
      3          6           0        3.967077   -1.069387   -0.319775
      4          6           0        3.570070    0.249085   -0.102272
      5          6           0        4.475044    1.268372    0.189901
      6          6           0        5.832919    0.944303    0.265418
      7          1           0        7.319350   -0.612467    0.112753
      8          1           0        5.660746   -2.391803   -0.405350
      9          1           0        3.223659   -1.824757   -0.543743
     10          1           0        4.114989    2.277312    0.350584
     11          1           0        6.554983    1.723647    0.491895
     12          7           0        2.129910    0.580021   -0.184866
     13          8           0        1.805717    1.749303    0.010880
     14          8           0        1.352576   -0.336139   -0.443786
     15          6           0       -4.269771   -0.354737    0.569292
     16          6           0       -3.088245   -1.023003   -0.134553
     17          6           0       -1.888056   -1.227748    0.790337
     18          1           0       -3.947064    0.614463    0.973591
     19          1           0       -4.569534   -0.968327    1.430132
     20          1           0       -2.791688   -0.409043   -0.994625
     21          1           0       -3.413853   -1.990639   -0.537389
     22          1           0       -2.161404   -1.858772    1.642211
     23          1           0       -1.535704   -0.268189    1.182377
     24          1           0       -1.054875   -1.706863    0.266775
     25          6           0       -5.477238   -0.143293   -0.342325
     26          6           0       -6.658764    0.524974    0.361522
     27          6           0       -7.858953    0.729718   -0.563368
     28          1           0       -5.177475    0.470297   -1.203164
     29          1           0       -5.799944   -1.112492   -0.746623
     30          1           0       -6.333156    1.492610    0.764357
     31          1           0       -6.955321   -0.088987    1.221593
     32          1           0       -8.211305   -0.229841   -0.955410
     33          1           0       -7.585605    1.360743   -1.415244
     34          1           0       -8.692134    1.208834   -0.039806
 ---------------------------------------------------------------------

 SCF Done:  E(RHF) =  -669.535782075     A.U. after   15 cycles
 E2 =    -0.2090815182D+01 EUMP2 =    -0.67162659725717D+03

 The electronic state is 1-A.
 Alpha  occ. eigenvalues --  -20.60899 -20.60888 -15.85936 -11.31272 -11.27839
 Alpha  occ. eigenvalues --  -11.27835 -11.27578 -11.26849 -11.26840 -11.20901
 Alpha  occ. eigenvalues --  -11.20528 -11.20488 -11.20326 -11.20248 -11.19338
 Alpha  occ. eigenvalues --   -1.59960  -1.39517  -1.19442  -1.08844  -1.07447
 Alpha  occ. eigenvalues --   -1.04842  -1.02464  -0.95687  -0.94896  -0.86242
 Alpha  occ. eigenvalues --   -0.85918  -0.82519  -0.78573  -0.77569  -0.77228
 Alpha  occ. eigenvalues --   -0.72165  -0.71277  -0.70552  -0.65099  -0.64846
 Alpha  occ. eigenvalues --   -0.64083  -0.62190  -0.59861  -0.58322  -0.56491
 Alpha  occ. eigenvalues --   -0.55346  -0.54195  -0.53172  -0.52935  -0.51569
 Alpha  occ. eigenvalues --   -0.51336  -0.49049  -0.48911  -0.48698  -0.46870
 Alpha  occ. eigenvalues --   -0.45626  -0.44929  -0.44768  -0.44664  -0.42693
 Alpha  occ. eigenvalues --   -0.37422  -0.36444
 Alpha virt. eigenvalues --    0.04958   0.11211   0.16448   0.21332   0.23793
 Alpha virt. eigenvalues --    0.25432   0.27255   0.27591   0.28139   0.28437
 Alpha virt. eigenvalues --    0.29175   0.30894   0.32322   0.32434   0.32662

 Mulliken charges:
               1
     1  C   -0.170668
     2  C   -0.218519
     3  C   -0.170629
     4  C    0.157864
     5  C   -0.170681
     6  C   -0.218560
     7  H    0.225900
     8  H    0.223744
     9  H    0.275426
    10  H    0.275768
    11  H    0.223721
    12  N    0.491697
    13  O   -0.460084
    14  O   -0.462254
    15  C   -0.297854
    16  C   -0.299993
    17  C   -0.474109
    18  H    0.150780
    19  H    0.145768
    20  H    0.156466
    21  H    0.145100
    22  H    0.142096
    23  H    0.161608
    24  H    0.173262
    25  C   -0.297566
    26  C   -0.298959
    27  C   -0.475179
    28  H    0.149700
    29  H    0.147235
    30  H    0.151834
    31  H    0.150269
    32  H    0.153869
    33  H    0.154827
    34  H    0.158121
 Sum of Mulliken charges =  -0.00000

 Dipole moment (field-independent basis, Debye):
    X=              5.4289    Y=             -1.1012    Z=              0.2374  Tot=              5.5445
 Quadrupole moment (field-independent basis, Debye-Ang):
   XX=            -61.0942   YY=            -90.1913   ZZ=            -95.9025
   XY=             -1.5713   XZ=              0.3609   YZ=              1.3781

 Normal termination of Gaussian 16 at Thu May  6 04:39:36 2021.
