 Gaussian 16, Revision A.03,
 Gaussian 16:  EM64L-G16RevA.03 25-Dec-2016

 -------------
 #p 6-31g* mp2
 -------------

 ------------------------------------------------------
 Input file generated by CHIRIPA (05-May-2021 14:53:13)
 ------------------------------------------------------
 Symbolic Z-matrix:
 Charge =  0 Multiplicity = 1

                         Standard orientation:
 ---------------------------------------------------------------------
 Center     Atomic      Atomic             Coordinates (Angstroms)
 Number     Number       Type             X           Y           Z
 ---------------------------------------------------------------------
      1          6           0        3.423362    0.847000   -0.472977
      2          6           0        2.835462    2.057040    0.253770
      3          6           0        2.282482    3.111490   -0.705471
      4          1           0        4.221342    1.184935   -1.148235
      5          1           0        2.647368    0.396246   -1.107050
      6          1           0        3.611950    2.504552    0.887343
      7          1           0        2.038918    1.716163    0.927518
      8          1           0        1.489243    2.686744   -1.329140
      9          1           0        3.071212    3.479613   -1.369543
     10          1           0        1.867176    3.967679   -0.164803
     11          6           0        3.980204   -0.215855    0.472536
     12          6           0        4.568104   -1.425895   -0.254211
     13          6           0        5.121084   -2.480345    0.705029
     14          1           0        4.756199    0.234899    1.106608
     15          1           0        3.182224   -0.553789    1.147794
     16          1           0        5.364648   -1.085018   -0.927959
     17          1           0        3.791617   -1.873407   -0.887785
     18          1           0        4.332354   -2.848468    1.369101
     19          1           0        5.914323   -2.055599    1.328698
     20          1           0        5.536390   -3.336534    0.164362
     21          6           0       -5.399843   -0.124063    0.248640
     22          6           0       -4.591533    0.870799    0.808465
     23          6           0       -3.200869    0.813131    0.677022
     24          6           0       -2.649571   -0.258382   -0.023849
     25          6           0       -3.428184   -1.264945   -0.592956
     26          6           0       -4.816618   -1.186886   -0.449053
     27          1           0       -6.479278   -0.071346    0.355588
     28          1           0       -5.041718    1.697367    1.350834
     29          1           0       -2.551519    1.569771    1.100413
     30          1           0       -2.950389   -2.076631   -1.128021
     31          1           0       -5.441890   -1.960930   -0.884869
     32          7           0       -1.178518   -0.330225   -0.169597
     33          8           0       -0.717330   -1.284594   -0.791788
     34          8           0       -0.514549    0.569193    0.341120
 ---------------------------------------------------------------------

 SCF Done:  E(RHF) =  -669.536656853     A.U. after   15 cycles
 E2 =    -0.2091503911D+01 EUMP2 =    -0.67162816076373D+03

 The electronic state is 1-A.
 Alpha  occ. eigenvalues --  -20.61112 -20.61103 -15.86128 -11.31387 -11.27942
 Alpha  occ. eigenvalues --  -11.27938 -11.27669 -11.26935 -11.26925 -11.20345
 Alpha  occ. eigenvalues --  -11.20057 -11.19928 -11.19866 -11.19697 -11.19651
 Alpha  occ. eigenvalues --   -1.60161  -1.39718  -1.19549  -1.08966  -1.06917
 Alpha  occ. eigenvalues --   -1.04935  -1.02117  -0.95817  -0.94611  -0.86339
 Alpha  occ. eigenvalues --   -0.85638  -0.82654  -0.78205  -0.77712  -0.76718
 Alpha  occ. eigenvalues --   -0.72358  -0.71467  -0.70657  -0.65208  -0.64940
 Alpha  occ. eigenvalues --   -0.63503  -0.62282  -0.59478  -0.58005  -0.56232
 Alpha  occ. eigenvalues --   -0.55442  -0.53881  -0.53270  -0.53026  -0.51365
 Alpha  occ. eigenvalues --   -0.51056  -0.49141  -0.49104  -0.48505  -0.46532
 Alpha  occ. eigenvalues --   -0.45226  -0.45102  -0.44272  -0.44105  -0.42362
 Alpha  occ. eigenvalues --   -0.37525  -0.36533
 Alpha virt. eigenvalues --    0.04804   0.11123   0.16310   0.21246   0.24376
 Alpha virt. eigenvalues --    0.25628   0.27188   0.27948   0.28398   0.28987
 Alpha virt. eigenvalues --    0.29284   0.30853   0.32317   0.32751   0.33068

 Mulliken charges:
               1
     1  C   -0.298807
     2  C   -0.301237
     3  C   -0.474563
     4  H    0.140578
     5  H    0.163010
     6  H    0.141114
     7  H    0.171467
     8  H    0.160254
     9  H    0.147618
    10  H    0.152051
    11  C   -0.297725
    12  C   -0.299969
    13  C   -0.474891
    14  H    0.142666
    15  H    0.155634
    16  H    0.147359
    17  H    0.157478
    18  H    0.155069
    19  H    0.151750
    20  H    0.156285
    21  C   -0.170362
    22  C   -0.218565
    23  C   -0.170614
    24  C    0.157336
    25  C   -0.170347
    26  C   -0.218627
    27  H    0.226366
    28  H    0.224227
    29  H    0.276083
    30  H    0.275972
    31  H    0.224137
    32  N    0.492662
    33  O   -0.459397
    34  O   -0.464011
 Sum of Mulliken charges =  -0.00000

 Dipole moment (field-independent basis, Debye):
    X=             -5.6664    Y=              0.1119    Z=              0.5201  Tot=              5.6913
 Quadrupole moment (field-independent basis, Debye-Ang):
   XX=            -68.9042   YY=            -92.9592   ZZ=            -94.5143
   XY=              1.5489   XZ=             -1.3286   YZ=              3.1507

 Normal termination of Gaussian 16 at Wed May  5 17:04:14 2021.
