 Gaussian 16, Revision A.03,
 Gaussian 16:  EM64L-G16RevA.03 25-Dec-2016

 -------------
 #p 6-31g* mp2
 -------------

 ------------------------------------------------------
 Input file generated by CHIRIPA (05-May-2021 14:53:12)
 ------------------------------------------------------
 Symbolic Z-matrix:
 Charge =  0 Multiplicity = 1

                         Standard orientation:
 ---------------------------------------------------------------------
 Center     Atomic      Atomic             Coordinates (Angstroms)
 Number     Number       Type             X           Y           Z
 ---------------------------------------------------------------------
      1          6           0        2.711593    0.644646    0.626737
      2          6           0        2.911817    2.158641    0.702340
      3          6           0        2.040697    2.817443    1.772351
      4          1           0        1.653443    0.430854    0.422884
      5          1           0        2.936519    0.202638    1.607263
      6          1           0        2.687915    2.597504   -0.278417
      7          1           0        3.969649    2.368859    0.905846
      8          1           0        2.268945    2.407049    2.761331
      9          1           0        0.979929    2.636993    1.570339
     10          1           0        2.199731    3.899669    1.809172
     11          6           0        3.575623   -0.028272   -0.438327
     12          6           0        3.375399   -1.542266   -0.513929
     13          6           0        4.246518   -2.201068   -1.583941
     14          1           0        3.350696    0.413737   -1.418853
     15          1           0        4.633773    0.185521   -0.234474
     16          1           0        2.317566   -1.752484   -0.717436
     17          1           0        3.599300   -1.981129    0.466827
     18          1           0        5.307287   -2.020618   -1.381928
     19          1           0        4.018270   -1.790674   -2.572920
     20          1           0        4.087484   -3.283294   -1.620762
     21          6           0       -1.916544   -1.921741    1.728988
     22          6           0       -3.238247   -1.510088    1.528579
     23          6           0       -3.548734   -0.579230    0.532763
     24          6           0       -2.508090   -0.078262   -0.247865
     25          6           0       -1.181401   -0.468719   -0.072574
     26          6           0       -0.894142   -1.400661    0.929181
     27          1           0       -1.684372   -2.645275    2.504868
     28          1           0       -4.034293   -1.913082    2.148217
     29          1           0       -4.563266   -0.243174    0.356102
     30          1           0       -0.409303   -0.049261   -0.706086
     31          1           0        0.133221   -1.718536    1.082565
     32          7           0       -2.824495    0.907770   -1.305235
     33          8           0       -1.889585    1.334153   -1.979608
     34          8           0       -4.001409    1.235569   -1.439605
 ---------------------------------------------------------------------

 SCF Done:  E(RHF) =  -669.535264336     A.U. after   15 cycles
 E2 =    -0.2092806164D+01 EUMP2 =    -0.67162807049979D+03

 The electronic state is 1-A.
 Alpha  occ. eigenvalues --  -20.60781 -20.60775 -15.85832 -11.31186 -11.27748
 Alpha  occ. eigenvalues --  -11.27731 -11.27472 -11.26768 -11.26715 -11.22345
 Alpha  occ. eigenvalues --  -11.22022 -11.21904 -11.21879 -11.21565 -11.21248
 Alpha  occ. eigenvalues --   -1.59855  -1.39409  -1.19353  -1.08979  -1.08746
 Alpha  occ. eigenvalues --   -1.04755  -1.03980  -0.96414  -0.95588  -0.87430
 Alpha  occ. eigenvalues --   -0.86147  -0.82429  -0.80070  -0.78847  -0.77448
 Alpha  occ. eigenvalues --   -0.72052  -0.71178  -0.70473  -0.65649  -0.64988
 Alpha  occ. eigenvalues --   -0.64747  -0.62100  -0.61368  -0.59794  -0.58031
 Alpha  occ. eigenvalues --   -0.55698  -0.55243  -0.53101  -0.53096  -0.52854
 Alpha  occ. eigenvalues --   -0.52795  -0.50354  -0.48809  -0.48807  -0.48373
 Alpha  occ. eigenvalues --   -0.47106  -0.46325  -0.46237  -0.44817  -0.44261
 Alpha  occ. eigenvalues --   -0.37328  -0.36332
 Alpha virt. eigenvalues --    0.05019   0.11279   0.16458   0.19319   0.22804
 Alpha virt. eigenvalues --    0.23816   0.24836   0.25860   0.27532   0.28170
 Alpha virt. eigenvalues --    0.30033   0.30947   0.31183   0.31552   0.32566

 Mulliken charges:
               1
     1  C   -0.304747
     2  C   -0.300363
     3  C   -0.476580
     4  H    0.144808
     5  H    0.147944
     6  H    0.158212
     7  H    0.153148
     8  H    0.152990
     9  H    0.157802
    10  H    0.163396
    11  C   -0.299211
    12  C   -0.302701
    13  C   -0.475838
    14  H    0.154920
    15  H    0.153040
    16  H    0.145023
    17  H    0.150261
    18  H    0.157595
    19  H    0.159241
    20  H    0.160826
    21  C   -0.171393
    22  C   -0.218246
    23  C   -0.171225
    24  C    0.159187
    25  C   -0.176126
    26  C   -0.220458
    27  H    0.225854
    28  H    0.223485
    29  H    0.275552
    30  H    0.277052
    31  H    0.229479
    32  N    0.488385
    33  O   -0.461100
    34  O   -0.460209
 Sum of Mulliken charges =  -0.00000

 Dipole moment (field-independent basis, Debye):
    X=              1.2427    Y=             -3.3881    Z=              3.6839  Tot=              5.1570
 Quadrupole moment (field-independent basis, Debye-Ang):
   XX=            -94.7508   YY=            -95.0127   ZZ=            -96.9768
   XY=              9.4049   XZ=            -10.5190   YZ=             -0.0994

 Normal termination of Gaussian 16 at Thu May  6 04:06:35 2021.
