 Gaussian 16, Revision A.03,
 Gaussian 16:  EM64L-G16RevA.03 25-Dec-2016

 -------------
 #p 6-31g* mp2
 -------------

 ------------------------------------------------------
 Input file generated by CHIRIPA (05-May-2021 14:51:09)
 ------------------------------------------------------
 Symbolic Z-matrix:
 Charge =  0 Multiplicity = 1

                         Standard orientation:
 ---------------------------------------------------------------------
 Center     Atomic      Atomic             Coordinates (Angstroms)
 Number     Number       Type             X           Y           Z
 ---------------------------------------------------------------------
      1          6           0        4.680222    0.422356    0.094557
      2          6           0        5.322642   -0.878408   -0.388447
      3          6           0        6.818995   -0.948057   -0.082062
      4          1           0        5.192163    1.273255   -0.375372
      5          1           0        4.838732    0.521427    1.177356
      6          1           0        5.161769   -0.975675   -1.469777
      7          1           0        4.808987   -1.726316    0.082538
      8          1           0        6.995216   -0.876311    0.996085
      9          1           0        7.350003   -0.121405   -0.565051
     10          1           0        7.258003   -1.886104   -0.435897
     11          6           0        3.184511    0.506838   -0.204510
     12          6           0        2.542090    1.807602    0.278494
     13          6           0        1.045738    1.877251   -0.027891
     14          1           0        3.026001    0.407767   -1.287309
     15          1           0        2.672569   -0.344061    0.265419
     16          1           0        3.055746    2.655510   -0.192491
     17          1           0        2.702964    1.904869    1.359824
     18          1           0        0.514730    1.050599    0.455098
     19          1           0        0.869516    1.805505   -1.106038
     20          1           0        0.606730    2.815298    0.325944
     21          6           0       -4.460532    0.078711    0.151358
     22          6           0       -5.829733   -0.299459   -0.414557
     23          6           0       -6.875752    0.797560   -0.214081
     24          1           0       -4.561907    0.299275    1.222816
     25          1           0       -4.117020    1.006102   -0.327537
     26          1           0       -6.169937   -1.226611    0.064262
     27          1           0       -5.725051   -0.519334   -1.484749
     28          1           0       -6.562096    1.723589   -0.706718
     29          1           0       -7.009509    1.012293    0.851094
     30          1           0       -7.847002    0.506291   -0.626024
     31          6           0       -3.404201   -1.007905   -0.041406
     32          6           0       -2.034999   -0.629735    0.524510
     33          6           0       -0.988981   -1.726754    0.324034
     34          1           0       -3.747712   -1.935297    0.437491
     35          1           0       -3.302826   -1.228469   -1.112863
     36          1           0       -2.139680   -0.409861    1.594702
     37          1           0       -1.694796    0.297416    0.045692
     38          1           0       -0.855224   -1.941487   -0.741141
     39          1           0       -1.302637   -2.652783    0.816671
     40          1           0       -0.017731   -1.435485    0.735977
 ---------------------------------------------------------------------

 SCF Done:  E(RHF) =  -470.732687913     A.U. after   11 cycles
 E2 =    -0.1583306583D+01 EUMP2 =    -0.47231599449594D+03

 The electronic state is 1-A.
 Alpha  occ. eigenvalues --  -11.21590 -11.21584 -11.21581 -11.21536 -11.21398
 Alpha  occ. eigenvalues --  -11.21376 -11.21339 -11.21317 -11.21076 -11.21062
 Alpha  occ. eigenvalues --  -11.21054 -11.21004  -1.08431  -1.08394  -1.03565
 Alpha  occ. eigenvalues --   -1.03468  -0.96020  -0.95917  -0.86989  -0.86981
 Alpha  occ. eigenvalues --   -0.79656  -0.79510  -0.78265  -0.78185  -0.65089
 Alpha  occ. eigenvalues --   -0.65010  -0.61044  -0.60835  -0.59436  -0.59254
 Alpha  occ. eigenvalues --   -0.57750  -0.57423  -0.55316  -0.55167  -0.52686
 Alpha  occ. eigenvalues --   -0.52657  -0.52440  -0.52333  -0.49954  -0.49854
 Alpha  occ. eigenvalues --   -0.47968  -0.47829  -0.46697  -0.46491  -0.45839
 Alpha  occ. eigenvalues --   -0.45736  -0.45704  -0.45547  -0.43785  -0.43745
 Alpha virt. eigenvalues --    0.21305   0.22986   0.23483   0.25039   0.25847
 Alpha virt. eigenvalues --    0.26400   0.27083   0.27243   0.27997   0.29206
 Alpha virt. eigenvalues --    0.30387   0.31063   0.31524   0.31800   0.32002

 Mulliken charges:
               1
     1  C   -0.298236
     2  C   -0.299657
     3  C   -0.475705
     4  H    0.149726
     5  H    0.149442
     6  H    0.151941
     7  H    0.152107
     8  H    0.155153
     9  H    0.155129
    10  H    0.160267
    11  C   -0.300296
    12  C   -0.299850
    13  C   -0.483234
    14  H    0.149616
    15  H    0.151173
    16  H    0.151717
    17  H    0.151637
    18  H    0.165696
    19  H    0.154134
    20  H    0.159870
    21  C   -0.298358
    22  C   -0.299630
    23  C   -0.475691
    24  H    0.149533
    25  H    0.149877
    26  H    0.151846
    27  H    0.151897
    28  H    0.155209
    29  H    0.155129
    30  H    0.160167
    31  C   -0.297824
    32  C   -0.305194
    33  C   -0.479206
    34  H    0.149167
    35  H    0.149576
    36  H    0.151234
    37  H    0.158776
    38  H    0.156049
    39  H    0.155460
    40  H    0.161352
 Sum of Mulliken charges =  -0.00000

 Dipole moment (field-independent basis, Debye):
    X=             -0.0084    Y=              0.0020    Z=             -0.0064  Tot=              0.0108
 Quadrupole moment (field-independent basis, Debye-Ang):
   XX=            -86.7323   YY=            -85.0291   ZZ=            -83.1691
   XY=              0.9514   XZ=             -0.5162   YZ=             -0.7819

 Normal termination of Gaussian 16 at Thu May  6 06:55:37 2021.
