 Gaussian 16, Revision A.03,
 Gaussian 16:  EM64L-G16RevA.03 25-Dec-2016

 -------------
 #p 6-31g* mp2
 -------------

 ------------------------------------------------------
 Input file generated by CHIRIPA (05-May-2021 14:53:15)
 ------------------------------------------------------
 Symbolic Z-matrix:
 Charge =  0 Multiplicity = 1

                         Standard orientation:
 ---------------------------------------------------------------------
 Center     Atomic      Atomic             Coordinates (Angstroms)
 Number     Number       Type             X           Y           Z
 ---------------------------------------------------------------------
      1          6           0       -4.330250    0.173176    0.133453
      2          6           0       -4.242542   -1.353312    0.144631
      3          6           0       -5.555980   -2.017894    0.558160
      4          1           0       -4.622020    0.524661    1.132590
      5          1           0       -5.130735    0.482483   -0.552804
      6          1           0       -3.441540   -1.659601    0.829612
      7          1           0       -3.950761   -1.701192   -0.854599
      8          1           0       -6.361178   -1.741083   -0.130050
      9          1           0       -5.849065   -1.699256    1.563730
     10          1           0       -5.470842   -3.109045    0.559364
     11          6           0       -3.024997    0.851989   -0.277953
     12          6           0       -3.112705    2.378477   -0.289130
     13          6           0       -1.799268    3.043059   -0.702659
     14          1           0       -2.224512    0.542682    0.408304
     15          1           0       -2.733227    0.500504   -1.277090
     16          1           0       -3.404487    2.726358    0.710099
     17          1           0       -3.913707    2.684766   -0.974112
     18          1           0       -1.506183    2.724421   -1.708230
     19          1           0       -0.994069    2.766248   -0.014450
     20          1           0       -1.884405    4.134210   -0.703864
     21          6           0        5.131058    0.691208    0.332154
     22          6           0        4.011893    1.224567    0.979856
     23          6           0        2.755933    0.627979    0.834266
     24          6           0        2.654857   -0.505993    0.029791
     25          6           0        3.751162   -1.061051   -0.628475
     26          6           0        4.997357   -0.447890   -0.468533
     27          1           0        6.102925    1.161089    0.450826
     28          1           0        4.112755    2.109119    1.602302
     29          1           0        1.872972    1.020012    1.324274
     30          1           0        3.619302   -1.943732   -1.242400
     31          1           0        5.864782   -0.864292   -0.972744
     32          7           0        1.330397   -1.146347   -0.131936
     33          8           0        1.267788   -2.144604   -0.846218
     34          8           0        0.379975   -0.637873    0.458647
 ---------------------------------------------------------------------

 SCF Done:  E(RHF) =  -669.536004129     A.U. after   15 cycles
 E2 =    -0.2091249103D+01 EUMP2 =    -0.67162725323265D+03

 The electronic state is 1-A.
 Alpha  occ. eigenvalues --  -20.60924 -20.60917 -15.85962 -11.31283 -11.27851
 Alpha  occ. eigenvalues --  -11.27843 -11.27583 -11.26855 -11.26846 -11.20725
 Alpha  occ. eigenvalues --  -11.20425 -11.20380 -11.20267 -11.20121 -11.19981
 Alpha  occ. eigenvalues --   -1.59983  -1.39541  -1.19451  -1.08855  -1.07309
 Alpha  occ. eigenvalues --   -1.04849  -1.02553  -0.95698  -0.95013  -0.86250
 Alpha  occ. eigenvalues --   -0.86043  -0.82536  -0.78594  -0.77594  -0.77050
 Alpha  occ. eigenvalues --   -0.72187  -0.71297  -0.70562  -0.65110  -0.64853
 Alpha  occ. eigenvalues --   -0.63944  -0.62199  -0.59966  -0.58384  -0.56606
 Alpha  occ. eigenvalues --   -0.55353  -0.54313  -0.53179  -0.52942  -0.51767
 Alpha  occ. eigenvalues --   -0.51442  -0.49030  -0.48938  -0.48895  -0.46921
 Alpha  occ. eigenvalues --   -0.45621  -0.45031  -0.44611  -0.44390  -0.42754
 Alpha  occ. eigenvalues --   -0.37429  -0.36450
 Alpha virt. eigenvalues --    0.04935   0.11199   0.16427   0.21152   0.23823
 Alpha virt. eigenvalues --    0.24958   0.26767   0.27520   0.28056   0.28966
 Alpha virt. eigenvalues --    0.29043   0.30719   0.31674   0.32517   0.32787

 Mulliken charges:
               1
     1  C   -0.298100
     2  C   -0.299462
     3  C   -0.475366
     4  H    0.145005
     5  H    0.144165
     6  H    0.160834
     7  H    0.153656
     8  H    0.151708
     9  H    0.152009
    10  H    0.158868
    11  C   -0.305278
    12  C   -0.298843
    13  C   -0.473369
    14  H    0.173741
    15  H    0.149655
    16  H    0.147826
    17  H    0.148152
    18  H    0.154759
    19  H    0.152670
    20  H    0.154529
    21  C   -0.170609
    22  C   -0.218428
    23  C   -0.170661
    24  C    0.157832
    25  C   -0.170609
    26  C   -0.218552
    27  H    0.225979
    28  H    0.223886
    29  H    0.275264
    30  H    0.275810
    31  H    0.223773
    32  N    0.493283
    33  O   -0.459098
    34  O   -0.465031
 Sum of Mulliken charges =  -0.00000

 Dipole moment (field-independent basis, Debye):
    X=              4.9648    Y=              2.0851    Z=              0.5895  Tot=              5.4170
 Quadrupole moment (field-independent basis, Debye-Ang):
   XX=            -71.6374   YY=            -96.1339   ZZ=            -92.6868
   XY=              1.9200   XZ=              0.7764   YZ=              2.5780

 Normal termination of Gaussian 16 at Thu May  6 01:06:21 2021.
