 Gaussian 16, Revision A.03,
 Gaussian 16:  EM64L-G16RevA.03 25-Dec-2016

 -------------
 #p 6-31g* mp2
 -------------

 ------------------------------------------------------
 Input file generated by CHIRIPA (05-May-2021 14:57:24)
 ------------------------------------------------------
 Symbolic Z-matrix:
 Charge =  0 Multiplicity = 1

                         Standard orientation:
 ---------------------------------------------------------------------
 Center     Atomic      Atomic             Coordinates (Angstroms)
 Number     Number       Type             X           Y           Z
 ---------------------------------------------------------------------
      1          6           0       -2.499306    2.339254    0.636937
      2          6           0       -3.424829    2.129396   -0.390627
      3          6           0       -3.825453    0.834142   -0.731750
      4          6           0       -3.277956   -0.233032   -0.021345
      5          6           0       -2.353937   -0.056361    1.007376
      6          6           0       -1.967751    1.247630    1.331435
      7          1           0       -2.193699    3.348833    0.895301
      8          1           0       -3.839296    2.975276   -0.931691
      9          1           0       -4.540288    0.643074   -1.522902
     10          1           0       -1.958217   -0.919494    1.528745
     11          1           0       -1.248802    1.407611    2.129911
     12          7           0       -3.694437   -1.608885   -0.373443
     13          8           0       -3.197366   -2.532251    0.267613
     14          8           0       -4.510059   -1.737860   -1.283807
     15          6           0        2.616488    2.443098   -0.313038
     16          6           0        3.698223    1.901825   -1.015457
     17          6           0        4.035789    0.552953   -0.870055
     18          6           0        3.266627   -0.229308   -0.009968
     19          6           0        2.183087    0.280690    0.703566
     20          6           0        1.863699    1.632233    0.542722
     21          1           0        2.361319    3.491972   -0.431988
     22          1           0        4.284619    2.529184   -1.680744
     23          1           0        4.868132    0.108075   -1.401758
     24          1           0        1.617191   -0.369666    1.359476
     25          1           0        1.023074    2.049885    1.089497
     26          7           0        3.614370   -1.658712    0.152136
     27          8           0        2.920990   -2.326801    0.916019
     28          8           0        4.573728   -2.083924   -0.487759
 ---------------------------------------------------------------------

 SCF Done:  E(RHF) =  -868.335888766     A.U. after   16 cycles
 E2 =    -0.2600869450D+01 EUMP2 =    -0.87093675821621D+03

 The electronic state is 1-A.
 Alpha  occ. eigenvalues --  -20.61041 -20.61023 -20.60953 -20.60947 -15.86099
 Alpha  occ. eigenvalues --  -15.86013 -11.31704 -11.31528 -11.28345 -11.28296
 Alpha  occ. eigenvalues --  -11.28185 -11.28169 -11.28081 -11.27910 -11.27502
 Alpha  occ. eigenvalues --  -11.27357 -11.27236 -11.27134  -1.60106  -1.60024
 Alpha  occ. eigenvalues --   -1.39652  -1.39574  -1.19925  -1.19718  -1.09291
 Alpha  occ. eigenvalues --   -1.09089  -1.05384  -1.05148  -0.96073  -0.95899
 Alpha  occ. eigenvalues --   -0.86794  -0.86534  -0.82919  -0.82728  -0.77931
 Alpha  occ. eigenvalues --   -0.77728  -0.72313  -0.72228  -0.71433  -0.71348
 Alpha  occ. eigenvalues --   -0.71054  -0.70843  -0.65617  -0.65549  -0.65375
 Alpha  occ. eigenvalues --   -0.65062  -0.62822  -0.62400  -0.55907  -0.55665
 Alpha  occ. eigenvalues --   -0.53742  -0.53546  -0.53431  -0.53153  -0.49095
 Alpha  occ. eigenvalues --   -0.49050  -0.48997  -0.48975  -0.45004  -0.44947
 Alpha  occ. eigenvalues --   -0.37959  -0.37687  -0.37078  -0.36621
 Alpha virt. eigenvalues --    0.04611   0.04834   0.10405   0.11025   0.15980
 Alpha virt. eigenvalues --    0.16309   0.18690   0.22080   0.24986   0.26317
 Alpha virt. eigenvalues --    0.28238   0.29417   0.29592   0.31034   0.32089

 Mulliken charges:
               1
     1  C   -0.171708
     2  C   -0.218028
     3  C   -0.169052
     4  C    0.159559
     5  C   -0.170164
     6  C   -0.222200
     7  H    0.222593
     8  H    0.224790
     9  H    0.278124
    10  H    0.279620
    11  H    0.216730
    12  N    0.487854
    13  O   -0.455878
    14  O   -0.459143
    15  C   -0.171525
    16  C   -0.217986
    17  C   -0.170139
    18  C    0.159557
    19  C   -0.170113
    20  C   -0.214165
    21  H    0.223596
    22  H    0.224475
    23  H    0.277363
    24  H    0.271405
    25  H    0.213797
    26  N    0.488186
    27  O   -0.458724
    28  O   -0.458823
 Sum of Mulliken charges =  -0.00000

 Dipole moment (field-independent basis, Debye):
    X=              0.1523    Y=              9.6754    Z=              0.4966  Tot=              9.6893
 Quadrupole moment (field-independent basis, Debye-Ang):
   XX=           -117.4729   YY=           -109.9101   ZZ=           -101.2732
   XY=             -0.2082   XZ=             -6.3465   YZ=             -2.5392

 Normal termination of Gaussian 16 at Thu May  6 01:53:44 2021.
