 Gaussian 16, Revision A.03,
 Gaussian 16:  EM64L-G16RevA.03 25-Dec-2016

 -------------
 #p 6-31g* mp2
 -------------

 ------------------------------------------------------
 Input file generated by CHIRIPA (05-May-2021 14:53:14)
 ------------------------------------------------------
 Symbolic Z-matrix:
 Charge =  0 Multiplicity = 1

                         Standard orientation:
 ---------------------------------------------------------------------
 Center     Atomic      Atomic             Coordinates (Angstroms)
 Number     Number       Type             X           Y           Z
 ---------------------------------------------------------------------
      1          6           0        1.605066    1.187638   -0.018783
      2          6           0        1.459030    2.487119    0.773685
      3          6           0        0.035070    3.043016    0.740336
      4          1           0        1.303396    1.364841   -1.060195
      5          1           0        0.908906    0.439682    0.385343
      6          1           0        2.156244    3.231968    0.369076
      7          1           0        1.761265    2.306850    1.813288
      8          1           0       -0.670540    2.320501    1.163049
      9          1           0       -0.273317    3.250876   -0.289369
     10          1           0       -0.046730    3.972063    1.313084
     11          6           0        3.022973    0.619573    0.005116
     12          6           0        3.169009   -0.679908   -0.787353
     13          6           0        4.592969   -1.235805   -0.754004
     14          1           0        3.719133    1.367529   -0.399010
     15          1           0        3.324643    0.442370    1.046528
     16          1           0        2.866774   -0.499638   -1.826955
     17          1           0        2.471795   -1.424757   -0.382743
     18          1           0        4.901356   -1.443664    0.275701
     19          1           0        5.298579   -0.513289   -1.176716
     20          1           0        4.674769   -2.164852   -1.326752
     21          6           0       -0.678628   -2.460044    1.424479
     22          6           0       -1.197767   -1.305685    2.019853
     23          6           0       -1.825479   -0.327146    1.243330
     24          6           0       -1.916995   -0.536362   -0.131858
     25          6           0       -1.409690   -1.675785   -0.754471
     26          6           0       -0.786058   -2.641091    0.041655
     27          1           0       -0.192590   -3.215056    2.035315
     28          1           0       -1.115770   -1.162413    3.093536
     29          1           0       -2.236137    0.575956    1.678285
     30          1           0       -1.506553   -1.790505   -1.827259
     31          1           0       -0.383806   -3.536592   -0.423442
     32          7           0       -2.579366    0.492568   -0.964305
     33          8           0       -2.647223    0.284525   -2.173747
     34          8           0       -3.018134    1.487604   -0.391572
 ---------------------------------------------------------------------

 SCF Done:  E(RHF) =  -669.534191085     A.U. after   15 cycles
 E2 =    -0.2096294717D+01 EUMP2 =    -0.67163048580261D+03

 The electronic state is 1-A.
 Alpha  occ. eigenvalues --  -20.60865 -20.60830 -15.85882 -11.31276 -11.27877
 Alpha  occ. eigenvalues --  -11.27869 -11.27662 -11.26926 -11.26912 -11.21718
 Alpha  occ. eigenvalues --  -11.21387 -11.21367 -11.21268 -11.21146 -11.20574
 Alpha  occ. eigenvalues --   -1.59912  -1.39467  -1.19504  -1.08876  -1.08363
 Alpha  occ. eigenvalues --   -1.04915  -1.03452  -0.95885  -0.95698  -0.86900
 Alpha  occ. eigenvalues --   -0.86296  -0.82534  -0.79528  -0.78193  -0.77568
 Alpha  occ. eigenvalues --   -0.72114  -0.71225  -0.70612  -0.65148  -0.65039
 Alpha  occ. eigenvalues --   -0.64901  -0.62291  -0.60853  -0.59287  -0.57499
 Alpha  occ. eigenvalues --   -0.55449  -0.55145  -0.53379  -0.53012  -0.52558
 Alpha  occ. eigenvalues --   -0.52242  -0.49824  -0.48877  -0.48868  -0.47843
 Alpha  occ. eigenvalues --   -0.46586  -0.45699  -0.45525  -0.44730  -0.43690
 Alpha  occ. eigenvalues --   -0.37446  -0.36461
 Alpha virt. eigenvalues --    0.04929   0.11003   0.16428   0.21090   0.22981
 Alpha virt. eigenvalues --    0.24281   0.26592   0.26781   0.27302   0.27779
 Alpha virt. eigenvalues --    0.28684   0.30464   0.31518   0.31760   0.32005

 Mulliken charges:
               1
     1  C   -0.307953
     2  C   -0.299690
     3  C   -0.477091
     4  H    0.151419
     5  H    0.156924
     6  H    0.151822
     7  H    0.146106
     8  H    0.151446
     9  H    0.165573
    10  H    0.158683
    11  C   -0.296485
    12  C   -0.300993
    13  C   -0.475392
    14  H    0.150309
    15  H    0.146326
    16  H    0.153061
    17  H    0.147846
    18  H    0.153304
    19  H    0.157033
    20  H    0.157976
    21  C   -0.171829
    22  C   -0.218274
    23  C   -0.176243
    24  C    0.165241
    25  C   -0.170355
    26  C   -0.216774
    27  H    0.226609
    28  H    0.224384
    29  H    0.276616
    30  H    0.276370
    31  H    0.224743
    32  N    0.488330
    33  O   -0.460381
    34  O   -0.458661
 Sum of Mulliken charges =  -0.00000

 Dipole moment (field-independent basis, Debye):
    X=              2.1274    Y=             -3.6320    Z=              2.8588  Tot=              5.0882
 Quadrupole moment (field-independent basis, Debye-Ang):
   XX=           -105.6382   YY=            -89.6112   ZZ=            -91.7463
   XY=              5.8015   XZ=             -6.9777   YZ=              0.6946

 Normal termination of Gaussian 16 at Thu May  6 18:48:19 2021.
