 Gaussian 16, Revision A.03,
 Gaussian 16:  EM64L-G16RevA.03 25-Dec-2016

 -------------
 #p 6-31g* mp2
 -------------

 ------------------------------------------------------
 Input file generated by CHIRIPA (05-May-2021 14:57:22)
 ------------------------------------------------------
 Symbolic Z-matrix:
 Charge =  0 Multiplicity = 1

                         Standard orientation:
 ---------------------------------------------------------------------
 Center     Atomic      Atomic             Coordinates (Angstroms)
 Number     Number       Type             X           Y           Z
 ---------------------------------------------------------------------
      1          6           0       -3.431331    2.559636   -0.556256
      2          6           0       -3.788231    1.552992   -1.459480
      3          6           0       -3.662367    0.205871   -1.107387
      4          6           0       -3.173938   -0.100117    0.161903
      5          6           0       -2.809973    0.880035    1.083923
      6          6           0       -2.944200    2.220542    0.710330
      7          1           0       -3.532353    3.603543   -0.838121
      8          1           0       -4.166829    1.813391   -2.443808
      9          1           0       -3.931276   -0.593549   -1.787118
     10          1           0       -2.435577    0.589408    2.057978
     11          1           0       -2.666252    3.000206    1.413831
     12          7           0       -3.036265   -1.522754    0.546029
     13          8           0       -2.603417   -1.766115    1.670331
     14          8           0       -3.363812   -2.367516   -0.284469
     15          6           0        1.520171   -1.976948   -0.498903
     16          6           0        2.889714   -2.242234   -0.601349
     17          6           0        3.827576   -1.228973   -0.381660
     18          6           0        3.358702    0.043785   -0.059894
     19          6           0        2.000795    0.339406    0.049586
     20          6           0        1.080856   -0.689244   -0.174334
     21          1           0        0.798578   -2.770051   -0.671206
     22          1           0        3.233774   -3.241337   -0.853265
     23          1           0        4.893656   -1.406723   -0.454433
     24          1           0        1.688200    1.345313    0.302277
     25          1           0        0.017862   -0.480324   -0.094088
     26          7           0        4.342087    1.124625    0.174921
     27          8           0        3.903358    2.237525    0.457072
     28          8           0        5.532973    0.838423    0.072371
 ---------------------------------------------------------------------

 SCF Done:  E(RHF) =  -868.338812623     A.U. after   16 cycles
 E2 =    -0.2599906631D+01 EUMP2 =    -0.87093871925405D+03

 The electronic state is 1-A.
 Alpha  occ. eigenvalues --  -20.61810 -20.61797 -20.60635 -20.60622 -15.86847
 Alpha  occ. eigenvalues --  -15.85682 -11.32121 -11.30920 -11.28645 -11.28630
 Alpha  occ. eigenvalues --  -11.28291 -11.27580 -11.27570 -11.27504 -11.27469
 Alpha  occ. eigenvalues --  -11.27091 -11.26428 -11.26415  -1.60900  -1.59709
 Alpha  occ. eigenvalues --   -1.40444  -1.39267  -1.20266  -1.19070  -1.09664
 Alpha  occ. eigenvalues --   -1.08465  -1.05617  -1.04465  -0.96511  -0.95327
 Alpha  occ. eigenvalues --   -0.87013  -0.85859  -0.83324  -0.82175  -0.78405
 Alpha  occ. eigenvalues --   -0.77265  -0.73042  -0.72269  -0.71900  -0.71301
 Alpha  occ. eigenvalues --   -0.71031  -0.70124  -0.65883  -0.65573  -0.64715
 Alpha  occ. eigenvalues --   -0.64464  -0.62944  -0.61835  -0.56070  -0.54895
 Alpha  occ. eigenvalues --   -0.53995  -0.53671  -0.52786  -0.52530  -0.49817
 Alpha  occ. eigenvalues --   -0.49806  -0.48666  -0.48646  -0.45853  -0.44702
 Alpha  occ. eigenvalues --   -0.38220  -0.37227  -0.36998  -0.36073
 Alpha virt. eigenvalues --    0.04076   0.05285   0.10380   0.11598   0.15611
 Alpha virt. eigenvalues --    0.16826   0.20730   0.21570   0.26616   0.26983
 Alpha virt. eigenvalues --    0.27670   0.28668   0.30306   0.31094   0.31886

 Mulliken charges:
               1
     1  C   -0.169839
     2  C   -0.217798
     3  C   -0.172455
     4  C    0.151097
     5  C   -0.178509
     6  C   -0.218604
     7  H    0.230552
     8  H    0.227258
     9  H    0.277140
    10  H    0.278359
    11  H    0.228738
    12  N    0.486732
    13  O   -0.458454
    14  O   -0.459953
    15  C   -0.170899
    16  C   -0.218964
    17  C   -0.171457
    18  C    0.158265
    19  C   -0.173608
    20  C   -0.217920
    21  H    0.234916
    22  H    0.224018
    23  H    0.274578
    24  H    0.270917
    25  H    0.221870
    26  N    0.488348
    27  O   -0.463628
    28  O   -0.460698
 Sum of Mulliken charges =  -0.00000

 Dipole moment (field-independent basis, Debye):
    X=             -4.2422    Y=              1.2258    Z=             -2.2254  Tot=              4.9449
 Quadrupole moment (field-independent basis, Debye-Ang):
   XX=           -122.3190   YY=           -103.9502   ZZ=           -101.7716
   XY=            -32.0593   XZ=              2.8666   YZ=              3.1897

 Normal termination of Gaussian 16 at Fri May  7 00:16:02 2021.
