 Gaussian 16, Revision A.03,
 Gaussian 16:  EM64L-G16RevA.03 25-Dec-2016

 -------------
 #p 6-31g* mp2
 -------------

 ------------------------------------------------------
 Input file generated by CHIRIPA (05-May-2021 14:57:24)
 ------------------------------------------------------
 Symbolic Z-matrix:
 Charge =  0 Multiplicity = 1

                         Standard orientation:
 ---------------------------------------------------------------------
 Center     Atomic      Atomic             Coordinates (Angstroms)
 Number     Number       Type             X           Y           Z
 ---------------------------------------------------------------------
      1          6           0        1.457538    2.209815    0.867078
      2          6           0        1.486863    0.996237    1.561980
      3          6           0        2.361332   -0.023198    1.173902
      4          6           0        3.196387    0.205951    0.081444
      5          6           0        3.190611    1.404082   -0.631115
      6          6           0        2.308006    2.409512   -0.225326
      7          1           0        0.775069    2.996297    1.175426
      8          1           0        0.827515    0.838358    2.410732
      9          1           0        2.404719   -0.972405    1.694038
     10          1           0        3.859857    1.532045   -1.473227
     11          1           0        2.287399    3.350977   -0.766865
     12          7           0        4.126455   -0.865866   -0.338772
     13          8           0        4.852030   -0.639148   -1.304575
     14          8           0        4.112256   -1.912379    0.305623
     15          6           0       -5.014145    1.188179   -0.267167
     16          6           0       -3.723589    1.664427   -0.520501
     17          6           0       -2.624095    0.803119   -0.458799
     18          6           0       -2.852548   -0.534457   -0.139441
     19          6           0       -4.126254   -1.039042    0.118154
     20          6           0       -5.211011   -0.159659    0.050791
     21          1           0       -5.862534    1.864285   -0.317297
     22          1           0       -3.567712    2.710684   -0.767668
     23          1           0       -1.614309    1.145266   -0.650340
     24          1           0       -4.250152   -2.087177    0.362040
     25          1           0       -6.212153   -0.532302    0.248014
     26          7           0       -1.696363   -1.455852   -0.071125
     27          8           0       -1.924215   -2.629891    0.212343
     28          8           0       -0.584186   -0.986558   -0.302339
 ---------------------------------------------------------------------

 SCF Done:  E(RHF) =  -868.337087267     A.U. after   16 cycles
 E2 =    -0.2601266842D+01 EUMP2 =    -0.87093835410874D+03

 The electronic state is 1-A.
 Alpha  occ. eigenvalues --  -20.61172 -20.61152 -20.59930 -20.59899 -15.86197
 Alpha  occ. eigenvalues --  -15.84970 -11.31631 -11.30335 -11.28212 -11.28184
 Alpha  occ. eigenvalues --  -11.27950 -11.27253 -11.27200 -11.26992 -11.26860
 Alpha  occ. eigenvalues --  -11.26847 -11.26112 -11.25988  -1.60241  -1.58985
 Alpha  occ. eigenvalues --   -1.39790  -1.38540  -1.19809  -1.18540  -1.09192
 Alpha  occ. eigenvalues --   -1.07985  -1.05220  -1.03958  -0.96016  -0.94807
 Alpha  occ. eigenvalues --   -0.86611  -0.85395  -0.82848  -0.81641  -0.77888
 Alpha  occ. eigenvalues --   -0.76647  -0.72431  -0.71578  -0.71206  -0.70904
 Alpha  occ. eigenvalues --   -0.70286  -0.69764  -0.65458  -0.65219  -0.64241
 Alpha  occ. eigenvalues --   -0.64037  -0.62562  -0.61328  -0.55707  -0.54600
 Alpha  occ. eigenvalues --   -0.53551  -0.53311  -0.52249  -0.52111  -0.49198
 Alpha  occ. eigenvalues --   -0.49163  -0.47968  -0.47943  -0.45191  -0.43945
 Alpha  occ. eigenvalues --   -0.37795  -0.36842  -0.36578  -0.35426
 Alpha virt. eigenvalues --    0.04611   0.05907   0.10807   0.12136   0.16073
 Alpha virt. eigenvalues --    0.17332   0.20925   0.21982   0.26779   0.27747
 Alpha virt. eigenvalues --    0.27935   0.28982   0.30510   0.31442   0.32072

 Mulliken charges:
               1
     1  C   -0.178302
     2  C   -0.208697
     3  C   -0.151337
     4  C    0.160109
     5  C   -0.170749
     6  C   -0.220187
     7  H    0.216609
     8  H    0.219176
     9  H    0.278190
    10  H    0.272845
    11  H    0.217335
    12  N    0.488498
    13  O   -0.464471
    14  O   -0.457808
    15  C   -0.170622
    16  C   -0.219178
    17  C   -0.175199
    18  C    0.157096
    19  C   -0.170657
    20  C   -0.218537
    21  H    0.226511
    22  H    0.221767
    23  H    0.276003
    24  H    0.277155
    25  H    0.225008
    26  N    0.487766
    27  O   -0.458198
    28  O   -0.460126
 Sum of Mulliken charges =  -0.00000

 Dipole moment (field-independent basis, Debye):
    X=             -7.4413    Y=              6.6577    Z=              1.2939  Tot=             10.0684
 Quadrupole moment (field-independent basis, Debye-Ang):
   XX=           -101.0489   YY=           -103.5466   ZZ=           -102.7839
   XY=              7.5883   XZ=              3.7009   YZ=             -3.3809

 Normal termination of Gaussian 16 at Thu May  6 22:45:11 2021.
