 Gaussian 16, Revision A.03,
 Gaussian 16:  EM64L-G16RevA.03 25-Dec-2016

 -------------
 #p 6-31g* mp2
 -------------

 ------------------------------------------------------
 Input file generated by CHIRIPA (05-May-2021 14:53:12)
 ------------------------------------------------------
 Symbolic Z-matrix:
 Charge =  0 Multiplicity = 1

                         Standard orientation:
 ---------------------------------------------------------------------
 Center     Atomic      Atomic             Coordinates (Angstroms)
 Number     Number       Type             X           Y           Z
 ---------------------------------------------------------------------
      1          6           0        2.342234    0.553143   -0.775254
      2          6           0        2.787201    2.003954   -0.587801
      3          6           0        1.960383    2.987629   -1.416384
      4          1           0        2.413543    0.288987   -1.839247
      5          1           0        1.281838    0.463867   -0.501420
      6          1           0        3.846808    2.090184   -0.860588
      7          1           0        2.715006    2.264628    0.475897
      8          1           0        0.902769    2.930955   -1.139183
      9          1           0        2.041002    2.755519   -2.483262
     10          1           0        2.295396    4.018839   -1.267278
     11          6           0        3.159341   -0.442138    0.046621
     12          6           0        2.714374   -1.892948   -0.140832
     13          6           0        3.541191   -2.876623    0.687752
     14          1           0        4.219737   -0.352862   -0.227213
     15          1           0        3.088031   -0.177981    1.110614
     16          1           0        2.786569   -2.153623   -1.204530
     17          1           0        1.654767   -1.979178    0.131956
     18          1           0        3.460573   -2.644514    1.754629
     19          1           0        4.598806   -2.819949    0.410550
     20          1           0        3.206179   -3.907833    0.538645
     21          6           0       -3.369377   -1.678748   -1.199374
     22          6           0       -2.211410   -2.076555   -0.523072
     23          6           0       -1.527127   -1.178850    0.301809
     24          6           0       -2.031077    0.114742    0.428089
     25          6           0       -3.182169    0.541080   -0.232600
     26          6           0       -3.850213   -0.373501   -1.052238
     27          1           0       -3.894637   -2.382662   -1.838124
     28          1           0       -1.835685   -3.089593   -0.635460
     29          1           0       -0.628357   -1.460354    0.836961
     30          1           0       -3.532462    1.557610   -0.100769
     31          1           0       -4.749263   -0.061784   -1.576249
     32          7           0       -1.315252    1.074035    1.298579
     33          8           0       -1.779703    2.208047    1.393117
     34          8           0       -0.303292    0.673752    1.869847
 ---------------------------------------------------------------------

 SCF Done:  E(RHF) =  -669.535927139     A.U. after   15 cycles
 E2 =    -0.2093648382D+01 EUMP2 =    -0.67162957552018D+03

 The electronic state is 1-A.
 Alpha  occ. eigenvalues --  -20.61017 -20.61010 -15.86025 -11.31302 -11.27858
 Alpha  occ. eigenvalues --  -11.27846 -11.27585 -11.26858 -11.26843 -11.21559
 Alpha  occ. eigenvalues --  -11.21005 -11.20881 -11.20823 -11.20723 -11.20382
 Alpha  occ. eigenvalues --   -1.60067  -1.39625  -1.19467  -1.08880  -1.07937
 Alpha  occ. eigenvalues --   -1.04855  -1.03098  -0.95731  -0.95528  -0.86562
 Alpha  occ. eigenvalues --   -0.86261  -0.82564  -0.79205  -0.77802  -0.77561
 Alpha  occ. eigenvalues --   -0.72256  -0.71392  -0.70582  -0.65130  -0.64906
 Alpha  occ. eigenvalues --   -0.64492  -0.62209  -0.60471  -0.58947  -0.57152
 Alpha  occ. eigenvalues --   -0.55364  -0.54798  -0.53186  -0.52959  -0.52276
 Alpha  occ. eigenvalues --   -0.51973  -0.49497  -0.49019  -0.49006  -0.47515
 Alpha  occ. eigenvalues --   -0.46220  -0.45526  -0.45183  -0.44684  -0.43320
 Alpha  occ. eigenvalues --   -0.37436  -0.36434
 Alpha virt. eigenvalues --    0.04866   0.11099   0.16352   0.20385   0.23230
 Alpha virt. eigenvalues --    0.24437   0.25802   0.27430   0.27869   0.28390
 Alpha virt. eigenvalues --    0.28962   0.31189   0.31315   0.32086   0.32241

 Mulliken charges:
               1
     1  C   -0.298298
     2  C   -0.301138
     3  C   -0.475502
     4  H    0.142869
     5  H    0.150846
     6  H    0.147573
     7  H    0.163936
     8  H    0.157490
     9  H    0.149686
    10  H    0.160235
    11  C   -0.298600
    12  C   -0.300122
    13  C   -0.475811
    14  H    0.147357
    15  H    0.161020
    16  H    0.149830
    17  H    0.141363
    18  H    0.158746
    19  H    0.156613
    20  H    0.155396
    21  C   -0.170382
    22  C   -0.219973
    23  C   -0.175513
    24  C    0.158253
    25  C   -0.170454
    26  C   -0.218450
    27  H    0.226181
    28  H    0.224385
    29  H    0.282684
    30  H    0.275834
    31  H    0.223966
    32  N    0.487697
    33  O   -0.458171
    34  O   -0.459548
 Sum of Mulliken charges =  -0.00000

 Dipole moment (field-independent basis, Debye):
    X=             -2.6297    Y=             -3.2661    Z=             -2.8938  Tot=              5.0948
 Quadrupole moment (field-independent basis, Debye-Ang):
   XX=            -82.2103   YY=            -94.2539   ZZ=            -97.7441
   XY=              4.5132   XZ=              5.9319   YZ=             -1.8573

 Normal termination of Gaussian 16 at Wed May  5 15:28:13 2021.
