 Gaussian 16, Revision A.03,
 Gaussian 16:  EM64L-G16RevA.03 25-Dec-2016

 -------------
 #p 6-31g* mp2
 -------------

 ------------------------------------------------------
 Input file generated by CHIRIPA (05-May-2021 14:53:16)
 ------------------------------------------------------
 Symbolic Z-matrix:
 Charge =  0 Multiplicity = 1

                         Standard orientation:
 ---------------------------------------------------------------------
 Center     Atomic      Atomic             Coordinates (Angstroms)
 Number     Number       Type             X           Y           Z
 ---------------------------------------------------------------------
      1          6           0       -3.479131    0.804780   -0.331745
      2          6           0       -3.946390    1.894752    0.633457
      3          6           0       -3.441603    3.284670    0.244724
      4          1           0       -2.381087    0.801098   -0.366843
      5          1           0       -3.823451    1.050571   -1.345859
      6          1           0       -3.602471    1.646267    1.645678
      7          1           0       -5.043444    1.895713    0.666406
      8          1           0       -3.796277    3.557832   -0.754371
      9          1           0       -2.347116    3.306970    0.230465
     10          1           0       -3.787364    4.048595    0.948093
     11          6           0       -3.975702   -0.590310    0.043581
     12          6           0       -3.508443   -1.680282   -0.921621
     13          6           0       -4.013230   -3.070199   -0.532888
     14          1           0       -3.631382   -0.836100    1.057694
     15          1           0       -5.073745   -0.586627    0.078678
     16          1           0       -2.411388   -1.681242   -0.954570
     17          1           0       -3.852361   -1.431797   -1.933842
     18          1           0       -5.107716   -3.092499   -0.518630
     19          1           0       -3.658556   -3.343362    0.466206
     20          1           0       -3.667469   -3.834124   -1.236257
     21          6           0        0.561102   -0.628186    0.849187
     22          6           0        1.620297   -1.466427    1.212475
     23          6           0        2.926952   -1.174582    0.809948
     24          6           0        3.139324   -0.031146    0.041350
     25          6           0        2.104981    0.823586   -0.336614
     26          6           0        0.806392    0.512135    0.077164
     27          1           0       -0.450806   -0.862514    1.166250
     28          1           0        1.432763   -2.352691    1.811985
     29          1           0        3.765439   -1.806249    1.077066
     30          1           0        2.323127    1.699940   -0.934807
     31          1           0       -0.014254    1.164934   -0.206451
     32          7           0        4.518352    0.288196   -0.390742
     33          8           0        4.679109    1.301575   -1.067394
     34          8           0        5.412364   -0.480929   -0.044582
 ---------------------------------------------------------------------

 SCF Done:  E(RHF) =  -669.535370229     A.U. after   15 cycles
 E2 =    -0.2092180279D+01 EUMP2 =    -0.67162755050731D+03

 The electronic state is 1-A.
 Alpha  occ. eigenvalues --  -20.60763 -20.60758 -15.85816 -11.31193 -11.27759
 Alpha  occ. eigenvalues --  -11.27754 -11.27506 -11.26781 -11.26761 -11.22610
 Alpha  occ. eigenvalues --  -11.22561 -11.22547 -11.22447 -11.21989 -11.21901
 Alpha  occ. eigenvalues --   -1.59838  -1.39391  -1.19365  -1.09498  -1.08759
 Alpha  occ. eigenvalues --   -1.04769  -1.04492  -0.96946  -0.95592  -0.87955
 Alpha  occ. eigenvalues --   -0.86173  -0.82424  -0.80548  -0.79321  -0.77468
 Alpha  occ. eigenvalues --   -0.72035  -0.71161  -0.70489  -0.66207  -0.65014
 Alpha  occ. eigenvalues --   -0.64740  -0.62156  -0.61862  -0.60301  -0.58546
 Alpha  occ. eigenvalues --   -0.56253  -0.55268  -0.53587  -0.53368  -0.53095
 Alpha  occ. eigenvalues --   -0.52871  -0.50896  -0.48873  -0.48789  -0.48780
 Alpha  occ. eigenvalues --   -0.47593  -0.46828  -0.46780  -0.44794  -0.44774
 Alpha  occ. eigenvalues --   -0.37343  -0.36368
 Alpha virt. eigenvalues --    0.05047   0.11241   0.16463   0.17872   0.21810
 Alpha virt. eigenvalues --    0.23429   0.24967   0.25638   0.26641   0.28148
 Alpha virt. eigenvalues --    0.29509   0.30597   0.31006   0.31514   0.32024

 Mulliken charges:
               1
     1  C   -0.303912
     2  C   -0.300315
     3  C   -0.476118
     4  H    0.141845
     5  H    0.155324
     6  H    0.151142
     7  H    0.156551
     8  H    0.158434
     9  H    0.149963
    10  H    0.165056
    11  C   -0.299449
    12  C   -0.302572
    13  C   -0.475712
    14  H    0.144700
    15  H    0.155171
    16  H    0.149319
    17  H    0.156342
    18  H    0.158201
    19  H    0.152414
    20  H    0.163836
    21  C   -0.174659
    22  C   -0.218784
    23  C   -0.171009
    24  C    0.158956
    25  C   -0.171132
    26  C   -0.224724
    27  H    0.228219
    28  H    0.223580
    29  H    0.275657
    30  H    0.276119
    31  H    0.230267
    32  N    0.487915
    33  O   -0.460253
    34  O   -0.460372
 Sum of Mulliken charges =  -0.00000

 Dipole moment (field-independent basis, Debye):
    X=             -5.0952    Y=             -1.1100    Z=              1.4656  Tot=              5.4167
 Quadrupole moment (field-independent basis, Debye-Ang):
   XX=           -123.4392   YY=            -92.3092   ZZ=            -93.8327
   XY=             -5.5666   XZ=              6.2698   YZ=             -2.1800

 Normal termination of Gaussian 16 at Thu May  6 18:54:51 2021.
