 Gaussian 16, Revision A.03,
 Gaussian 16:  EM64L-G16RevA.03 25-Dec-2016

 -------------
 #p 6-31g* mp2
 -------------

 ------------------------------------------------------
 Input file generated by CHIRIPA (05-May-2021 14:55:24)
 ------------------------------------------------------
 Symbolic Z-matrix:
 Charge =  0 Multiplicity = 1

                         Standard orientation:
 ---------------------------------------------------------------------
 Center     Atomic      Atomic             Coordinates (Angstroms)
 Number     Number       Type             X           Y           Z
 ---------------------------------------------------------------------
      1          6           0        2.343914    1.682335   -1.574360
      2          6           0        2.364992    0.346529   -1.988725
      3          6           0        2.126989   -0.684226   -1.074698
      4          6           0        1.870080   -0.341637    0.251922
      5          6           0        1.842296    0.979657    0.695432
      6          6           0        2.083093    1.994086   -0.235964
      7          1           0        2.529886    2.476710   -2.291145
      8          1           0        2.567276    0.101461   -3.027507
      9          1           0        2.137322   -1.726836   -1.368425
     10          1           0        1.637772    1.192782    1.737624
     11          1           0        2.066096    3.030603    0.088674
     12          7           0        1.616638   -1.424210    1.228755
     13          8           0        1.392731   -1.096072    2.391867
     14          8           0        1.646696   -2.580370    0.812789
     15          6           0       -2.734161    0.850764    0.182105
     16          6           0       -1.724149    1.997314    0.239437
     17          6           0       -2.313156    3.274562    0.839021
     18          1           0       -3.605051    1.166927   -0.408263
     19          1           0       -3.102423    0.644711    1.196660
     20          1           0       -1.356867    2.200220   -0.774737
     21          1           0       -0.855477    1.678317    0.829578
     22          1           0       -2.662964    3.094779    1.860742
     23          1           0       -3.167203    3.619647    0.247313
     24          1           0       -1.574107    4.081208    0.870462
     25          6           0       -2.160176   -0.432932   -0.414881
     26          6           0       -3.170188   -1.579481   -0.472213
     27          6           0       -2.581181   -2.856729   -1.071797
     28          1           0       -1.791914   -0.226879   -1.429435
     29          1           0       -1.289285   -0.749095    0.175488
     30          1           0       -4.038860   -1.260485   -1.062353
     31          1           0       -3.537470   -1.782388    0.541961
     32          1           0       -1.727133   -3.201815   -0.480087
     33          1           0       -2.231372   -2.676946   -2.093518
     34          1           0       -3.320230   -3.663376   -1.103237
 ---------------------------------------------------------------------

 SCF Done:  E(RHF) =  -669.534451120     A.U. after   15 cycles
 E2 =    -0.2095047606D+01 EUMP2 =    -0.67162949872595D+03

 The electronic state is 1-A.
 Alpha  occ. eigenvalues --  -20.60880 -20.60874 -15.85920 -11.31213 -11.27787
 Alpha  occ. eigenvalues --  -11.27783 -11.27532 -11.26799 -11.26785 -11.21618
 Alpha  occ. eigenvalues --  -11.21318 -11.21298 -11.21267 -11.21210 -11.20647
 Alpha  occ. eigenvalues --   -1.59953  -1.39507  -1.19405  -1.08810  -1.08320
 Alpha  occ. eigenvalues --   -1.04808  -1.03416  -0.95871  -0.95655  -0.86886
 Alpha  occ. eigenvalues --   -0.86204  -0.82489  -0.79502  -0.78154  -0.77532
 Alpha  occ. eigenvalues --   -0.72139  -0.71284  -0.70523  -0.65066  -0.64956
 Alpha  occ. eigenvalues --   -0.64792  -0.62162  -0.60807  -0.59287  -0.57488
 Alpha  occ. eigenvalues --   -0.55307  -0.55143  -0.53235  -0.52898  -0.52531
 Alpha  occ. eigenvalues --   -0.52301  -0.49803  -0.48901  -0.48894  -0.47813
 Alpha  occ. eigenvalues --   -0.46537  -0.45625  -0.45593  -0.44905  -0.43676
 Alpha  occ. eigenvalues --   -0.37344  -0.36278
 Alpha virt. eigenvalues --    0.04959   0.11153   0.16435   0.21058   0.22988
 Alpha virt. eigenvalues --    0.24224   0.26243   0.27101   0.27408   0.28042
 Alpha virt. eigenvalues --    0.28611   0.30578   0.31264   0.31904   0.32318

 Mulliken charges:
               1
     1  C   -0.171509
     2  C   -0.218416
     3  C   -0.170567
     4  C    0.159388
     5  C   -0.174549
     6  C   -0.212419
     7  H    0.225699
     8  H    0.223516
     9  H    0.275917
    10  H    0.275490
    11  H    0.223796
    12  N    0.490182
    13  O   -0.460959
    14  O   -0.460391
    15  C   -0.298369
    16  C   -0.301580
    17  C   -0.475292
    18  H    0.148213
    19  H    0.152780
    20  H    0.148582
    21  H    0.153681
    22  H    0.157807
    23  H    0.155741
    24  H    0.152977
    25  C   -0.298316
    26  C   -0.299285
    27  C   -0.479402
    28  H    0.146087
    29  H    0.150145
    30  H    0.149353
    31  H    0.155137
    32  H    0.167120
    33  H    0.149659
    34  H    0.159784
 Sum of Mulliken charges =  -0.00000

 Dipole moment (field-independent basis, Debye):
    X=              0.9636    Y=              3.7210    Z=             -3.4002  Tot=              5.1318
 Quadrupole moment (field-independent basis, Debye-Ang):
   XX=            -92.2029   YY=            -96.4608   ZZ=            -93.5779
   XY=              6.8611   XZ=             -6.6806   YZ=              4.1142

 Normal termination of Gaussian 16 at Thu May  6 06:21:06 2021.
