 Gaussian 16, Revision A.03,
 Gaussian 16:  EM64L-G16RevA.03 25-Dec-2016

 -------------
 #p 6-31g* mp2
 -------------

 ------------------------------------------------------
 Input file generated by CHIRIPA (05-May-2021 14:57:22)
 ------------------------------------------------------
 Symbolic Z-matrix:
 Charge =  0 Multiplicity = 1

                         Standard orientation:
 ---------------------------------------------------------------------
 Center     Atomic      Atomic             Coordinates (Angstroms)
 Number     Number       Type             X           Y           Z
 ---------------------------------------------------------------------
      1          6           0       -3.156249    2.562181    0.756661
      2          6           0       -4.271962    2.241956   -0.023828
      3          6           0       -4.509234    0.920909   -0.415086
      4          6           0       -3.606222   -0.059237   -0.006218
      5          6           0       -2.485623    0.228220    0.771546
      6          6           0       -2.268206    1.556064    1.151161
      7          1           0       -2.979643    3.591042    1.056078
      8          1           0       -4.963314    3.021259   -0.331665
      9          1           0       -5.365052    0.645127   -1.019188
     10          1           0       -1.814218   -0.570334    1.062997
     11          1           0       -1.400898    1.801833    1.757312
     12          7           0       -3.846901   -1.461368   -0.414263
     13          8           0       -3.036345   -2.306552   -0.041033
     14          8           0       -4.841545   -1.688626   -1.099591
     15          6           0        2.145376   -2.181619    0.493047
     16          6           0        3.534668   -2.243888    0.643086
     17          6           0        4.331982   -1.136448    0.339088
     18          6           0        3.703950    0.022446   -0.114599
     19          6           0        2.322260    0.115550   -0.274455
     20          6           0        1.544664   -1.004176    0.035562
     21          1           0        1.533663   -3.046677    0.731538
     22          1           0        4.003919   -3.156990    0.998178
     23          1           0        5.409727   -1.157243    0.446093
     24          1           0        1.883264    1.039638   -0.630492
     25          1           0        0.465953   -0.952944   -0.081918
     26          7           0        4.537592    1.201346   -0.439615
     27          8           0        3.959999    2.210628   -0.837572
     28          8           0        5.752809    1.093762   -0.290250
 ---------------------------------------------------------------------

 SCF Done:  E(RHF) =  -868.338444621     A.U. after   16 cycles
 E2 =    -0.2599420578D+01 EUMP2 =    -0.87093786519896D+03

 The electronic state is 1-A.
 Alpha  occ. eigenvalues --  -20.61547 -20.61501 -20.60932 -20.60920 -15.86575
 Alpha  occ. eigenvalues --  -15.85982 -11.31904 -11.31308 -11.28523 -11.28388
 Alpha  occ. eigenvalues --  -11.28095 -11.27908 -11.27864 -11.27540 -11.27453
 Alpha  occ. eigenvalues --  -11.27383 -11.26868 -11.26828  -1.60595  -1.60006
 Alpha  occ. eigenvalues --   -1.40155  -1.39561  -1.20046  -1.19474  -1.09429
 Alpha  occ. eigenvalues --   -1.08857  -1.05448  -1.04878  -0.96284  -0.95701
 Alpha  occ. eigenvalues --   -0.86839  -0.86264  -0.83121  -0.82543  -0.78202
 Alpha  occ. eigenvalues --   -0.77607  -0.72793  -0.72199  -0.71915  -0.71330
 Alpha  occ. eigenvalues --   -0.71137  -0.70535  -0.65692  -0.65460  -0.65117
 Alpha  occ. eigenvalues --   -0.64858  -0.62836  -0.62184  -0.55896  -0.55310
 Alpha  occ. eigenvalues --   -0.53770  -0.53554  -0.53202  -0.52913  -0.49564
 Alpha  occ. eigenvalues --   -0.49532  -0.48960  -0.48951  -0.45568  -0.44976
 Alpha  occ. eigenvalues --   -0.37984  -0.37424  -0.37053  -0.36494
 Alpha virt. eigenvalues --    0.04299   0.04932   0.10518   0.11128   0.15853
 Alpha virt. eigenvalues --    0.16420   0.19737   0.21921   0.25392   0.27198
 Alpha virt. eigenvalues --    0.28176   0.28991   0.30077   0.30999   0.31878

 Mulliken charges:
               1
     1  C   -0.170016
     2  C   -0.217312
     3  C   -0.170378
     4  C    0.160462
     5  C   -0.178932
     6  C   -0.219763
     7  H    0.230035
     8  H    0.226903
     9  H    0.277688
    10  H    0.270020
    11  H    0.226766
    12  N    0.488779
    13  O   -0.466847
    14  O   -0.455806
    15  C   -0.171550
    16  C   -0.218770
    17  C   -0.170757
    18  C    0.158644
    19  C   -0.173601
    20  C   -0.226331
    21  H    0.232850
    22  H    0.224934
    23  H    0.275936
    24  H    0.273406
    25  H    0.227452
    26  N    0.488166
    27  O   -0.462289
    28  O   -0.459688
 Sum of Mulliken charges =  -0.00000

 Dipole moment (field-independent basis, Debye):
    X=             -2.2840    Y=              0.8445    Z=              2.5733  Tot=              3.5429
 Quadrupole moment (field-independent basis, Debye-Ang):
   XX=           -125.2042   YY=           -104.2594   ZZ=           -105.0268
   XY=            -38.1807   XZ=              3.0814   YZ=             -1.0463

 Normal termination of Gaussian 16 at Wed May  5 16:17:25 2021.
