 Gaussian 16, Revision A.03,
 Gaussian 16:  EM64L-G16RevA.03 25-Dec-2016

 -------------
 #p 6-31g* mp2
 -------------

 ------------------------------------------------------
 Input file generated by CHIRIPA (05-May-2021 14:53:15)
 ------------------------------------------------------
 Symbolic Z-matrix:
 Charge =  0 Multiplicity = 1

                         Standard orientation:
 ---------------------------------------------------------------------
 Center     Atomic      Atomic             Coordinates (Angstroms)
 Number     Number       Type             X           Y           Z
 ---------------------------------------------------------------------
      1          6           0        5.023157    0.168811   -0.061075
      2          6           0        6.395898   -0.487617   -0.211644
      3          6           0        7.544970    0.516582   -0.116704
      4          1           0        4.904656    0.938153   -0.836327
      5          1           0        4.977445    0.689425    0.905499
      6          1           0        6.438517   -1.008001   -1.177046
      7          1           0        6.511069   -1.255618    0.563937
      8          1           0        7.530770    1.027871    0.851274
      9          1           0        7.457806    1.276895   -0.899601
     10          1           0        8.517064    0.025941   -0.226997
     11          6           0        3.864294   -0.822238   -0.153737
     12          6           0        2.491553   -0.165811   -0.003167
     13          6           0        1.342481   -1.170009   -0.098107
     14          1           0        3.910006   -1.342852   -1.120311
     15          1           0        3.982795   -1.591580    0.621515
     16          1           0        2.376382    0.602190   -0.778749
     17          1           0        2.448934    0.354573    0.962234
     18          1           0        1.429645   -1.930323    0.684789
     19          1           0        1.356681   -1.681299   -1.066086
     20          1           0        0.370387   -0.679368    0.012186
     21          6           0       -1.747349    2.049023    0.502279
     22          6           0       -1.666081    0.828200    1.180149
     23          6           0       -2.615950   -0.172871    0.956205
     24          6           0       -3.638361    0.081829    0.043464
     25          6           0       -3.746361    1.287779   -0.647413
     26          6           0       -2.785399    2.274519   -0.407734
     27          1           0       -1.005159    2.821113    0.682356
     28          1           0       -0.861011    0.650299    1.887439
     29          1           0       -2.576885   -1.127158    1.467313
     30          1           0       -4.560418    1.435849   -1.346557
     31          1           0       -2.851013    3.221666   -0.935609
     32          7           0       -4.649816   -0.970374   -0.201944
     33          8           0       -5.540832   -0.721271   -1.011065
     34          8           0       -4.532428   -2.024272    0.419471
 ---------------------------------------------------------------------

 SCF Done:  E(RHF) =  -669.535023241     A.U. after   15 cycles
 E2 =    -0.2092054213D+01 EUMP2 =    -0.67162707745344D+03

 The electronic state is 1-A.
 Alpha  occ. eigenvalues --  -20.60788 -20.60783 -15.85843 -11.31237 -11.27807
 Alpha  occ. eigenvalues --  -11.27803 -11.27551 -11.26827 -11.26811 -11.22182
 Alpha  occ. eigenvalues --  -11.21935 -11.21830 -11.21766 -11.21423 -11.21376
 Alpha  occ. eigenvalues --   -1.59863  -1.39416  -1.19422  -1.08863  -1.08803
 Alpha  occ. eigenvalues --   -1.04837  -1.03945  -0.96379  -0.95633  -0.87399
 Alpha  occ. eigenvalues --   -0.86216  -0.82467  -0.80021  -0.78673  -0.77510
 Alpha  occ. eigenvalues --   -0.72061  -0.71186  -0.70510  -0.65492  -0.65069
 Alpha  occ. eigenvalues --   -0.64836  -0.62193  -0.61342  -0.59773  -0.58016
 Alpha  occ. eigenvalues --   -0.55658  -0.55312  -0.53526  -0.52935  -0.52912
 Alpha  occ. eigenvalues --   -0.52538  -0.50315  -0.48822  -0.48813  -0.48328
 Alpha  occ. eigenvalues --   -0.47064  -0.46210  -0.46138  -0.44815  -0.44209
 Alpha  occ. eigenvalues --   -0.37387  -0.36360
 Alpha virt. eigenvalues --    0.05017   0.11165   0.16439   0.20742   0.22591
 Alpha virt. eigenvalues --    0.23987   0.26061   0.26733   0.27105   0.28292
 Alpha virt. eigenvalues --    0.28506   0.30524   0.31080   0.31553   0.32211

 Mulliken charges:
               1
     1  C   -0.298311
     2  C   -0.299977
     3  C   -0.475868
     4  H    0.149272
     5  H    0.148089
     6  H    0.153081
     7  H    0.152645
     8  H    0.154841
     9  H    0.155172
    10  H    0.161496
    11  C   -0.298036
    12  C   -0.299079
    13  C   -0.486044
    14  H    0.151985
    15  H    0.150646
    16  H    0.151427
    17  H    0.144205
    18  H    0.153699
    19  H    0.159428
    20  H    0.165640
    21  C   -0.171403
    22  C   -0.220463
    23  C   -0.170182
    24  C    0.158958
    25  C   -0.170774
    26  C   -0.218470
    27  H    0.226571
    28  H    0.227194
    29  H    0.276785
    30  H    0.275891
    31  H    0.223769
    32  N    0.488121
    33  O   -0.460328
    34  O   -0.459980
 Sum of Mulliken charges =  -0.00000

 Dipole moment (field-independent basis, Debye):
    X=              3.5499    Y=              3.7098    Z=              0.8287  Tot=              5.2010
 Quadrupole moment (field-independent basis, Debye-Ang):
   XX=           -120.7860   YY=            -93.0818   ZZ=            -91.9570
   XY=            -15.5716   XZ=             -1.3954   YZ=             -2.1876

 Normal termination of Gaussian 16 at Wed May  5 17:08:16 2021.
