 Gaussian 16, Revision A.03,
 Gaussian 16:  EM64L-G16RevA.03 25-Dec-2016

 -------------
 #p 6-31g* mp2
 -------------

 ------------------------------------------------------
 Input file generated by CHIRIPA (05-May-2021 14:51:09)
 ------------------------------------------------------
 Symbolic Z-matrix:
 Charge =  0 Multiplicity = 1

                         Standard orientation:
 ---------------------------------------------------------------------
 Center     Atomic      Atomic             Coordinates (Angstroms)
 Number     Number       Type             X           Y           Z
 ---------------------------------------------------------------------
      1          6           0        3.657272   -0.569225   -0.137162
      2          6           0        5.172491   -0.770106   -0.095393
      3          6           0        5.650421   -1.863578   -1.051267
      4          1           0        3.161098   -1.517529    0.110782
      5          1           0        3.355896   -0.317771   -1.163485
      6          1           0        5.471091   -1.019749    0.930830
      7          1           0        5.665117    0.178835   -0.343278
      8          1           0        5.380919   -1.617696   -2.083503
      9          1           0        5.185791   -2.823090   -0.802156
     10          1           0        6.736534   -1.990465   -1.005236
     11          6           0        3.164226    0.520636    0.813014
     12          6           0        1.649008    0.721516    0.771245
     13          6           0        1.171077    1.814988    1.727119
     14          1           0        3.465603    0.269182    1.839337
     15          1           0        3.660400    1.468940    0.565070
     16          1           0        1.156382   -0.227424    1.019130
     17          1           0        1.350407    0.971160   -0.254978
     18          1           0        1.635708    2.774500    1.478008
     19          1           0        1.440580    1.569106    2.759355
     20          1           0        0.084965    1.941876    1.681088
     21          6           0       -3.681459   -0.682024   -0.444047
     22          6           0       -4.578485   -1.165252    0.696050
     23          6           0       -5.112322   -2.579949    0.469238
     24          1           0       -4.246077   -0.715795   -1.385859
     25          1           0       -2.839467   -1.378569   -0.559241
     26          1           0       -5.417787   -0.467248    0.809967
     27          1           0       -4.011725   -1.130146    1.635287
     28          1           0       -4.286748   -3.293085    0.377220
     29          1           0       -5.700800   -2.626421   -0.452790
     30          1           0       -5.751146   -2.905369    1.296199
     31          6           0       -3.140040    0.730614   -0.231805
     32          6           0       -2.243013    1.213841   -1.371902
     33          6           0       -1.709177    2.628538   -1.145090
     34          1           0       -3.982033    1.427158   -0.116611
     35          1           0       -2.575421    0.764385    0.710007
     36          1           0       -2.809774    1.178735   -2.311139
     37          1           0       -1.403711    0.515837   -1.485819
     38          1           0       -1.120699    2.675010   -0.223063
     39          1           0       -2.534751    3.341674   -1.053073
     40          1           0       -1.070352    2.953958   -1.972052
 ---------------------------------------------------------------------

 SCF Done:  E(RHF) =  -470.733134975     A.U. after   11 cycles
 E2 =    -0.1583173039D+01 EUMP2 =    -0.47231630801346D+03

 The electronic state is 1-A.
 Alpha  occ. eigenvalues --  -11.21659 -11.21627 -11.21595 -11.21568 -11.21445
 Alpha  occ. eigenvalues --  -11.21397 -11.21385 -11.21338 -11.21135 -11.21091
 Alpha  occ. eigenvalues --  -11.21067 -11.21002  -1.08476  -1.08411  -1.03598
 Alpha  occ. eigenvalues --   -1.03489  -0.96053  -0.95936  -0.87065  -0.86957
 Alpha  occ. eigenvalues --   -0.79656  -0.79555  -0.78285  -0.78229  -0.65133
 Alpha  occ. eigenvalues --   -0.65029  -0.61108  -0.60848  -0.59421  -0.59289
 Alpha  occ. eigenvalues --   -0.57697  -0.57519  -0.55404  -0.55134  -0.52770
 Alpha  occ. eigenvalues --   -0.52653  -0.52491  -0.52309  -0.49991  -0.49852
 Alpha  occ. eigenvalues --   -0.47991  -0.47865  -0.46682  -0.46568  -0.45849
 Alpha  occ. eigenvalues --   -0.45766  -0.45746  -0.45652  -0.43811  -0.43766
 Alpha virt. eigenvalues --    0.20176   0.23111   0.23565   0.25134   0.26059
 Alpha virt. eigenvalues --    0.26383   0.26699   0.27725   0.28050   0.29091
 Alpha virt. eigenvalues --    0.30389   0.30996   0.31486   0.31883   0.32197

 Mulliken charges:
               1
     1  C   -0.298350
     2  C   -0.299697
     3  C   -0.475743
     4  H    0.149523
     5  H    0.149608
     6  H    0.151986
     7  H    0.152071
     8  H    0.155256
     9  H    0.155172
    10  H    0.160365
    11  C   -0.298275
    12  C   -0.302587
    13  C   -0.479894
    14  H    0.149709
    15  H    0.150009
    16  H    0.151383
    17  H    0.155310
    18  H    0.155982
    19  H    0.155774
    20  H    0.162826
    21  C   -0.298301
    22  C   -0.299678
    23  C   -0.475694
    24  H    0.149719
    25  H    0.149720
    26  H    0.151928
    27  H    0.151887
    28  H    0.155130
    29  H    0.155193
    30  H    0.160219
    31  C   -0.299755
    32  C   -0.300720
    33  C   -0.482332
    34  H    0.149559
    35  H    0.150168
    36  H    0.151728
    37  H    0.153614
    38  H    0.162999
    39  H    0.154801
    40  H    0.159385
 Sum of Mulliken charges =  -0.00000

 Dipole moment (field-independent basis, Debye):
    X=              0.0310    Y=              0.0025    Z=              0.0082  Tot=              0.0322
 Quadrupole moment (field-independent basis, Debye-Ang):
   XX=            -84.5535   YY=            -85.7616   ZZ=            -84.4461
   XY=             -0.2777   XZ=              0.6039   YZ=             -1.1801

 Normal termination of Gaussian 16 at Wed May  5 23:00:28 2021.
