 Gaussian 16, Revision A.03,
 Gaussian 16:  EM64L-G16RevA.03 25-Dec-2016

 -------------
 #p 6-31g* mp2
 -------------

 ------------------------------------------------------
 Input file generated by CHIRIPA (05-May-2021 14:51:08)
 ------------------------------------------------------
 Symbolic Z-matrix:
 Charge =  0 Multiplicity = 1

                         Standard orientation:
 ---------------------------------------------------------------------
 Center     Atomic      Atomic             Coordinates (Angstroms)
 Number     Number       Type             X           Y           Z
 ---------------------------------------------------------------------
      1          6           0       -3.347076    0.792838   -0.345100
      2          6           0       -2.762467    1.937233    0.483500
      3          6           0       -1.750373    2.775734   -0.297766
      4          1           0       -2.529641    0.148994   -0.697535
      5          1           0       -3.827567    1.207217   -1.242213
      6          1           0       -2.284427    1.520927    1.379482
      7          1           0       -3.581404    2.578319    0.834164
      8          1           0       -2.218366    3.218172   -1.183109
      9          1           0       -0.914020    2.154771   -0.634693
     10          1           0       -1.345067    3.588110    0.313488
     11          6           0       -4.360490   -0.054477    0.422218
     12          6           0       -4.945100   -1.198873   -0.406382
     13          6           0       -5.957193   -2.037373    0.374885
     14          1           0       -3.879999   -0.468857    1.319331
     15          1           0       -5.177925    0.589366    0.774654
     16          1           0       -4.126162   -1.839959   -0.757046
     17          1           0       -5.423139   -0.782567   -1.302363
     18          1           0       -6.793547   -1.416411    0.711812
     19          1           0       -5.489200   -2.479811    1.260228
     20          1           0       -6.362499   -2.849750   -0.236369
     21          6           0        4.476759    0.036164    0.137591
     22          6           0        5.777869   -0.750525   -0.024336
     23          6           0        7.015350    0.073855    0.331798
     24          1           0        4.516582    0.932790   -0.495986
     25          1           0        4.396883    0.389718    1.174902
     26          1           0        5.854599   -1.103667   -1.060685
     27          1           0        5.734865   -1.645484    0.609555
     28          1           0        6.965508    0.414158    1.371179
     29          1           0        7.085921    0.959053   -0.308551
     30          1           0        7.934255   -0.507853    0.208968
     31          6           0        3.230807   -0.774523   -0.214709
     32          6           0        1.929697    0.012165   -0.052782
     33          6           0        0.692216   -0.812216   -0.408916
     34          1           0        3.310683   -1.128079   -1.252020
     35          1           0        3.190985   -1.671150    0.418868
     36          1           0        1.972700    0.907123   -0.686673
     37          1           0        1.852968    0.365307    0.983566
     38          1           0        0.621645   -1.697413    0.231433
     39          1           0        0.742057   -1.152518   -1.448297
     40          1           0       -0.226689   -0.230507   -0.286087
 ---------------------------------------------------------------------

 SCF Done:  E(RHF) =  -470.732919789     A.U. after   11 cycles
 E2 =    -0.1583252197D+01 EUMP2 =    -0.47231617198652D+03

 The electronic state is 1-A.
 Alpha  occ. eigenvalues --  -11.21651 -11.21616 -11.21598 -11.21571 -11.21432
 Alpha  occ. eigenvalues --  -11.21377 -11.21371 -11.21317 -11.21121 -11.21081
 Alpha  occ. eigenvalues --  -11.21052 -11.21047  -1.08465  -1.08411  -1.03584
 Alpha  occ. eigenvalues --   -1.03500  -0.96024  -0.95958  -0.87041  -0.86978
 Alpha  occ. eigenvalues --   -0.79635  -0.79570  -0.78271  -0.78227  -0.65098
 Alpha  occ. eigenvalues --   -0.65081  -0.61022  -0.60948  -0.59444  -0.59230
 Alpha  occ. eigenvalues --   -0.57648  -0.57537  -0.55313  -0.55238  -0.52751
 Alpha  occ. eigenvalues --   -0.52647  -0.52454  -0.52375  -0.49953  -0.49911
 Alpha  occ. eigenvalues --   -0.47994  -0.47848  -0.46661  -0.46592  -0.45812
 Alpha  occ. eigenvalues --   -0.45762  -0.45734  -0.45690  -0.43777  -0.43741
 Alpha virt. eigenvalues --    0.20682   0.23025   0.23616   0.25177   0.26283
 Alpha virt. eigenvalues --    0.26497   0.27054   0.27342   0.27954   0.28963
 Alpha virt. eigenvalues --    0.30773   0.31376   0.31564   0.31748   0.31857

 Mulliken charges:
               1
     1  C   -0.304858
     2  C   -0.300014
     3  C   -0.480319
     4  H    0.155014
     5  H    0.149731
     6  H    0.151856
     7  H    0.152353
     8  H    0.155237
     9  H    0.159337
    10  H    0.160449
    11  C   -0.297755
    12  C   -0.299866
    13  C   -0.475701
    14  H    0.149521
    15  H    0.149526
    16  H    0.152613
    17  H    0.151809
    18  H    0.155049
    19  H    0.155167
    20  H    0.160200
    21  C   -0.298290
    22  C   -0.299666
    23  C   -0.475726
    24  H    0.149873
    25  H    0.149595
    26  H    0.151976
    27  H    0.151928
    28  H    0.155209
    29  H    0.155265
    30  H    0.160299
    31  C   -0.298671
    32  C   -0.299669
    33  C   -0.486405
    34  H    0.149674
    35  H    0.149724
    36  H    0.152799
    37  H    0.152213
    38  H    0.155336
    39  H    0.155549
    40  H    0.169638
 Sum of Mulliken charges =  -0.00000

 Dipole moment (field-independent basis, Debye):
    X=              0.0191    Y=             -0.0037    Z=             -0.0048  Tot=              0.0200
 Quadrupole moment (field-independent basis, Debye-Ang):
   XX=            -85.7694   YY=            -85.0430   ZZ=            -83.9620
   XY=             -1.4027   XZ=              0.2903   YZ=             -0.3175

 Normal termination of Gaussian 16 at Thu May  6 16:32:43 2021.
