 Gaussian 16, Revision A.03,
 Gaussian 16:  EM64L-G16RevA.03 25-Dec-2016

 -------------
 #p 6-31g* mp2
 -------------

 ------------------------------------------------------
 Input file generated by CHIRIPA (05-May-2021 14:51:07)
 ------------------------------------------------------
 Symbolic Z-matrix:
 Charge =  0 Multiplicity = 1

                         Standard orientation:
 ---------------------------------------------------------------------
 Center     Atomic      Atomic             Coordinates (Angstroms)
 Number     Number       Type             X           Y           Z
 ---------------------------------------------------------------------
      1          6           0        4.482444   -0.149067    0.042171
      2          6           0        5.268795    1.111944   -0.317671
      3          6           0        6.745491    0.828737   -0.595084
      4          1           0        4.939067   -0.619113    0.923929
      5          1           0        4.569762   -0.874014   -0.778939
      6          1           0        5.178877    1.834838    0.503277
      7          1           0        4.810131    1.579147   -1.198560
      8          1           0        6.853209    0.126639   -1.428185
      9          1           0        7.224051    0.383783    0.283322
     10          1           0        7.288749    1.743940   -0.850298
     11          6           0        3.004600    0.117849    0.322281
     12          6           0        2.218248   -1.143162    0.682123
     13          6           0        0.741553   -0.859955    0.959536
     14          1           0        2.917281    0.842796    1.143391
     15          1           0        2.547976    0.587895   -0.559477
     16          1           0        2.676912   -1.610365    1.563012
     17          1           0        2.308166   -1.866056   -0.138825
     18          1           0        0.262993   -0.415000    0.081130
     19          1           0        0.633834   -0.157857    1.792637
     20          1           0        0.198295   -1.775158    1.214750
     21          6           0       -3.686907    0.749545   -0.386101
     22          6           0       -4.628634    1.669335    0.391795
     23          6           0       -4.503710    3.134435   -0.027336
     24          1           0       -2.651671    1.087132   -0.240271
     25          1           0       -3.898047    0.843861   -1.460307
     26          1           0       -4.416714    1.572275    1.464309
     27          1           0       -5.661733    1.329404    0.244252
     28          1           0       -4.735524    3.251990   -1.090841
     29          1           0       -3.483430    3.496241    0.136148
     30          1           0       -5.185749    3.774233    0.541296
     31          6           0       -3.800136   -0.718327    0.021649
     32          6           0       -2.858409   -1.638117   -0.756247
     33          6           0       -2.983334   -3.103217   -0.337116
     34          1           0       -3.588997   -0.812643    1.095855
     35          1           0       -4.835372   -1.055914   -0.124181
     36          1           0       -1.825311   -1.298186   -0.608703
     37          1           0       -3.070330   -1.541057   -1.828761
     38          1           0       -4.003613   -3.465024   -0.500600
     39          1           0       -2.751520   -3.220772    0.726389
     40          1           0       -2.301296   -3.743015   -0.905747
 ---------------------------------------------------------------------

 SCF Done:  E(RHF) =  -470.733018358     A.U. after   11 cycles
 E2 =    -0.1582899527D+01 EUMP2 =    -0.47231591788435D+03

 The electronic state is 1-A.
 Alpha  occ. eigenvalues --  -11.21665 -11.21628 -11.21555 -11.21449 -11.21443
 Alpha  occ. eigenvalues --  -11.21388 -11.21334 -11.21268 -11.21162 -11.21091
 Alpha  occ. eigenvalues --  -11.21036 -11.21012  -1.08478  -1.08354  -1.03590
 Alpha  occ. eigenvalues --   -1.03453  -0.96042  -0.95914  -0.87067  -0.86927
 Alpha  occ. eigenvalues --   -0.79687  -0.79493  -0.78295  -0.78161  -0.65137
 Alpha  occ. eigenvalues --   -0.64968  -0.61079  -0.60793  -0.59396  -0.59277
 Alpha  occ. eigenvalues --   -0.57645  -0.57527  -0.55358  -0.55185  -0.52737
 Alpha  occ. eigenvalues --   -0.52612  -0.52465  -0.52338  -0.50077  -0.49803
 Alpha  occ. eigenvalues --   -0.47994  -0.47823  -0.46813  -0.46435  -0.45885
 Alpha  occ. eigenvalues --   -0.45769  -0.45683  -0.45471  -0.43821  -0.43710
 Alpha virt. eigenvalues --    0.21408   0.22987   0.23798   0.24699   0.25509
 Alpha virt. eigenvalues --    0.26690   0.26942   0.27598   0.27899   0.29180
 Alpha virt. eigenvalues --    0.30961   0.31121   0.31729   0.31823   0.32414

 Mulliken charges:
               1
     1  C   -0.298350
     2  C   -0.299706
     3  C   -0.475740
     4  H    0.149754
     5  H    0.149685
     6  H    0.151950
     7  H    0.152040
     8  H    0.155254
     9  H    0.155215
    10  H    0.160360
    11  C   -0.298778
    12  C   -0.299496
    13  C   -0.481000
    14  H    0.149535
    15  H    0.149985
    16  H    0.152275
    17  H    0.152474
    18  H    0.158295
    19  H    0.155292
    20  H    0.162430
    21  C   -0.299132
    22  C   -0.299558
    23  C   -0.475700
    24  H    0.150113
    25  H    0.149118
    26  H    0.151987
    27  H    0.151842
    28  H    0.155008
    29  H    0.155161
    30  H    0.160076
    31  C   -0.297452
    32  C   -0.308244
    33  C   -0.475576
    34  H    0.149609
    35  H    0.149086
    36  H    0.162399
    37  H    0.150603
    38  H    0.154911
    39  H    0.154658
    40  H    0.159616
 Sum of Mulliken charges =  -0.00000

 Dipole moment (field-independent basis, Debye):
    X=              0.0625    Y=              0.0052    Z=              0.0146  Tot=              0.0644
 Quadrupole moment (field-independent basis, Debye-Ang):
   XX=            -85.5519   YY=            -86.0487   ZZ=            -83.3917
   XY=              0.1518   XZ=              0.9324   YZ=              0.4283

 Normal termination of Gaussian 16 at Thu May  6 08:23:57 2021.
