 Gaussian 16, Revision A.03,
 Gaussian 16:  EM64L-G16RevA.03 25-Dec-2016

 -------------
 #p 6-31g* mp2
 -------------

 ------------------------------------------------------
 Input file generated by CHIRIPA (05-May-2021 14:55:19)
 ------------------------------------------------------
 Symbolic Z-matrix:
 Charge =  0 Multiplicity = 1

                         Standard orientation:
 ---------------------------------------------------------------------
 Center     Atomic      Atomic             Coordinates (Angstroms)
 Number     Number       Type             X           Y           Z
 ---------------------------------------------------------------------
      1          6           0       -4.511553   -1.626302   -1.145092
      2          6           0       -4.870171   -0.294408   -1.377412
      3          6           0       -4.138464    0.748644   -0.801918
      4          6           0       -3.049026    0.422207    0.004217
      5          6           0       -2.666802   -0.894799    0.254597
      6          6           0       -3.412949   -1.921726   -0.331264
      7          1           0       -5.085570   -2.430307   -1.596177
      8          1           0       -5.722887   -0.062010   -2.009007
      9          1           0       -4.394103    1.788569   -0.965083
     10          1           0       -1.811775   -1.095183    0.888784
     11          1           0       -3.132136   -2.955168   -0.149092
     12          7           0       -2.266756    1.517904    0.618955
     13          8           0       -1.311179    1.203902    1.325292
     14          8           0       -2.624002    2.669966    0.382809
     15          6           0        4.531500   -0.408789   -0.474456
     16          6           0        5.558478    0.712040   -0.638907
     17          6           0        6.478924    0.498746   -1.841021
     18          1           0        5.057948   -1.367316   -0.369466
     19          1           0        3.928939   -0.481811   -1.390417
     20          1           0        6.158008    0.783840    0.277622
     21          1           0        5.029529    1.668034   -0.743326
     22          1           0        5.897494    0.448713   -2.767324
     23          1           0        7.032385   -0.440505   -1.740575
     24          1           0        7.205160    1.311570   -1.939800
     25          6           0        3.604060   -0.209766    0.723030
     26          6           0        2.577082   -1.330594    0.887479
     27          6           0        1.656636   -1.117301    2.089594
     28          1           0        4.206621   -0.136745    1.638990
     29          1           0        3.077613    0.748761    0.618038
     30          1           0        3.106031   -2.286589    0.991899
     31          1           0        1.977551   -1.402395   -0.029049
     32          1           0        1.103175   -0.178050    1.989148
     33          1           0        2.238066   -1.067268    3.015897
     34          1           0        0.930400   -1.930125    2.188373
 ---------------------------------------------------------------------

 SCF Done:  E(RHF) =  -669.536139222     A.U. after   15 cycles
 E2 =    -0.2091044472D+01 EUMP2 =    -0.67162718369373D+03

 The electronic state is 1-A.
 Alpha  occ. eigenvalues --  -20.60896 -20.60882 -15.85939 -11.31246 -11.27815
 Alpha  occ. eigenvalues --  -11.27795 -11.27554 -11.26821 -11.26808 -11.21235
 Alpha  occ. eigenvalues --  -11.21167 -11.21002 -11.20858 -11.20784 -11.20398
 Alpha  occ. eigenvalues --   -1.59961  -1.39516  -1.19417  -1.08825  -1.07996
 Alpha  occ. eigenvalues --   -1.04812  -1.03098  -0.95676  -0.95526  -0.86550
 Alpha  occ. eigenvalues --   -0.86212  -0.82503  -0.79167  -0.77809  -0.77548
 Alpha  occ. eigenvalues --   -0.72168  -0.71278  -0.70526  -0.65077  -0.64818
 Alpha  occ. eigenvalues --   -0.64616  -0.62160  -0.60476  -0.58933  -0.57161
 Alpha  occ. eigenvalues --   -0.55319  -0.54787  -0.53147  -0.52907  -0.52257
 Alpha  occ. eigenvalues --   -0.51949  -0.49470  -0.48912  -0.48876  -0.47475
 Alpha  occ. eigenvalues --   -0.46182  -0.45349  -0.45264  -0.44915  -0.43369
 Alpha  occ. eigenvalues --   -0.37400  -0.36414
 Alpha virt. eigenvalues --    0.04967   0.11237   0.16459   0.20845   0.23182
 Alpha virt. eigenvalues --    0.24114   0.26768   0.27180   0.27681   0.27969
 Alpha virt. eigenvalues --    0.29323   0.31059   0.31671   0.32029   0.32264

 Mulliken charges:
               1
     1  C   -0.170473
     2  C   -0.218766
     3  C   -0.170697
     4  C    0.157265
     5  C   -0.173045
     6  C   -0.219279
     7  H    0.225834
     8  H    0.223612
     9  H    0.275614
    10  H    0.280072
    11  H    0.223960
    12  N    0.493640
    13  O   -0.466435
    14  O   -0.459501
    15  C   -0.297870
    16  C   -0.299748
    17  C   -0.475451
    18  H    0.147469
    19  H    0.148178
    20  H    0.151723
    21  H    0.153996
    22  H    0.154409
    23  H    0.153947
    24  H    0.159820
    25  C   -0.299608
    26  C   -0.298007
    27  C   -0.487582
    28  H    0.148995
    29  H    0.157059
    30  H    0.147746
    31  H    0.147427
    32  H    0.184916
    33  H    0.153930
    34  H    0.146847
 Sum of Mulliken charges =  -0.00000

 Dipole moment (field-independent basis, Debye):
    X=             -2.8817    Y=             -3.6924    Z=             -2.1431  Tot=              5.1508
 Quadrupole moment (field-independent basis, Debye-Ang):
   XX=            -77.0363   YY=            -96.1219   ZZ=            -94.9438
   XY=              8.5187   XZ=              9.4465   YZ=             -2.6393

 Normal termination of Gaussian 16 at Wed May  5 18:51:03 2021.
