 Gaussian 16, Revision A.03,
 Gaussian 16:  EM64L-G16RevA.03 25-Dec-2016

 -------------
 #p 6-31g* mp2
 -------------

 ------------------------------------------------------
 Input file generated by CHIRIPA (05-May-2021 14:55:20)
 ------------------------------------------------------
 Symbolic Z-matrix:
 Charge =  0 Multiplicity = 1

                         Standard orientation:
 ---------------------------------------------------------------------
 Center     Atomic      Atomic             Coordinates (Angstroms)
 Number     Number       Type             X           Y           Z
 ---------------------------------------------------------------------
      1          6           0       -1.644705    2.418960    1.130970
      2          6           0       -2.117262    1.260016    1.755518
      3          6           0       -2.454857    0.133409    0.999652
      4          6           0       -2.306909    0.200840   -0.384853
      5          6           0       -1.838749    1.340857   -1.036373
      6          6           0       -1.507199    2.455617   -0.260529
      7          1           0       -1.384802    3.289534    1.725905
      8          1           0       -2.225064    1.228689    2.836001
      9          1           0       -2.823042   -0.776749    1.457332
     10          1           0       -1.741955    1.341962   -2.115283
     11          1           0       -1.140451    3.354311   -0.748268
     12          7           0       -2.661106   -0.985577   -1.195630
     13          8           0       -2.521756   -0.900738   -2.413834
     14          8           0       -3.071367   -1.977865   -0.597560
     15          6           0        2.455563   -0.576094    0.954146
     16          6           0        1.313495   -1.583084    0.814009
     17          6           0        0.477173   -1.709460    2.087739
     18          1           0        3.101392   -0.877755    1.790118
     19          1           0        2.039094    0.405547    1.219346
     20          1           0        1.731882   -2.562216    0.547795
     21          1           0        0.670418   -1.279095   -0.021847
     22          1           0        0.032692   -0.745027    2.354021
     23          1           0        1.100187   -2.035438    2.926900
     24          1           0       -0.333558   -2.434449    1.965406
     25          6           0        3.300683   -0.438629   -0.311003
     26          6           0        4.442750    0.568362   -0.170866
     27          6           0        5.279072    0.694737   -1.444596
     28          1           0        3.717151   -1.420270   -0.576204
     29          1           0        2.654853   -0.136967   -1.146975
     30          1           0        5.085828    0.264372    0.664990
     31          1           0        4.024363    1.547493    0.095347
     32          1           0        4.656058    1.020716   -2.283758
     33          1           0        5.723554   -0.269696   -1.710879
     34          1           0        6.089804    1.419727   -1.322264
 ---------------------------------------------------------------------

 SCF Done:  E(RHF) =  -669.534978857     A.U. after   15 cycles
 E2 =    -0.2093768720D+01 EUMP2 =    -0.67162874757724D+03

 The electronic state is 1-A.
 Alpha  occ. eigenvalues --  -20.60841 -20.60835 -15.85896 -11.31268 -11.27858
 Alpha  occ. eigenvalues --  -11.27839 -11.27606 -11.26857 -11.26838 -11.21717
 Alpha  occ. eigenvalues --  -11.21546 -11.21442 -11.21383 -11.21166 -11.21037
 Alpha  occ. eigenvalues --   -1.59915  -1.39468  -1.19463  -1.08850  -1.08466
 Alpha  occ. eigenvalues --   -1.04870  -1.03564  -0.96035  -0.95673  -0.87055
 Alpha  occ. eigenvalues --   -0.86255  -0.82510  -0.79637  -0.78277  -0.77549
 Alpha  occ. eigenvalues --   -0.72110  -0.71245  -0.70560  -0.65127  -0.65092
 Alpha  occ. eigenvalues --   -0.64857  -0.62214  -0.60998  -0.59385  -0.57628
 Alpha  occ. eigenvalues --   -0.55435  -0.55341  -0.53134  -0.52970  -0.52685
 Alpha  occ. eigenvalues --   -0.52424  -0.49976  -0.48871  -0.48864  -0.47941
 Alpha  occ. eigenvalues --   -0.46687  -0.45814  -0.45757  -0.44866  -0.43823
 Alpha  occ. eigenvalues --   -0.37427  -0.36374
 Alpha virt. eigenvalues --    0.04975   0.11120   0.16390   0.21142   0.22756
 Alpha virt. eigenvalues --    0.24125   0.26491   0.26717   0.27246   0.27937
 Alpha virt. eigenvalues --    0.28770   0.30024   0.31173   0.31548   0.31947

 Mulliken charges:
               1
     1  C   -0.171229
     2  C   -0.220475
     3  C   -0.165697
     4  C    0.158891
     5  C   -0.172199
     6  C   -0.218829
     7  H    0.226245
     8  H    0.224702
     9  H    0.277322
    10  H    0.275991
    11  H    0.223765
    12  N    0.488434
    13  O   -0.460275
    14  O   -0.460398
    15  C   -0.298075
    16  C   -0.298088
    17  C   -0.482987
    18  H    0.148802
    19  H    0.146468
    20  H    0.155255
    21  H    0.151813
    22  H    0.152345
    23  H    0.153395
    24  H    0.164639
    25  C   -0.298375
    26  C   -0.299194
    27  C   -0.475588
    28  H    0.151567
    29  H    0.150125
    30  H    0.151963
    31  H    0.148567
    32  H    0.154865
    33  H    0.156739
    34  H    0.159515
 Sum of Mulliken charges =  -0.00000

 Dipole moment (field-independent basis, Debye):
    X=              1.1705    Y=              4.1518    Z=              2.8133  Tot=              5.1499
 Quadrupole moment (field-independent basis, Debye-Ang):
   XX=           -101.0649   YY=            -91.7337   ZZ=            -94.4683
   XY=             -9.4894   XZ=             -7.7410   YZ=             -3.3565

 Normal termination of Gaussian 16 at Thu May  6 15:47:26 2021.
