 Gaussian 16, Revision A.03,
 Gaussian 16:  EM64L-G16RevA.03 25-Dec-2016

 -------------
 #p 6-31g* mp2
 -------------

 ------------------------------------------------------
 Input file generated by CHIRIPA (05-May-2021 14:55:22)
 ------------------------------------------------------
 Symbolic Z-matrix:
 Charge =  0 Multiplicity = 1

                         Standard orientation:
 ---------------------------------------------------------------------
 Center     Atomic      Atomic             Coordinates (Angstroms)
 Number     Number       Type             X           Y           Z
 ---------------------------------------------------------------------
      1          6           0       -3.957687    2.240873    0.220727
      2          6           0       -4.529570    1.048655    0.676894
      3          6           0       -3.865575   -0.169328    0.503182
      4          6           0       -2.625646   -0.158349   -0.133800
      5          6           0       -2.029833    1.012789   -0.599347
      6          6           0       -2.711841    2.219173   -0.414817
      7          1           0       -4.480491    3.182526    0.359873
      8          1           0       -5.496987    1.062493    1.170815
      9          1           0       -4.285338   -1.107037    0.846574
     10          1           0       -1.064160    0.967225   -1.088035
     11          1           0       -2.265301    3.143521   -0.770105
     12          7           0       -1.913170   -1.441633   -0.323427
     13          8           0       -0.821892   -1.405138   -0.887713
     14          8           0       -2.459499   -2.459667    0.095819
     15          6           0        3.713081    0.578985    0.483415
     16          6           0        4.204907    1.663396   -0.475825
     17          6           0        4.605240    2.951774    0.243626
     18          1           0        2.856345    0.963711    1.053446
     19          1           0        4.503046    0.360997    1.215422
     20          1           0        3.414763    1.878289   -1.206653
     21          1           0        5.060453    1.275977   -1.043774
     22          1           0        5.410130    2.758708    0.960200
     23          1           0        3.755090    3.364441    0.796395
     24          1           0        4.953711    3.713371   -0.460930
     25          6           0        3.309179   -0.715054   -0.220896
     26          6           0        2.817352   -1.799466    0.738345
     27          6           0        2.417021   -3.087844    0.018894
     28          1           0        2.519215   -0.497066   -0.952902
     29          1           0        4.165915   -1.099780   -0.790926
     30          1           0        1.961808   -1.412046    1.306294
     31          1           0        3.607497   -2.014358    1.469173
     32          1           0        3.267170   -3.500511   -0.533876
     33          1           0        1.612130   -2.894777   -0.697679
     34          1           0        2.068550   -3.849440    0.723450
 ---------------------------------------------------------------------

 SCF Done:  E(RHF) =  -669.536373321     A.U. after   15 cycles
 E2 =    -0.2091446097D+01 EUMP2 =    -0.67162781941811D+03

 The electronic state is 1-A.
 Alpha  occ. eigenvalues --  -20.61035 -20.61024 -15.86058 -11.31350 -11.27911
 Alpha  occ. eigenvalues --  -11.27903 -11.27638 -11.26908 -11.26898 -11.21313
 Alpha  occ. eigenvalues --  -11.20922 -11.20874 -11.20525 -11.20460 -11.19462
 Alpha  occ. eigenvalues --   -1.60084  -1.39642  -1.19514  -1.08923  -1.07742
 Alpha  occ. eigenvalues --   -1.04906  -1.02749  -0.95772  -0.95187  -0.86308
 Alpha  occ. eigenvalues --   -0.86206  -0.82606  -0.78895  -0.77666  -0.77472
 Alpha  occ. eigenvalues --   -0.72287  -0.71395  -0.70622  -0.65174  -0.64908
 Alpha  occ. eigenvalues --   -0.64373  -0.62254  -0.60127  -0.58661  -0.56788
 Alpha  occ. eigenvalues --   -0.55412  -0.54465  -0.53238  -0.52997  -0.51893
 Alpha  occ. eigenvalues --   -0.51617  -0.49337  -0.49027  -0.48816  -0.47172
 Alpha  occ. eigenvalues --   -0.45935  -0.45127  -0.44970  -0.44847  -0.43019
 Alpha  occ. eigenvalues --   -0.37490  -0.36506
 Alpha virt. eigenvalues --    0.04855   0.11149   0.16345   0.21111   0.23281
 Alpha virt. eigenvalues --    0.25097   0.26604   0.27392   0.27891   0.28728
 Alpha virt. eigenvalues --    0.28882   0.30957   0.32049   0.32235   0.32587

 Mulliken charges:
               1
     1  C   -0.170479
     2  C   -0.218569
     3  C   -0.170482
     4  C    0.157775
     5  C   -0.170907
     6  C   -0.218529
     7  H    0.226270
     8  H    0.224056
     9  H    0.276039
    10  H    0.275357
    11  H    0.224130
    12  N    0.490940
    13  O   -0.463015
    14  O   -0.457901
    15  C   -0.297465
    16  C   -0.298274
    17  C   -0.474948
    18  H    0.145806
    19  H    0.148417
    20  H    0.147796
    21  H    0.152589
    22  H    0.155760
    23  H    0.151942
    24  H    0.158269
    25  C   -0.300000
    26  C   -0.295053
    27  C   -0.484492
    28  H    0.155556
    29  H    0.146927
    30  H    0.150975
    31  H    0.145095
    32  H    0.145746
    33  H    0.183414
    34  H    0.157255
 Sum of Mulliken charges =  -0.00000

 Dipole moment (field-independent basis, Debye):
    X=             -2.8395    Y=              4.4431    Z=              0.5911  Tot=              5.3060
 Quadrupole moment (field-independent basis, Debye-Ang):
   XX=            -78.9634   YY=            -96.5913   ZZ=            -94.8908
   XY=            -10.2091   XZ=             -3.7339   YZ=             -2.2089

 Normal termination of Gaussian 16 at Thu May  6 15:55:01 2021.
