 Gaussian 16, Revision A.03,
 Gaussian 16:  EM64L-G16RevA.03 25-Dec-2016

 -------------
 #p 6-31g* mp2
 -------------

 ------------------------------------------------------
 Input file generated by CHIRIPA (05-May-2021 14:55:20)
 ------------------------------------------------------
 Symbolic Z-matrix:
 Charge =  0 Multiplicity = 1

                         Standard orientation:
 ---------------------------------------------------------------------
 Center     Atomic      Atomic             Coordinates (Angstroms)
 Number     Number       Type             X           Y           Z
 ---------------------------------------------------------------------
      1          6           0       -2.312880    2.055357    0.772027
      2          6           0       -1.944804    1.084526    1.709326
      3          6           0       -1.893641   -0.265671    1.350302
      4          6           0       -2.218366   -0.611219    0.039409
      5          6           0       -2.588794    0.332672   -0.917222
      6          6           0       -2.633135    1.676998   -0.535950
      7          1           0       -2.349975    3.101942    1.059567
      8          1           0       -1.695567    1.375458    2.725832
      9          1           0       -1.611957   -1.037878    2.055829
     10          1           0       -2.831742    0.012036   -1.922998
     11          1           0       -2.919331    2.428797   -1.265975
     12          7           0       -2.167813   -2.037505   -0.352450
     13          8           0       -2.458541   -2.316081   -1.513704
     14          8           0       -1.838417   -2.849844    0.509084
     15          6           0        3.513249    0.104739   -0.175948
     16          6           0        3.426942   -1.334467    0.333191
     17          6           0        4.761376   -2.075137    0.241059
     18          1           0        3.859246    0.097949   -1.218630
     19          1           0        4.274743    0.645904    0.402552
     20          1           0        2.664860   -1.872370   -0.245175
     21          1           0        3.080927   -1.324261    1.374721
     22          1           0        5.527484   -1.563732    0.832789
     23          1           0        5.109053   -2.114957   -0.796311
     24          1           0        4.676902   -3.102003    0.610207
     25          6           0        2.187097    0.858205   -0.090272
     26          6           0        2.273404    2.297410   -0.599410
     27          6           0        0.938970    3.038081   -0.507278
     28          1           0        1.425603    0.317040   -0.668772
     29          1           0        1.841100    0.864994    0.952410
     30          1           0        2.619418    2.287205   -1.640941
     31          1           0        3.035485    2.835314   -0.021045
     32          1           0        0.591293    3.077900    0.530091
     33          1           0        0.172862    2.526676   -1.099009
     34          1           0        1.023444    4.064947   -0.876426
 ---------------------------------------------------------------------

 SCF Done:  E(RHF) =  -669.534702706     A.U. after   15 cycles
 E2 =    -0.2093535234D+01 EUMP2 =    -0.67162823794016D+03

 The electronic state is 1-A.
 Alpha  occ. eigenvalues --  -20.60788 -20.60783 -15.85845 -11.31209 -11.27803
 Alpha  occ. eigenvalues --  -11.27799 -11.27508 -11.26779 -11.26759 -11.21808
 Alpha  occ. eigenvalues --  -11.21474 -11.21451 -11.21374 -11.21344 -11.20900
 Alpha  occ. eigenvalues --   -1.59866  -1.39419  -1.19391  -1.08786  -1.08469
 Alpha  occ. eigenvalues --   -1.04798  -1.03579  -0.96059  -0.95606  -0.87077
 Alpha  occ. eigenvalues --   -0.86191  -0.82448  -0.79661  -0.78266  -0.77495
 Alpha  occ. eigenvalues --   -0.72062  -0.71190  -0.70494  -0.65110  -0.65041
 Alpha  occ. eigenvalues --   -0.64796  -0.62145  -0.60983  -0.59432  -0.57675
 Alpha  occ. eigenvalues --   -0.55405  -0.55234  -0.53332  -0.52886  -0.52748
 Alpha  occ. eigenvalues --   -0.52316  -0.50002  -0.48821  -0.48816  -0.47928
 Alpha  occ. eigenvalues --   -0.46692  -0.45797  -0.45718  -0.44825  -0.43837
 Alpha  occ. eigenvalues --   -0.37258  -0.36369
 Alpha virt. eigenvalues --    0.05028   0.11163   0.16460   0.21105   0.22833
 Alpha virt. eigenvalues --    0.24282   0.26332   0.27215   0.27278   0.27625
 Alpha virt. eigenvalues --    0.28667   0.30660   0.31502   0.31705   0.32079

 Mulliken charges:
               1
     1  C   -0.163089
     2  C   -0.219610
     3  C   -0.168918
     4  C    0.158478
     5  C   -0.172352
     6  C   -0.220038
     7  H    0.226533
     8  H    0.223142
     9  H    0.275822
    10  H    0.275644
    11  H    0.224042
    12  N    0.487860
    13  O   -0.460842
    14  O   -0.460240
    15  C   -0.298587
    16  C   -0.300211
    17  C   -0.475914
    18  H    0.150317
    19  H    0.148095
    20  H    0.157481
    21  H    0.150129
    22  H    0.153374
    23  H    0.155507
    24  H    0.162527
    25  C   -0.297232
    26  C   -0.299560
    27  C   -0.477492
    28  H    0.151402
    29  H    0.146174
    30  H    0.152834
    31  H    0.151093
    32  H    0.148593
    33  H    0.158833
    34  H    0.156202
 Sum of Mulliken charges =  -0.00000

 Dipole moment (field-independent basis, Debye):
    X=             -0.2428    Y=              4.9422    Z=              1.3778  Tot=              5.1364
 Quadrupole moment (field-independent basis, Debye-Ang):
   XX=            -95.0932   YY=           -101.8514   ZZ=            -89.5761
   XY=            -11.2964   XZ=             -1.4586   YZ=             -1.6005

 Normal termination of Gaussian 16 at Thu May  6 10:49:34 2021.
