 Gaussian 16, Revision A.03,
 Gaussian 16:  EM64L-G16RevA.03 25-Dec-2016

 -------------
 #p 6-31g* mp2
 -------------

 ------------------------------------------------------
 Input file generated by CHIRIPA (05-May-2021 14:55:19)
 ------------------------------------------------------
 Symbolic Z-matrix:
 Charge =  0 Multiplicity = 1

                         Standard orientation:
 ---------------------------------------------------------------------
 Center     Atomic      Atomic             Coordinates (Angstroms)
 Number     Number       Type             X           Y           Z
 ---------------------------------------------------------------------
      1          6           0       -0.613838   -1.301073    0.786304
      2          6           0       -0.790560    0.054381    1.083007
      3          6           0       -1.973622    0.710173    0.729669
      4          6           0       -2.963615   -0.023338    0.077622
      5          6           0       -2.817359   -1.374706   -0.231738
      6          6           0       -1.626017   -2.010041    0.131034
      7          1           0        0.308409   -1.802563    1.064450
      8          1           0       -0.006196    0.607486    1.591823
      9          1           0       -2.136743    1.758731    0.947237
     10          1           0       -3.617248   -1.899610   -0.739745
     11          1           0       -1.491531   -3.062788   -0.100661
     12          7           0       -4.220453    0.660091   -0.301435
     13          8           0       -5.077443   -0.008472   -0.875219
     14          8           0       -4.324773    1.851384   -0.017578
     15          6           0        3.482746   -0.486255   -0.560578
     16          6           0        3.527627   -1.715334    0.347903
     17          6           0        3.435522   -3.028726   -0.429473
     18          1           0        2.552498   -0.503760   -1.144766
     19          1           0        4.307503   -0.543620   -1.284374
     20          1           0        2.703859   -1.654979    1.070660
     21          1           0        4.457787   -1.694802    0.930136
     22          1           0        4.264771   -3.115390   -1.139006
     23          1           0        2.500876   -3.075340   -0.997684
     24          1           0        3.469457   -3.894362    0.239395
     25          6           0        3.573825    0.834353    0.201935
     26          6           0        3.528944    2.063431   -0.706545
     27          6           0        3.621048    3.376824    0.070830
     28          1           0        2.749068    0.891718    0.925732
     29          1           0        4.504072    0.851857    0.786124
     30          1           0        2.598783    2.042900   -1.288778
     31          1           0        4.352712    2.003076   -1.429303
     32          1           0        4.555695    3.423437    0.639041
     33          1           0        2.791800    3.463488    0.780364
     34          1           0        3.587114    4.242460   -0.598036
 ---------------------------------------------------------------------

 SCF Done:  E(RHF) =  -669.535494160     A.U. after   15 cycles
 E2 =    -0.2092113969D+01 EUMP2 =    -0.67162760812908D+03

 The electronic state is 1-A.
 Alpha  occ. eigenvalues --  -20.60776 -20.60771 -15.85831 -11.31206 -11.27777
 Alpha  occ. eigenvalues --  -11.27772 -11.27494 -11.26794 -11.26780 -11.22755
 Alpha  occ. eigenvalues --  -11.22332 -11.22279 -11.22244 -11.22109 -11.21674
 Alpha  occ. eigenvalues --   -1.59852  -1.39405  -1.19378  -1.09348  -1.08767
 Alpha  occ. eigenvalues --   -1.04783  -1.04414  -0.96841  -0.95604  -0.87857
 Alpha  occ. eigenvalues --   -0.86179  -0.82438  -0.80484  -0.79141  -0.77483
 Alpha  occ. eigenvalues --   -0.72048  -0.71175  -0.70518  -0.66016  -0.65027
 Alpha  occ. eigenvalues --   -0.64755  -0.62134  -0.61832  -0.60219  -0.58445
 Alpha  occ. eigenvalues --   -0.56161  -0.55250  -0.53526  -0.53257  -0.53107
 Alpha  occ. eigenvalues --   -0.52872  -0.50791  -0.48829  -0.48803  -0.48759
 Alpha  occ. eigenvalues --   -0.47530  -0.46682  -0.46591  -0.44808  -0.44660
 Alpha  occ. eigenvalues --   -0.37351  -0.36388
 Alpha virt. eigenvalues --    0.05036   0.11203   0.16453   0.18273   0.22362
 Alpha virt. eigenvalues --    0.23339   0.24899   0.26207   0.26815   0.27800
 Alpha virt. eigenvalues --    0.29156   0.30331   0.30879   0.31321   0.32129

 Mulliken charges:
               1
     1  C   -0.176550
     2  C   -0.223050
     3  C   -0.171181
     4  C    0.158538
     5  C   -0.170682
     6  C   -0.220307
     7  H    0.234879
     8  H    0.225557
     9  H    0.275814
    10  H    0.275673
    11  H    0.224121
    12  N    0.488008
    13  O   -0.460340
    14  O   -0.460370
    15  C   -0.300852
    16  C   -0.302164
    17  C   -0.477888
    18  H    0.152748
    19  H    0.154115
    20  H    0.140168
    21  H    0.157516
    22  H    0.161175
    23  H    0.153179
    24  H    0.161293
    25  C   -0.298180
    26  C   -0.301273
    27  C   -0.475404
    28  H    0.140937
    29  H    0.152528
    30  H    0.154648
    31  H    0.154770
    32  H    0.156504
    33  H    0.151979
    34  H    0.164091
 Sum of Mulliken charges =  -0.00000

 Dipole moment (field-independent basis, Debye):
    X=              4.6252    Y=             -2.3750    Z=              1.2095  Tot=              5.3381
 Quadrupole moment (field-independent basis, Debye-Ang):
   XX=           -119.0421   YY=            -91.9443   ZZ=            -94.6867
   XY=              8.7317   XZ=             -3.3197   YZ=              1.3048

 Normal termination of Gaussian 16 at Thu May  6 06:05:46 2021.
