 Gaussian 16, Revision A.03,
 Gaussian 16:  EM64L-G16RevA.03 25-Dec-2016

 -------------
 #p 6-31g* mp2
 -------------

 ------------------------------------------------------
 Input file generated by CHIRIPA (05-May-2021 14:55:21)
 ------------------------------------------------------
 Symbolic Z-matrix:
 Charge =  0 Multiplicity = 1

                         Standard orientation:
 ---------------------------------------------------------------------
 Center     Atomic      Atomic             Coordinates (Angstroms)
 Number     Number       Type             X           Y           Z
 ---------------------------------------------------------------------
      1          6           0        4.544973    1.212068    0.427200
      2          6           0        4.782366    0.014857   -0.256066
      3          6           0        3.746248   -0.899759   -0.466979
      4          6           0        2.479326   -0.583621    0.021134
      5          6           0        2.211260    0.600834    0.705603
      6          6           0        3.262439    1.500727    0.905011
      7          1           0        5.355705    1.916845    0.586573
      8          1           0        5.777391   -0.211958   -0.628256
      9          1           0        3.902194   -1.833973   -0.992662
     10          1           0        1.208749    0.799120    1.064869
     11          1           0        3.075160    2.429724    1.435987
     12          7           0        1.374462   -1.544091   -0.196060
     13          8           0        0.267269   -1.242089    0.243890
     14          8           0        1.636583   -2.580722   -0.802134
     15          6           0       -3.942233    0.116813    0.264333
     16          6           0       -3.819790   -1.373075   -0.056948
     17          6           0       -4.898329   -2.215442    0.624935
     18          1           0       -3.885276    0.256637    1.352520
     19          1           0       -4.935407    0.471022   -0.044758
     20          1           0       -2.826635   -1.724053    0.251394
     21          1           0       -3.876853   -1.509349   -1.144509
     22          1           0       -5.895828   -1.893148    0.309146
     23          1           0       -4.839643   -2.109071    1.712980
     24          1           0       -4.792012   -3.277216    0.381636
     25          6           0       -2.871004    0.972014   -0.410075
     26          6           0       -2.993447    2.461905   -0.088795
     27          6           0       -1.914908    3.304272   -0.770678
     28          1           0       -1.877830    0.617807   -0.100985
     29          1           0       -2.927962    0.832192   -1.498263
     30          1           0       -2.936383    2.598178    0.998766
     31          1           0       -3.986601    2.812882   -0.397136
     32          1           0       -1.973594    3.197901   -1.858723
     33          1           0       -0.917408    2.981977   -0.454889
     34          1           0       -2.021225    4.366045   -0.527378
 ---------------------------------------------------------------------

 SCF Done:  E(RHF) =  -669.536399655     A.U. after   15 cycles
 E2 =    -0.2091867712D+01 EUMP2 =    -0.67162826736708D+03

 The electronic state is 1-A.
 Alpha  occ. eigenvalues --  -20.61032 -20.61025 -15.86054 -11.31340 -11.27904
 Alpha  occ. eigenvalues --  -11.27892 -11.27624 -11.26898 -11.26888 -11.21112
 Alpha  occ. eigenvalues --  -11.20882 -11.20456 -11.20392 -11.20280 -11.20068
 Alpha  occ. eigenvalues --   -1.60081  -1.39640  -1.19503  -1.08912  -1.07556
 Alpha  occ. eigenvalues --   -1.04895  -1.02745  -0.95762  -0.95231  -0.86297
 Alpha  occ. eigenvalues --   -0.86262  -0.82601  -0.78808  -0.77683  -0.77263
 Alpha  occ. eigenvalues --   -0.72281  -0.71387  -0.70613  -0.65165  -0.64898
 Alpha  occ. eigenvalues --   -0.64180  -0.62245  -0.60151  -0.58631  -0.56807
 Alpha  occ. eigenvalues --   -0.55399  -0.54539  -0.53225  -0.52987  -0.51972
 Alpha  occ. eigenvalues --   -0.51657  -0.49257  -0.49030  -0.49008  -0.47120
 Alpha  occ. eigenvalues --   -0.45832  -0.45174  -0.44859  -0.44522  -0.42960
 Alpha  occ. eigenvalues --   -0.37476  -0.36493
 Alpha virt. eigenvalues --    0.04843   0.11145   0.16336   0.20592   0.23216
 Alpha virt. eigenvalues --    0.24736   0.26331   0.27471   0.27884   0.28686
 Alpha virt. eigenvalues --    0.29308   0.31020   0.31565   0.32244   0.32731

 Mulliken charges:
               1
     1  C   -0.170419
     2  C   -0.218507
     3  C   -0.170538
     4  C    0.158018
     5  C   -0.171547
     6  C   -0.218569
     7  H    0.226276
     8  H    0.224026
     9  H    0.275946
    10  H    0.276332
    11  H    0.224360
    12  N    0.493490
    13  O   -0.465515
    14  O   -0.458079
    15  C   -0.296447
    16  C   -0.307099
    17  C   -0.475258
    18  H    0.145900
    19  H    0.144230
    20  H    0.176225
    21  H    0.149221
    22  H    0.150163
    23  H    0.152330
    24  H    0.160088
    25  C   -0.307981
    26  C   -0.299077
    27  C   -0.473189
    28  H    0.168991
    29  H    0.147681
    30  H    0.148000
    31  H    0.150626
    32  H    0.156522
    33  H    0.146795
    34  H    0.157004
 Sum of Mulliken charges =  -0.00000

 Dipole moment (field-independent basis, Debye):
    X=              4.2055    Y=              3.1862    Z=              0.7413  Tot=              5.3280
 Quadrupole moment (field-independent basis, Debye-Ang):
   XX=            -74.9584   YY=            -98.2433   ZZ=            -93.8675
   XY=              3.6892   XZ=              1.1528   YZ=              1.6698

 Normal termination of Gaussian 16 at Wed May  5 23:50:25 2021.
