 Gaussian 16, Revision A.03,
 Gaussian 16:  EM64L-G16RevA.03 25-Dec-2016

 -------------
 #p 6-31g* mp2
 -------------

 ------------------------------------------------------
 Input file generated by CHIRIPA (05-May-2021 14:57:21)
 ------------------------------------------------------
 Symbolic Z-matrix:
 Charge =  0 Multiplicity = 1

                         Standard orientation:
 ---------------------------------------------------------------------
 Center     Atomic      Atomic             Coordinates (Angstroms)
 Number     Number       Type             X           Y           Z
 ---------------------------------------------------------------------
      1          6           0        5.734812    1.746924    0.275792
      2          6           0        6.117249    0.406224    0.162708
      3          6           0        5.155753   -0.594560   -0.006131
      4          6           0        3.814739   -0.217335   -0.057820
      5          6           0        3.402187    1.109719    0.051811
      6          6           0        4.380889    2.093781    0.220081
      7          1           0        6.488407    2.517862    0.406729
      8          1           0        7.167989    0.133924    0.205620
      9          1           0        5.424011   -1.640177   -0.096357
     10          1           0        2.347026    1.350324    0.005313
     11          1           0        4.080968    3.134179    0.307622
     12          7           0        2.787739   -1.267969   -0.236261
     13          8           0        1.612831   -0.909598   -0.278658
     14          8           0        3.177132   -2.429932   -0.330346
     15          6           0       -6.361822    0.885876   -0.030148
     16          6           0       -5.305621    1.749996   -0.337157
     17          6           0       -3.984176    1.294500   -0.307914
     18          6           0       -3.754121   -0.037194    0.034072
     19          6           0       -4.785038   -0.922532    0.345003
     20          6           0       -6.098625   -0.445284    0.309352
     21          1           0       -7.385301    1.248166   -0.055355
     22          1           0       -5.507049    2.784294   -0.601164
     23          1           0       -3.147612    1.941949   -0.541132
     24          1           0       -4.552886   -1.948283    0.604541
     25          1           0       -6.916905   -1.118627    0.548247
     26          7           0       -2.359326   -0.530921    0.068422
     27          8           0       -2.183124   -1.708613    0.372782
     28          8           0       -1.468700    0.269134   -0.209664
 ---------------------------------------------------------------------

 SCF Done:  E(RHF) =  -868.334707262     A.U. after   16 cycles
 E2 =    -0.2600575518D+01 EUMP2 =    -0.87093528277985D+03

 The electronic state is 1-A.
 Alpha  occ. eigenvalues --  -20.59831 -20.59819 -20.59392 -20.59259 -15.84910
 Alpha  occ. eigenvalues --  -15.84376 -11.30635 -11.30186 -11.27268 -11.27226
 Alpha  occ. eigenvalues --  -11.27053 -11.26846 -11.26762 -11.26674 -11.26354
 Alpha  occ. eigenvalues --  -11.26324 -11.25954 -11.25926  -1.58883  -1.58418
 Alpha  occ. eigenvalues --   -1.38440  -1.37949  -1.18839  -1.18414  -1.08161
 Alpha  occ. eigenvalues --   -1.07737  -1.04298  -1.03878  -0.94936  -0.94484
 Alpha  occ. eigenvalues --   -0.85679  -0.85256  -0.81777  -0.81302  -0.76762
 Alpha  occ. eigenvalues --   -0.76272  -0.71136  -0.70522  -0.70248  -0.69947
 Alpha  occ. eigenvalues --   -0.69777  -0.69517  -0.64485  -0.64304  -0.64044
 Alpha  occ. eigenvalues --   -0.63892  -0.61645  -0.61211  -0.54783  -0.54385
 Alpha  occ. eigenvalues --   -0.52606  -0.52397  -0.52194  -0.51975  -0.47886
 Alpha  occ. eigenvalues --   -0.47827  -0.47337  -0.47295  -0.43781  -0.43260
 Alpha  occ. eigenvalues --   -0.36839  -0.36435  -0.35919  -0.35505
 Alpha virt. eigenvalues --    0.05782   0.06253   0.11730   0.12142   0.17212
 Alpha virt. eigenvalues --    0.17660   0.21814   0.22213   0.27697   0.28088
 Alpha virt. eigenvalues --    0.28723   0.29173   0.31333   0.31720   0.32967

 Mulliken charges:
               1
     1  C   -0.172275
     2  C   -0.218887
     3  C   -0.171943
     4  C    0.158076
     5  C   -0.172935
     6  C   -0.219096
     7  H    0.221672
     8  H    0.219987
     9  H    0.273972
    10  H    0.283364
    11  H    0.219990
    12  N    0.485997
    13  O   -0.440601
    14  O   -0.468330
    15  C   -0.172019
    16  C   -0.218379
    17  C   -0.171679
    18  C    0.159436
    19  C   -0.171356
    20  C   -0.218417
    21  H    0.223443
    22  H    0.220779
    23  H    0.272723
    24  H    0.276414
    25  H    0.222081
    26  N    0.487164
    27  O   -0.453026
    28  O   -0.456155
 Sum of Mulliken charges =  -0.00000

 Dipole moment (field-independent basis, Debye):
    X=             -1.5135    Y=              5.3044    Z=              0.4977  Tot=              5.5385
 Quadrupole moment (field-independent basis, Debye-Ang):
   XX=            -41.4209   YY=           -100.9004   ZZ=           -106.3473
   XY=              6.1541   XZ=              1.8459   YZ=             -1.6522

 Normal termination of Gaussian 16 at Thu May  6 00:06:30 2021.
