 Gaussian 16, Revision A.03,
 Gaussian 16:  EM64L-G16RevA.03 25-Dec-2016

 -------------
 #p 6-31g* mp2
 -------------

 ------------------------------------------------------
 Input file generated by CHIRIPA (05-May-2021 14:57:21)
 ------------------------------------------------------
 Symbolic Z-matrix:
 Charge =  0 Multiplicity = 1

                         Standard orientation:
 ---------------------------------------------------------------------
 Center     Atomic      Atomic             Coordinates (Angstroms)
 Number     Number       Type             X           Y           Z
 ---------------------------------------------------------------------
      1          6           0        3.717634    2.508453   -0.368099
      2          6           0        4.911860    1.797190   -0.211728
      3          6           0        4.898441    0.404120   -0.094579
      4          6           0        3.667404   -0.248519   -0.138158
      5          6           0        2.460656    0.431992   -0.292927
      6          6           0        2.497994    1.824789   -0.408129
      7          1           0        3.737349    3.590517   -0.458347
      8          1           0        5.860517    2.325495   -0.180298
      9          1           0        5.808048   -0.171342    0.027386
     10          1           0        1.530463   -0.122435   -0.320655
     11          1           0        1.568979    2.374562   -0.529475
     12          7           0        3.640537   -1.723155   -0.015168
     13          8           0        2.542926   -2.274672   -0.056603
     14          8           0        4.717598   -2.299536    0.120337
     15          6           0       -1.322216    0.111878    1.071614
     16          6           0       -2.120862    1.260146    1.058674
     17          6           0       -3.424203    1.212864    0.555074
     18          6           0       -3.898984   -0.004805    0.070144
     19          6           0       -3.127753   -1.166051    0.069482
     20          6           0       -1.827320   -1.095427    0.577848
     21          1           0       -0.310879    0.157675    1.464673
     22          1           0       -1.731224    2.199124    1.441491
     23          1           0       -4.064088    2.086639    0.533096
     24          1           0       -3.543905   -2.087646   -0.318972
     25          1           0       -1.209345   -1.988777    0.586643
     26          7           0       -5.277233   -0.067216   -0.465516
     27          8           0       -5.672094   -1.152161   -0.886961
     28          8           0       -5.936548    0.969994   -0.453779
 ---------------------------------------------------------------------

 SCF Done:  E(RHF) =  -868.338307204     A.U. after   16 cycles
 E2 =    -0.2600146323D+01 EUMP2 =    -0.87093845352659D+03

 The electronic state is 1-A.
 Alpha  occ. eigenvalues --  -20.61639 -20.61596 -20.60911 -20.60899 -15.86672
 Alpha  occ. eigenvalues --  -15.85960 -11.32014 -11.31402 -11.28608 -11.28527
 Alpha  occ. eigenvalues --  -11.28271 -11.27987 -11.27882 -11.27723 -11.27608
 Alpha  occ. eigenvalues --  -11.27531 -11.27085 -11.26877  -1.60688  -1.59981
 Alpha  occ. eigenvalues --   -1.40247  -1.39532  -1.20176  -1.19568  -1.09564
 Alpha  occ. eigenvalues --   -1.08966  -1.05579  -1.04958  -0.96411  -0.95787
 Alpha  occ. eigenvalues --   -0.86974  -0.86355  -0.83249  -0.82598  -0.78312
 Alpha  occ. eigenvalues --   -0.77623  -0.72894  -0.72176  -0.72008  -0.71332
 Alpha  occ. eigenvalues --   -0.71303  -0.70651  -0.65825  -0.65575  -0.65210
 Alpha  occ. eigenvalues --   -0.64937  -0.62928  -0.62277  -0.56076  -0.55485
 Alpha  occ. eigenvalues --   -0.53892  -0.53658  -0.53290  -0.53026  -0.49656
 Alpha  occ. eigenvalues --   -0.49629  -0.48940  -0.48928  -0.45657  -0.44920
 Alpha  occ. eigenvalues --   -0.38134  -0.37603  -0.37175  -0.36557
 Alpha virt. eigenvalues --    0.04191   0.04842   0.10425   0.11001   0.15692
 Alpha virt. eigenvalues --    0.16218   0.19844   0.21893   0.26125   0.26330
 Alpha virt. eigenvalues --    0.27688   0.29295   0.30139   0.30760   0.31506

 Mulliken charges:
               1
     1  C   -0.170106
     2  C   -0.217889
     3  C   -0.169901
     4  C    0.160161
     5  C   -0.179239
     6  C   -0.221024
     7  H    0.228156
     8  H    0.226529
     9  H    0.277874
    10  H    0.273729
    11  H    0.223665
    12  N    0.488647
    13  O   -0.466245
    14  O   -0.455748
    15  C   -0.181619
    16  C   -0.221135
    17  C   -0.171501
    18  C    0.159474
    19  C   -0.170664
    20  C   -0.221612
    21  H    0.226728
    22  H    0.220106
    23  H    0.275362
    24  H    0.278576
    25  H    0.238744
    26  N    0.487919
    27  O   -0.458295
    28  O   -0.460695
 Sum of Mulliken charges =  -0.00000

 Dipole moment (field-independent basis, Debye):
    X=              5.0898    Y=              5.3209    Z=              1.4081  Tot=              7.4967
 Quadrupole moment (field-independent basis, Debye-Ang):
   XX=           -136.0061   YY=           -102.9366   ZZ=           -105.9005
   XY=             18.1466   XZ=             -8.3981   YZ=              0.3617

 Normal termination of Gaussian 16 at Thu May  6 06:28:01 2021.
