 Gaussian 16, Revision A.03,
 Gaussian 16:  EM64L-G16RevA.03 25-Dec-2016

 -------------
 #p 6-31g* mp2
 -------------

 ------------------------------------------------------
 Input file generated by CHIRIPA (05-May-2021 14:53:16)
 ------------------------------------------------------
 Symbolic Z-matrix:
 Charge =  0 Multiplicity = 1

                         Standard orientation:
 ---------------------------------------------------------------------
 Center     Atomic      Atomic             Coordinates (Angstroms)
 Number     Number       Type             X           Y           Z
 ---------------------------------------------------------------------
      1          6           0       -2.818853   -0.729643   -0.117693
      2          6           0       -3.250079   -1.790787    0.895224
      3          6           0       -2.956793   -3.214471    0.420988
      4          1           0       -3.331719   -0.912783   -1.071828
      5          1           0       -1.743302   -0.837024   -0.315314
      6          1           0       -4.324218   -1.680551    1.091921
      7          1           0       -2.736273   -1.604985    1.847115
      8          1           0       -1.884858   -3.348059    0.242915
      9          1           0       -3.481825   -3.424054   -0.516571
     10          1           0       -3.273025   -3.957021    1.160229
     11          6           0       -3.105498    0.698693    0.342112
     12          6           0       -2.674271    1.759837   -0.670805
     13          6           0       -2.967558    3.183521   -0.196569
     14          1           0       -4.181049    0.806073    0.539733
     15          1           0       -2.592632    0.881833    1.296247
     16          1           0       -3.188077    1.574035   -1.622697
     17          1           0       -1.600132    1.649601   -0.867502
     18          1           0       -2.442525    3.393104    0.740990
     19          1           0       -4.039493    3.317109   -0.018496
     20          1           0       -2.651325    3.926070   -0.935810
     21          6           0        2.274396    2.478629    0.441983
     22          6           0        1.347782    1.940718   -0.457216
     23          6           0        1.360544    0.575495   -0.758139
     24          6           0        2.318047   -0.226366   -0.138868
     25          6           0        3.254442    0.279789    0.761278
     26          6           0        3.223096    1.647913    1.047292
     27          1           0        2.257264    3.540293    0.669956
     28          1           0        0.609872    2.583476   -0.928804
     29          1           0        0.654826    0.132786   -1.450518
     30          1           0        3.978050   -0.386090    1.215605
     31          1           0        3.943937    2.062908    1.746015
     32          7           0        2.341395   -1.673201   -0.449551
     33          8           0        3.195068   -2.358412    0.109346
     34          8           0        1.505581   -2.094622   -1.246077
 ---------------------------------------------------------------------

 SCF Done:  E(RHF) =  -669.535348150     A.U. after   15 cycles
 E2 =    -0.2093072609D+01 EUMP2 =    -0.67162842075862D+03

 The electronic state is 1-A.
 Alpha  occ. eigenvalues --  -20.60865 -20.60859 -15.85908 -11.31262 -11.27828
 Alpha  occ. eigenvalues --  -11.27813 -11.27556 -11.26841 -11.26807 -11.22198
 Alpha  occ. eigenvalues --  -11.21731 -11.21644 -11.21435 -11.21359 -11.20598
 Alpha  occ. eigenvalues --   -1.59933  -1.39486  -1.19434  -1.08828  -1.08611
 Alpha  occ. eigenvalues --   -1.04838  -1.03683  -0.96107  -0.95664  -0.87124
 Alpha  occ. eigenvalues --   -0.86229  -0.82508  -0.79815  -0.78374  -0.77530
 Alpha  occ. eigenvalues --   -0.72124  -0.71253  -0.70537  -0.65317  -0.65065
 Alpha  occ. eigenvalues --   -0.64832  -0.62213  -0.61037  -0.59547  -0.57705
 Alpha  occ. eigenvalues --   -0.55383  -0.55326  -0.53167  -0.52922  -0.52825
 Alpha  occ. eigenvalues --   -0.52510  -0.50044  -0.48886  -0.48881  -0.48087
 Alpha  occ. eigenvalues --   -0.46848  -0.45897  -0.45789  -0.44868  -0.43924
 Alpha  occ. eigenvalues --   -0.37408  -0.36403
 Alpha virt. eigenvalues --    0.04928   0.11130   0.16326   0.20085   0.23132
 Alpha virt. eigenvalues --    0.23827   0.25015   0.26788   0.27026   0.28493
 Alpha virt. eigenvalues --    0.29648   0.30616   0.31310   0.31566   0.32341

 Mulliken charges:
               1
     1  C   -0.302619
     2  C   -0.299686
     3  C   -0.478587
     4  H    0.150486
     5  H    0.153681
     6  H    0.150232
     7  H    0.151250
     8  H    0.167147
     9  H    0.154590
    10  H    0.159178
    11  C   -0.297536
    12  C   -0.303644
    13  C   -0.477197
    14  H    0.151065
    15  H    0.150140
    16  H    0.155103
    17  H    0.142830
    18  H    0.154240
    19  H    0.160145
    20  H    0.156416
    21  C   -0.171711
    22  C   -0.220233
    23  C   -0.172024
    24  C    0.157224
    25  C   -0.170987
    26  C   -0.218447
    27  H    0.226244
    28  H    0.227483
    29  H    0.278089
    30  H    0.275798
    31  H    0.223789
    32  N    0.488455
    33  O   -0.459612
    34  O   -0.461300
 Sum of Mulliken charges =  -0.00000

 Dipole moment (field-independent basis, Debye):
    X=             -0.0682    Y=              4.9891    Z=              1.1297  Tot=              5.1159
 Quadrupole moment (field-independent basis, Debye-Ang):
   XX=            -91.3995   YY=            -98.6591   ZZ=            -93.5779
   XY=             11.7222   XZ=              5.8697   YZ=             -1.4334

 Normal termination of Gaussian 16 at Thu May  6 18:53:39 2021.
