 Gaussian 16, Revision A.03,
 Gaussian 16:  EM64L-G16RevA.03 25-Dec-2016

 -------------
 #p 6-31g* mp2
 -------------

 ------------------------------------------------------
 Input file generated by CHIRIPA (05-May-2021 14:51:13)
 ------------------------------------------------------
 Symbolic Z-matrix:
 Charge =  0 Multiplicity = 1

                         Standard orientation:
 ---------------------------------------------------------------------
 Center     Atomic      Atomic             Coordinates (Angstroms)
 Number     Number       Type             X           Y           Z
 ---------------------------------------------------------------------
      1          6           0       -4.610537   -0.326880   -0.385539
      2          6           0       -5.997342   -0.353796    0.257915
      3          6           0       -7.125132   -0.434243   -0.771362
      4          1           0       -4.547007    0.530911   -1.068988
      5          1           0       -4.482317   -1.227613   -1.001684
      6          1           0       -6.122382    0.546042    0.873766
      7          1           0       -6.057512   -1.211513    0.940057
      8          1           0       -7.028302   -1.339817   -1.378948
      9          1           0       -7.093540    0.427723   -1.445615
     10          1           0       -8.107735   -0.452342   -0.289672
     11          6           0       -3.472674   -0.246557    0.630602
     12          6           0       -2.085869   -0.219641   -0.012851
     13          6           0       -0.958078   -0.139194    1.016425
     14          1           0       -3.600894    0.654176    1.246748
     15          1           0       -3.536204   -1.104348    1.314052
     16          1           0       -2.025698    0.638076   -0.694993
     17          1           0       -1.960829   -1.119479   -0.628703
     18          1           0       -0.989671   -1.001160    1.690678
     19          1           0       -1.054909    0.766381    1.624011
     20          1           0        0.024524   -0.121095    0.534736
     21          6           0        3.583211    0.773679   -0.491553
     22          6           0        2.698112    1.599508    0.442572
     23          6           0        1.786708    2.569055   -0.310499
     24          1           0        4.193176    1.452321   -1.103381
     25          1           0        2.945476    0.212517   -1.188535
     26          1           0        3.337285    2.157878    1.138487
     27          1           0        2.090323    0.918817    1.052382
     28          1           0        1.125243    2.025051   -0.992499
     29          1           0        2.379289    3.271152   -0.905906
     30          1           0        1.162765    3.149238    0.376480
     31          6           0        4.499999   -0.200242    0.246490
     32          6           0        5.385098   -1.026071   -0.687635
     33          6           0        6.296502   -1.995618    0.065436
     34          1           0        5.137736    0.360920    0.943472
     35          1           0        3.890035   -0.878884    0.858318
     36          1           0        5.992887   -0.345380   -1.297446
     37          1           0        4.745925   -1.584441   -1.383550
     38          1           0        5.703921   -2.697715    0.660843
     39          1           0        6.957968   -1.451614    0.747436
     40          1           0        6.920446   -2.575801   -0.621544
 ---------------------------------------------------------------------

 SCF Done:  E(RHF) =  -470.733057323     A.U. after   11 cycles
 E2 =    -0.1582871395D+01 EUMP2 =    -0.47231592871837D+03

 The electronic state is 1-A.
 Alpha  occ. eigenvalues --  -11.21626 -11.21609 -11.21589 -11.21530 -11.21417
 Alpha  occ. eigenvalues --  -11.21389 -11.21358 -11.21330 -11.21078 -11.21076
 Alpha  occ. eigenvalues --  -11.21060 -11.21042  -1.08449  -1.08406  -1.03573
 Alpha  occ. eigenvalues --   -1.03481  -0.96031  -0.95925  -0.87018  -0.86974
 Alpha  occ. eigenvalues --   -0.79646  -0.79535  -0.78263  -0.78215  -0.65102
 Alpha  occ. eigenvalues --   -0.65043  -0.61075  -0.60884  -0.59375  -0.59257
 Alpha  occ. eigenvalues --   -0.57604  -0.57561  -0.55361  -0.55161  -0.52693
 Alpha  occ. eigenvalues --   -0.52641  -0.52434  -0.52356  -0.49939  -0.49894
 Alpha  occ. eigenvalues --   -0.47966  -0.47842  -0.46670  -0.46575  -0.45799
 Alpha  occ. eigenvalues --   -0.45762  -0.45731  -0.45685  -0.43796  -0.43715
 Alpha virt. eigenvalues --    0.20824   0.23021   0.23649   0.25332   0.26350
 Alpha virt. eigenvalues --    0.26523   0.26946   0.27619   0.27724   0.29268
 Alpha virt. eigenvalues --    0.30184   0.31046   0.31198   0.32016   0.32218

 Mulliken charges:
               1
     1  C   -0.298303
     2  C   -0.299646
     3  C   -0.475715
     4  H    0.149784
     5  H    0.149463
     6  H    0.151984
     7  H    0.151922
     8  H    0.155165
     9  H    0.155236
    10  H    0.160281
    11  C   -0.298563
    12  C   -0.300296
    13  C   -0.480295
    14  H    0.149691
    15  H    0.149650
    16  H    0.152657
    17  H    0.151569
    18  H    0.154632
    19  H    0.155783
    20  H    0.165908
    21  C   -0.299012
    22  C   -0.305306
    23  C   -0.475841
    24  H    0.149793
    25  H    0.148937
    26  H    0.152208
    27  H    0.157437
    28  H    0.155564
    29  H    0.154920
    30  H    0.160244
    31  C   -0.298187
    32  C   -0.299621
    33  C   -0.475704
    34  H    0.149619
    35  H    0.149708
    36  H    0.151916
    37  H    0.151838
    38  H    0.155203
    39  H    0.155186
    40  H    0.160190
 Sum of Mulliken charges =  -0.00000

 Dipole moment (field-independent basis, Debye):
    X=             -0.0131    Y=              0.0028    Z=              0.0125  Tot=              0.0183
 Quadrupole moment (field-independent basis, Debye-Ang):
   XX=            -85.6789   YY=            -83.7928   ZZ=            -85.3525
   XY=              0.9513   XZ=             -0.7941   YZ=              0.2723

 Normal termination of Gaussian 16 at Thu May  6 02:22:49 2021.
