 Gaussian 16, Revision A.03,
 Gaussian 16:  EM64L-G16RevA.03 25-Dec-2016

 -------------
 #p 6-31g* mp2
 -------------

 ------------------------------------------------------
 Input file generated by CHIRIPA (05-May-2021 14:53:15)
 ------------------------------------------------------
 Symbolic Z-matrix:
 Charge =  0 Multiplicity = 1

                         Standard orientation:
 ---------------------------------------------------------------------
 Center     Atomic      Atomic             Coordinates (Angstroms)
 Number     Number       Type             X           Y           Z
 ---------------------------------------------------------------------
      1          6           0        3.117291   -0.618999    0.367641
      2          6           0        2.254133   -1.479949   -0.555240
      3          6           0        0.855868   -1.733030    0.009203
      4          1           0        3.198999   -1.110523    1.346760
      5          1           0        2.611581    0.340992    0.541050
      6          1           0        2.761971   -2.437488   -0.727969
      7          1           0        2.174629   -0.986412   -1.532336
      8          1           0        0.326403   -0.787527    0.165069
      9          1           0        0.917082   -2.246849    0.974006
     10          1           0        0.255851   -2.350468   -0.666526
     11          6           0        4.518031   -0.357228   -0.182933
     12          6           0        5.381188    0.503722    0.739949
     13          6           0        6.779454    0.756803    0.175505
     14          1           0        5.023740   -1.317219   -0.356342
     15          1           0        4.436322    0.134296   -1.162051
     16          1           0        5.460692    0.010185    1.717045
     17          1           0        4.873350    1.461261    0.912677
     18          1           0        6.718239    1.270622   -0.789297
     19          1           0        7.308918   -0.188699    0.019640
     20          1           0        7.379471    1.374241    0.851234
     21          6           0       -4.408119   -1.641922    0.417838
     22          6           0       -3.319552   -1.747180   -0.454208
     23          6           0       -2.522796   -0.632728   -0.732999
     24          6           0       -2.844728    0.576940   -0.119523
     25          6           0       -3.922647    0.713664    0.753798
     26          6           0       -4.705666   -0.414000    1.018000
     27          1           0       -5.021722   -2.512786    0.628743
     28          1           0       -3.086116   -2.699530   -0.921737
     29          1           0       -1.674201   -0.686113   -1.404155
     30          1           0       -4.130519    1.676404    1.204728
     31          1           0       -5.550447   -0.329308    1.695656
     32          7           0       -2.008510    1.763754   -0.406943
     33          8           0       -2.313094    2.818168    0.146300
     34          8           0       -1.064331    1.617093   -1.180024
 ---------------------------------------------------------------------

 SCF Done:  E(RHF) =  -669.535259357     A.U. after   15 cycles
 E2 =    -0.2092283049D+01 EUMP2 =    -0.67162754240678D+03

 The electronic state is 1-A.
 Alpha  occ. eigenvalues --  -20.60871 -20.60864 -15.85898 -11.31163 -11.27757
 Alpha  occ. eigenvalues --  -11.27701 -11.27492 -11.26741 -11.26721 -11.21379
 Alpha  occ. eigenvalues --  -11.21239 -11.21073 -11.21044 -11.20984 -11.20749
 Alpha  occ. eigenvalues --   -1.59932  -1.39489  -1.19351  -1.08764  -1.08110
 Alpha  occ. eigenvalues --   -1.04745  -1.03280  -0.95783  -0.95587  -0.86805
 Alpha  occ. eigenvalues --   -0.86132  -0.82445  -0.79358  -0.77914  -0.77493
 Alpha  occ. eigenvalues --   -0.72122  -0.71250  -0.70473  -0.65009  -0.64815
 Alpha  occ. eigenvalues --   -0.64664  -0.62137  -0.60638  -0.59141  -0.57364
 Alpha  occ. eigenvalues --   -0.55310  -0.54989  -0.53136  -0.52865  -0.52402
 Alpha  occ. eigenvalues --   -0.52167  -0.49665  -0.48879  -0.48867  -0.47671
 Alpha  occ. eigenvalues --   -0.46352  -0.45473  -0.45364  -0.44848  -0.43538
 Alpha  occ. eigenvalues --   -0.37331  -0.36294
 Alpha virt. eigenvalues --    0.05019   0.11274   0.16458   0.20893   0.23214
 Alpha virt. eigenvalues --    0.24290   0.26682   0.26995   0.27858   0.28036
 Alpha virt. eigenvalues --    0.29021   0.30640   0.31607   0.32173   0.32414

 Mulliken charges:
               1
     1  C   -0.300421
     2  C   -0.298564
     3  C   -0.480857
     4  H    0.146917
     5  H    0.158308
     6  H    0.148909
     7  H    0.156949
     8  H    0.165265
     9  H    0.154402
    10  H    0.146038
    11  C   -0.298559
    12  C   -0.300046
    13  C   -0.475683
    14  H    0.147112
    15  H    0.152208
    16  H    0.150356
    17  H    0.155040
    18  H    0.156069
    19  H    0.153689
    20  H    0.159739
    21  C   -0.170298
    22  C   -0.220121
    23  C   -0.167686
    24  C    0.156623
    25  C   -0.170634
    26  C   -0.219035
    27  H    0.225567
    28  H    0.223321
    29  H    0.279437
    30  H    0.275325
    31  H    0.223244
    32  N    0.488395
    33  O   -0.459390
    34  O   -0.461621
 Sum of Mulliken charges =  -0.00000

 Dipole moment (field-independent basis, Debye):
    X=             -2.9717    Y=             -4.0509    Z=              1.0116  Tot=              5.1248
 Quadrupole moment (field-independent basis, Debye-Ang):
   XX=            -77.9383   YY=            -98.2191   ZZ=            -93.5982
   XY=              8.3007   XZ=             -4.2767   YZ=              2.6635

 Normal termination of Gaussian 16 at Wed May  5 15:38:06 2021.
