 Gaussian 16, Revision A.03,
 Gaussian 16:  EM64L-G16RevA.03 25-Dec-2016

 -------------
 #p 6-31g* mp2
 -------------

 ------------------------------------------------------
 Input file generated by CHIRIPA (05-May-2021 14:55:23)
 ------------------------------------------------------
 Symbolic Z-matrix:
 Charge =  0 Multiplicity = 1

                         Standard orientation:
 ---------------------------------------------------------------------
 Center     Atomic      Atomic             Coordinates (Angstroms)
 Number     Number       Type             X           Y           Z
 ---------------------------------------------------------------------
      1          6           0        2.584291    2.141486    0.677879
      2          6           0        1.971549    1.772386   -0.524133
      3          6           0        1.935686    0.432192   -0.920544
      4          6           0        2.525031   -0.517053   -0.086940
      5          6           0        3.143032   -0.180744    1.116498
      6          6           0        3.167049    1.165464    1.492921
      7          1           0        2.607549    3.184917    0.978057
      8          1           0        1.518164    2.528233   -1.159100
      9          1           0        1.467949    0.118709   -1.845947
     10          1           0        3.586482   -0.956811    1.728454
     11          1           0        3.643607    1.449205    2.426960
     12          7           0        2.493334   -1.939040   -0.496022
     13          8           0        3.019730   -2.756244    0.256122
     14          8           0        1.942695   -2.209463   -1.561060
     15          6           0       -3.296278   -0.358771    0.271622
     16          6           0       -4.721913   -0.908247    0.211411
     17          6           0       -4.820881   -2.350918    0.708099
     18          1           0       -2.637032   -1.000741   -0.328559
     19          1           0       -2.931708   -0.417053    1.306556
     20          1           0       -5.084187   -0.847667   -0.822854
     21          1           0       -5.377877   -0.264786    0.811648
     22          1           0       -4.485148   -2.424362    1.747566
     23          1           0       -4.189790   -3.010554    0.103777
     24          1           0       -5.848603   -2.723708    0.656377
     25          6           0       -3.181175    1.082463   -0.221656
     26          6           0       -1.755541    1.631939   -0.161444
     27          6           0       -1.656572    3.074610   -0.658133
     28          1           0       -3.545744    1.140744   -1.256590
     29          1           0       -3.840421    1.724432    0.378524
     30          1           0       -1.099576    0.988478   -0.761682
     31          1           0       -1.393265    1.571358    0.872820
     32          1           0       -2.287663    3.734246   -0.053811
     33          1           0       -1.992304    3.148054   -1.697600
     34          1           0       -0.628850    3.447399   -0.606411
 ---------------------------------------------------------------------

 SCF Done:  E(RHF) =  -669.534665651     A.U. after   15 cycles
 E2 =    -0.2092980657D+01 EUMP2 =    -0.67162764630765D+03

 The electronic state is 1-A.
 Alpha  occ. eigenvalues --  -20.60787 -20.60781 -15.85840 -11.31205 -11.27767
 Alpha  occ. eigenvalues --  -11.27761 -11.27507 -11.26789 -11.26760 -11.21978
 Alpha  occ. eigenvalues --  -11.21765 -11.21603 -11.21582 -11.21405 -11.20947
 Alpha  occ. eigenvalues --   -1.59861  -1.39415  -1.19378  -1.08776  -1.08604
 Alpha  occ. eigenvalues --   -1.04791  -1.03746  -0.96217  -0.95608  -0.87238
 Alpha  occ. eigenvalues --   -0.86177  -0.82444  -0.79819  -0.78378  -0.77489
 Alpha  occ. eigenvalues --   -0.72059  -0.71183  -0.70487  -0.65249  -0.65023
 Alpha  occ. eigenvalues --   -0.64831  -0.62203  -0.61131  -0.59614  -0.57817
 Alpha  occ. eigenvalues --   -0.55493  -0.55275  -0.53169  -0.53068  -0.52796
 Alpha  occ. eigenvalues --   -0.52478  -0.50136  -0.48818  -0.48813  -0.48120
 Alpha  occ. eigenvalues --   -0.46844  -0.45924  -0.45826  -0.44820  -0.43996
 Alpha  occ. eigenvalues --   -0.37348  -0.36313
 Alpha virt. eigenvalues --    0.05024   0.11154   0.16466   0.20262   0.22941
 Alpha virt. eigenvalues --    0.24188   0.26103   0.26494   0.26989   0.28294
 Alpha virt. eigenvalues --    0.28806   0.30300   0.31316   0.31434   0.32099

 Mulliken charges:
               1
     1  C   -0.172772
     2  C   -0.214017
     3  C   -0.171353
     4  C    0.158170
     5  C   -0.171221
     6  C   -0.218332
     7  H    0.225604
     8  H    0.226648
     9  H    0.274985
    10  H    0.275597
    11  H    0.223466
    12  N    0.488160
    13  O   -0.460221
    14  O   -0.460858
    15  C   -0.299571
    16  C   -0.299819
    17  C   -0.476309
    18  H    0.154317
    19  H    0.149551
    20  H    0.152167
    21  H    0.150773
    22  H    0.155160
    23  H    0.158782
    24  H    0.160100
    25  C   -0.298890
    26  C   -0.299323
    27  C   -0.477844
    28  H    0.149780
    29  H    0.149263
    30  H    0.151395
    31  H    0.153685
    32  H    0.158477
    33  H    0.156534
    34  H    0.147916
 Sum of Mulliken charges =  -0.00000

 Dipole moment (field-independent basis, Debye):
    X=              0.0793    Y=              4.9189    Z=              1.4754  Tot=              5.1360
 Quadrupole moment (field-independent basis, Debye-Ang):
   XX=            -93.4978   YY=           -101.4341   ZZ=            -91.0076
   XY=             11.8756   XZ=              6.0241   YZ=             -1.5981

 Normal termination of Gaussian 16 at Thu May  6 07:52:04 2021.
