 Gaussian 16, Revision A.03,
 Gaussian 16:  EM64L-G16RevA.03 25-Dec-2016

 -------------
 #p 6-31g* mp2
 -------------

 ------------------------------------------------------
 Input file generated by CHIRIPA (05-May-2021 14:53:13)
 ------------------------------------------------------
 Symbolic Z-matrix:
 Charge =  0 Multiplicity = 1

                         Standard orientation:
 ---------------------------------------------------------------------
 Center     Atomic      Atomic             Coordinates (Angstroms)
 Number     Number       Type             X           Y           Z
 ---------------------------------------------------------------------
      1          6           0        3.921767    0.938235   -0.235337
      2          6           0        3.218750    1.852345    0.768733
      3          6           0        3.515805    3.332918    0.529036
      4          1           0        5.005573    1.109661   -0.181285
      5          1           0        3.611821    1.215366   -1.252455
      6          1           0        3.528867    1.572668    1.783732
      7          1           0        2.136506    1.678585    0.712419
      8          1           0        3.190191    3.634032   -0.471917
      9          1           0        4.590463    3.527512    0.605483
     10          1           0        3.003267    3.968358    1.257995
     11          6           0        3.634552   -0.544959   -0.008690
     12          6           0        4.337569   -1.459069   -1.012760
     13          6           0        4.040513   -2.939642   -0.773063
     14          1           0        3.944497   -0.822090    1.008427
     15          1           0        2.550746   -0.716385   -0.062742
     16          1           0        5.419813   -1.285309   -0.956446
     17          1           0        4.027452   -1.179392   -2.027760
     18          1           0        2.965855   -3.134236   -0.849511
     19          1           0        4.366128   -3.240756    0.227890
     20          1           0        4.553052   -3.575082   -1.502022
     21          6           0       -0.878582   -1.126663    1.154264
     22          6           0       -0.776270   -0.025149    0.298273
     23          6           0       -1.918232    0.522238   -0.294042
     24          6           0       -3.152107   -0.059553   -0.007051
     25          6           0       -3.286604   -1.157352    0.841500
     26          6           0       -2.131215   -1.688259    1.422672
     27          1           0        0.013737   -1.545485    1.610060
     28          1           0        0.195232    0.413052    0.088013
     29          1           0       -1.867757    1.374699   -0.960510
     30          1           0       -4.268841   -1.572479    1.032027
     31          1           0       -2.213684   -2.543740    2.087049
     32          7           0       -4.368159    0.511217   -0.628210
     33          8           0       -5.443558   -0.019657   -0.359271
     34          8           0       -4.222876    1.478653   -1.372251
 ---------------------------------------------------------------------

 SCF Done:  E(RHF) =  -669.535387799     A.U. after   15 cycles
 E2 =    -0.2091876405D+01 EUMP2 =    -0.67162726420450D+03

 The electronic state is 1-A.
 Alpha  occ. eigenvalues --  -20.60745 -20.60739 -15.85798 -11.31160 -11.27734
 Alpha  occ. eigenvalues --  -11.27729 -11.27460 -11.26739 -11.26710 -11.22634
 Alpha  occ. eigenvalues --  -11.22494 -11.22414 -11.22316 -11.21840 -11.21824
 Alpha  occ. eigenvalues --   -1.59820  -1.39374  -1.19333  -1.09402  -1.08725
 Alpha  occ. eigenvalues --   -1.04738  -1.04406  -0.96841  -0.95561  -0.87853
 Alpha  occ. eigenvalues --   -0.86140  -0.82396  -0.80481  -0.79247  -0.77444
 Alpha  occ. eigenvalues --   -0.72016  -0.71143  -0.70433  -0.66119  -0.64983
 Alpha  occ. eigenvalues --   -0.64698  -0.62123  -0.61769  -0.60205  -0.58458
 Alpha  occ. eigenvalues --   -0.56128  -0.55227  -0.53507  -0.53263  -0.53061
 Alpha  occ. eigenvalues --   -0.52849  -0.50785  -0.48817  -0.48772  -0.48750
 Alpha  occ. eigenvalues --   -0.47523  -0.46741  -0.46666  -0.44780  -0.44683
 Alpha  occ. eigenvalues --   -0.37308  -0.36339
 Alpha virt. eigenvalues --    0.05091   0.11236   0.16567   0.18744   0.22801
 Alpha virt. eigenvalues --    0.23186   0.24821   0.26185   0.27053   0.27677
 Alpha virt. eigenvalues --    0.29560   0.30282   0.30967   0.31297   0.31845

 Mulliken charges:
               1
     1  C   -0.299264
     2  C   -0.304886
     3  C   -0.475918
     4  H    0.154551
     5  H    0.151244
     6  H    0.154685
     7  H    0.144862
     8  H    0.156805
     9  H    0.158463
    10  H    0.163398
    11  C   -0.301951
    12  C   -0.299798
    13  C   -0.476753
    14  H    0.150764
    15  H    0.141136
    16  H    0.155368
    17  H    0.154654
    18  H    0.153814
    19  H    0.155043
    20  H    0.164255
    21  C   -0.174176
    22  C   -0.227978
    23  C   -0.172697
    24  C    0.158935
    25  C   -0.171058
    26  C   -0.218621
    27  H    0.227206
    28  H    0.236208
    29  H    0.275790
    30  H    0.275543
    31  H    0.223424
    32  N    0.487980
    33  O   -0.460525
    34  O   -0.460500
 Sum of Mulliken charges =  -0.00000

 Dipole moment (field-independent basis, Debye):
    X=              4.5324    Y=             -1.9790    Z=              2.1637  Tot=              5.3982
 Quadrupole moment (field-independent basis, Debye-Ang):
   XX=           -118.9083   YY=            -93.3542   ZZ=            -93.8774
   XY=              8.3415   XZ=             -8.1109   YZ=             -1.9178

 Normal termination of Gaussian 16 at Thu May  6 20:16:00 2021.
