 Gaussian 16, Revision A.03,
 Gaussian 16:  EM64L-G16RevA.03 25-Dec-2016

 -------------
 #p 6-31g* mp2
 -------------

 ------------------------------------------------------
 Input file generated by CHIRIPA (05-May-2021 14:53:12)
 ------------------------------------------------------
 Symbolic Z-matrix:
 Charge =  0 Multiplicity = 1

                         Standard orientation:
 ---------------------------------------------------------------------
 Center     Atomic      Atomic             Coordinates (Angstroms)
 Number     Number       Type             X           Y           Z
 ---------------------------------------------------------------------
      1          6           0       -3.857988   -0.770246    0.138261
      2          6           0       -2.628227   -0.909699    1.036162
      3          6           0       -2.040807   -2.321237    1.019088
      4          1           0       -4.622364   -1.490949    0.459605
      5          1           0       -3.584817   -1.042293   -0.890701
      6          1           0       -2.903297   -0.636139    2.062864
      7          1           0       -1.866764   -0.188448    0.712763
      8          1           0       -1.738968   -2.600642    0.004481
      9          1           0       -2.781391   -3.050876    1.362252
     10          1           0       -1.162624   -2.398490    1.667692
     11          6           0       -4.456590    0.635230    0.144740
     12          6           0       -5.686350    0.774682   -0.753161
     13          6           0       -6.273771    2.186220   -0.736087
     14          1           0       -4.729761    0.907277    1.173702
     15          1           0       -3.692214    1.355933   -0.176604
     16          1           0       -6.447814    0.053432   -0.429763
     17          1           0       -5.411280    0.501122   -1.779863
     18          1           0       -5.533187    2.915860   -1.079251
     19          1           0       -6.575609    2.465625    0.278520
     20          1           0       -7.151954    2.263473   -1.384691
     21          6           0        4.882543    1.902777    0.410194
     22          6           0        5.138691    1.018113   -0.642554
     23          6           0        4.239983   -0.010646   -0.940089
     24          6           0        3.089849   -0.126114   -0.160890
     25          6           0        2.806584    0.739500    0.894459
     26          6           0        3.719357    1.760898    1.173994
     27          1           0        5.586144    2.699082    0.634335
     28          1           0        6.041226    1.125904   -1.237414
     29          1           0        4.413527   -0.709463   -1.749381
     30          1           0        1.898339    0.606818    1.469703
     31          1           0        3.517834    2.446479    1.992170
     32          7           0        2.130981   -1.211318   -0.466350
     33          8           0        1.124934   -1.291745    0.235105
     34          8           0        2.403624   -1.960925   -1.401438
 ---------------------------------------------------------------------

 SCF Done:  E(RHF) =  -669.535762590     A.U. after   15 cycles
 E2 =    -0.2091261225D+01 EUMP2 =    -0.67162702381507D+03

 The electronic state is 1-A.
 Alpha  occ. eigenvalues --  -20.60931 -20.60923 -15.85965 -11.31293 -11.27858
 Alpha  occ. eigenvalues --  -11.27855 -11.27596 -11.26867 -11.26857 -11.21079
 Alpha  occ. eigenvalues --  -11.20732 -11.20681 -11.20465 -11.20376 -11.19373
 Alpha  occ. eigenvalues --   -1.59995  -1.39551  -1.19464  -1.08867  -1.07608
 Alpha  occ. eigenvalues --   -1.04861  -1.02598  -0.95714  -0.95023  -0.86263
 Alpha  occ. eigenvalues --   -0.86048  -0.82539  -0.78722  -0.77595  -0.77380
 Alpha  occ. eigenvalues --   -0.72197  -0.71311  -0.70572  -0.65123  -0.64864
 Alpha  occ. eigenvalues --   -0.64240  -0.62208  -0.59982  -0.58474  -0.56621
 Alpha  occ. eigenvalues --   -0.55365  -0.54316  -0.53193  -0.52952  -0.51695
 Alpha  occ. eigenvalues --   -0.51466  -0.49171  -0.48942  -0.48734  -0.47018
 Alpha  occ. eigenvalues --   -0.45770  -0.45034  -0.44884  -0.44773  -0.42851
 Alpha  occ. eigenvalues --   -0.37443  -0.36463
 Alpha virt. eigenvalues --    0.04919   0.11191   0.16404   0.21251   0.23608
 Alpha virt. eigenvalues --    0.25158   0.27046   0.27436   0.27915   0.28492
 Alpha virt. eigenvalues --    0.29065   0.30803   0.31903   0.32418   0.32812

 Mulliken charges:
               1
     1  C   -0.297994
     2  C   -0.300683
     3  C   -0.468253
     4  H    0.147111
     5  H    0.150938
     6  H    0.143343
     7  H    0.155054
     8  H    0.164627
     9  H    0.142703
    10  H    0.167031
    11  C   -0.297141
    12  C   -0.299009
    13  C   -0.475121
    14  H    0.146810
    15  H    0.147265
    16  H    0.151315
    17  H    0.152004
    18  H    0.153684
    19  H    0.153845
    20  H    0.158782
    21  C   -0.170635
    22  C   -0.218578
    23  C   -0.170634
    24  C    0.157451
    25  C   -0.171049
    26  C   -0.218526
    27  H    0.226007
    28  H    0.223803
    29  H    0.275834
    30  H    0.275852
    31  H    0.223939
    32  N    0.493461
    33  O   -0.463987
    34  O   -0.459250
 Sum of Mulliken charges =  -0.00000

 Dipole moment (field-independent basis, Debye):
    X=              3.7180    Y=              3.7544    Z=              1.0088  Tot=              5.3793
 Quadrupole moment (field-independent basis, Debye-Ang):
   XX=            -73.6985   YY=            -96.8897   ZZ=            -92.2357
   XY=             11.3908   XZ=             -0.0205   YZ=              0.7094

 Normal termination of Gaussian 16 at Wed May  5 21:43:40 2021.
