 Gaussian 16, Revision A.03,
 Gaussian 16:  EM64L-G16RevA.03 25-Dec-2016

 -------------
 #p 6-31g* mp2
 -------------

 ------------------------------------------------------
 Input file generated by CHIRIPA (05-May-2021 14:55:24)
 ------------------------------------------------------
 Symbolic Z-matrix:
 Charge =  0 Multiplicity = 1

                         Standard orientation:
 ---------------------------------------------------------------------
 Center     Atomic      Atomic             Coordinates (Angstroms)
 Number     Number       Type             X           Y           Z
 ---------------------------------------------------------------------
      1          6           0        0.694221   -1.803853    0.579004
      2          6           0        1.066033   -0.778537    1.454792
      3          6           0        2.224145   -0.030856    1.221771
      4          6           0        2.990522   -0.336832    0.098235
      5          6           0        2.646510   -1.352195   -0.792822
      6          6           0        1.484254   -2.086911   -0.540035
      7          1           0       -0.207037   -2.379634    0.767698
      8          1           0        0.454403   -0.556495    2.324648
      9          1           0        2.535312    0.768367    1.883463
     10          1           0        3.276436   -1.550189   -1.651548
     11          1           0        1.197945   -2.882613   -1.221893
     12          7           0        4.218757    0.447841   -0.158917
     13          8           0        4.876863    0.158563   -1.155838
     14          8           0        4.500085    1.337288    0.641318
     15          6           0       -4.279621    0.540975    0.093885
     16          6           0       -5.023090   -0.701543   -0.397431
     17          6           0       -6.443858   -0.798952    0.159095
     18          1           0       -4.244860    0.529427    1.191884
     19          1           0       -4.848388    1.436796   -0.191430
     20          1           0       -4.452388   -1.594695   -0.112482
     21          1           0       -5.055918   -0.687133   -1.494396
     22          1           0       -7.034175    0.074336   -0.136701
     23          1           0       -6.427216   -0.838382    1.253065
     24          1           0       -6.957082   -1.694482   -0.204895
     25          6           0       -2.857901    0.652385   -0.453863
     26          6           0       -2.114433    1.894902    0.037452
     27          6           0       -0.693664    1.992311   -0.519074
     28          1           0       -2.289134   -0.243437   -0.168548
     29          1           0       -2.892662    0.663933   -1.551862
     30          1           0       -2.081605    1.880492    1.134417
     31          1           0       -2.685134    2.788053   -0.247496
     32          1           0       -0.710305    2.031741   -1.613044
     33          1           0       -0.103347    1.119023   -0.223278
     34          1           0       -0.180441    2.887841   -0.155084
 ---------------------------------------------------------------------

 SCF Done:  E(RHF) =  -669.534591638     A.U. after   15 cycles
 E2 =    -0.2093492786D+01 EUMP2 =    -0.67162808442390D+03

 The electronic state is 1-A.
 Alpha  occ. eigenvalues --  -20.60817 -20.60812 -15.85872 -11.31287 -11.27851
 Alpha  occ. eigenvalues --  -11.27834 -11.27607 -11.26881 -11.26860 -11.22150
 Alpha  occ. eigenvalues --  -11.21959 -11.21904 -11.21848 -11.21540 -11.21051
 Alpha  occ. eigenvalues --   -1.59890  -1.39443  -1.19474  -1.08910  -1.08841
 Alpha  occ. eigenvalues --   -1.04881  -1.03916  -0.96348  -0.95677  -0.87363
 Alpha  occ. eigenvalues --   -0.86264  -0.82504  -0.79994  -0.78720  -0.77543
 Alpha  occ. eigenvalues --   -0.72090  -0.71212  -0.70565  -0.65554  -0.65114
 Alpha  occ. eigenvalues --   -0.64862  -0.62211  -0.61354  -0.59727  -0.57979
 Alpha  occ. eigenvalues --   -0.55754  -0.55362  -0.53403  -0.53013  -0.52953
 Alpha  occ. eigenvalues --   -0.52593  -0.50230  -0.48853  -0.48841  -0.48270
 Alpha  occ. eigenvalues --   -0.47022  -0.46236  -0.46191  -0.44837  -0.44192
 Alpha  occ. eigenvalues --   -0.37430  -0.36402
 Alpha virt. eigenvalues --    0.04957   0.11119   0.16360   0.20502   0.22751
 Alpha virt. eigenvalues --    0.24037   0.25700   0.26457   0.27467   0.27693
 Alpha virt. eigenvalues --    0.28991   0.30593   0.31158   0.31652   0.31707

 Mulliken charges:
               1
     1  C   -0.169430
     2  C   -0.222823
     3  C   -0.169871
     4  C    0.161167
     5  C   -0.170852
     6  C   -0.217627
     7  H    0.226367
     8  H    0.224551
     9  H    0.276363
    10  H    0.276237
    11  H    0.224380
    12  N    0.488159
    13  O   -0.460061
    14  O   -0.459987
    15  C   -0.298311
    16  C   -0.298724
    17  C   -0.475778
    18  H    0.147650
    19  H    0.152230
    20  H    0.146526
    21  H    0.153357
    22  H    0.157107
    23  H    0.154850
    24  H    0.160860
    25  C   -0.297648
    26  C   -0.298689
    27  C   -0.486067
    28  H    0.141241
    29  H    0.151671
    30  H    0.146232
    31  H    0.153908
    32  H    0.155190
    33  H    0.166928
    34  H    0.160896
 Sum of Mulliken charges =  -0.00000

 Dipole moment (field-independent basis, Debye):
    X=             -4.2456    Y=             -2.7778    Z=              0.8714  Tot=              5.1478
 Quadrupole moment (field-independent basis, Debye-Ang):
   XX=           -121.9564   YY=            -91.7491   ZZ=            -90.8662
   XY=             -7.8711   XZ=              2.2093   YZ=              1.6402

 Normal termination of Gaussian 16 at Thu May  6 14:20:50 2021.
