 Gaussian 16, Revision A.03,
 Gaussian 16:  EM64L-G16RevA.03 25-Dec-2016

 -------------
 #p 6-31g* mp2
 -------------

 ------------------------------------------------------
 Input file generated by CHIRIPA (05-May-2021 14:55:19)
 ------------------------------------------------------
 Symbolic Z-matrix:
 Charge =  0 Multiplicity = 1

                         Standard orientation:
 ---------------------------------------------------------------------
 Center     Atomic      Atomic             Coordinates (Angstroms)
 Number     Number       Type             X           Y           Z
 ---------------------------------------------------------------------
      1          6           0       -1.107872   -1.636897    1.721357
      2          6           0       -2.375703   -1.998586    1.254122
      3          6           0       -3.091044   -1.145076    0.408926
      4          6           0       -2.505786    0.067970    0.049366
      5          6           0       -1.244559    0.456617    0.498308
      6          6           0       -0.547335   -0.412609    1.342627
      7          1           0       -0.559215   -2.306028    2.377585
      8          1           0       -2.813500   -2.948761    1.546604
      9          1           0       -4.074270   -1.400123    0.032581
     10          1           0       -0.834240    1.410369    0.189420
     11          1           0        0.437099   -0.129100    1.703955
     12          7           0       -3.253496    0.979861   -0.844941
     13          8           0       -2.715849    2.043008   -1.147085
     14          8           0       -4.363040    0.614188   -1.226820
     15          6           0        2.972035    0.856597   -0.366152
     16          6           0        3.179066    1.687292    0.900761
     17          6           0        3.020511    3.188209    0.656009
     18          1           0        3.689238    1.182464   -1.131903
     19          1           0        1.970304    1.059448   -0.769613
     20          1           0        4.179589    1.481890    1.302483
     21          1           0        2.461414    1.359279    1.663650
     22          1           0        2.018273    3.412980    0.277068
     23          1           0        3.746210    3.536288   -0.086152
     24          1           0        3.172629    3.763082    1.574835
     25          6           0        3.127305   -0.645855   -0.137551
     26          6           0        2.920274   -1.476550   -1.404463
     27          6           0        3.078829   -2.977466   -1.159712
     28          1           0        4.129036   -0.848706    0.265912
     29          1           0        2.410102   -0.971722    0.628201
     30          1           0        3.637926   -1.148536   -2.167352
     31          1           0        1.919752   -1.271147   -1.806184
     32          1           0        2.353130   -3.325546   -0.417550
     33          1           0        4.081068   -3.202238   -0.780769
     34          1           0        2.926712   -3.552340   -2.078536
 ---------------------------------------------------------------------

 SCF Done:  E(RHF) =  -669.535035169     A.U. after   15 cycles
 E2 =    -0.2093238926D+01 EUMP2 =    -0.67162827409543D+03

 The electronic state is 1-A.
 Alpha  occ. eigenvalues --  -20.60803 -20.60798 -15.85857 -11.31238 -11.27806
 Alpha  occ. eigenvalues --  -11.27801 -11.27545 -11.26821 -11.26787 -11.22443
 Alpha  occ. eigenvalues --  -11.22133 -11.22085 -11.22047 -11.21646 -11.21571
 Alpha  occ. eigenvalues --   -1.59878  -1.39431  -1.19410  -1.09133  -1.08797
 Alpha  occ. eigenvalues --   -1.04814  -1.04155  -0.96590  -0.95633  -0.87603
 Alpha  occ. eigenvalues --   -0.86216  -0.82468  -0.80224  -0.78949  -0.77516
 Alpha  occ. eigenvalues --   -0.72074  -0.71201  -0.70517  -0.65953  -0.65058
 Alpha  occ. eigenvalues --   -0.64715  -0.62152  -0.61531  -0.59954  -0.58199
 Alpha  occ. eigenvalues --   -0.55900  -0.55300  -0.53277  -0.53144  -0.52995
 Alpha  occ. eigenvalues --   -0.52898  -0.50543  -0.48840  -0.48829  -0.48532
 Alpha  occ. eigenvalues --   -0.47281  -0.46449  -0.46370  -0.44833  -0.44420
 Alpha  occ. eigenvalues --   -0.37381  -0.36396
 Alpha virt. eigenvalues --    0.04999   0.11128   0.16403   0.18553   0.23077
 Alpha virt. eigenvalues --    0.23271   0.24740   0.25523   0.27280   0.28527
 Alpha virt. eigenvalues --    0.29459   0.30151   0.31247   0.31528   0.32076

 Mulliken charges:
               1
     1  C   -0.173371
     2  C   -0.218192
     3  C   -0.170751
     4  C    0.158834
     5  C   -0.175668
     6  C   -0.221955
     7  H    0.226379
     8  H    0.223742
     9  H    0.275839
    10  H    0.276206
    11  H    0.232778
    12  N    0.488105
    13  O   -0.460382
    14  O   -0.460230
    15  C   -0.302851
    16  C   -0.303640
    17  C   -0.476171
    18  H    0.155772
    19  H    0.150445
    20  H    0.155960
    21  H    0.142252
    22  H    0.156542
    23  H    0.159590
    24  H    0.162574
    25  C   -0.298697
    26  C   -0.300382
    27  C   -0.475498
    28  H    0.151354
    29  H    0.140346
    30  H    0.154711
    31  H    0.156227
    32  H    0.151512
    33  H    0.155440
    34  H    0.163182
 Sum of Mulliken charges =  -0.00000

 Dipole moment (field-independent basis, Debye):
    X=              2.7391    Y=             -3.1686    Z=              3.0295  Tot=              5.1692
 Quadrupole moment (field-independent basis, Debye-Ang):
   XX=           -103.8388   YY=            -94.3322   ZZ=            -95.1171
   XY=             11.6623   XZ=             -8.2077   YZ=              0.1585

 Normal termination of Gaussian 16 at Wed May  5 23:43:56 2021.
