 Gaussian 16, Revision A.03,
 Gaussian 16:  EM64L-G16RevA.03 25-Dec-2016

 -------------
 #p 6-31g* mp2
 -------------

 ------------------------------------------------------
 Input file generated by CHIRIPA (05-May-2021 14:57:21)
 ------------------------------------------------------
 Symbolic Z-matrix:
 Charge =  0 Multiplicity = 1

                         Standard orientation:
 ---------------------------------------------------------------------
 Center     Atomic      Atomic             Coordinates (Angstroms)
 Number     Number       Type             X           Y           Z
 ---------------------------------------------------------------------
      1          6           0        1.188463   -0.774869   -1.175188
      2          6           0        2.275866   -1.653802   -1.214576
      3          6           0        3.532850   -1.249186   -0.755417
      4          6           0        3.667327    0.047288   -0.261087
      5          6           0        2.603134    0.946202   -0.208776
      6          6           0        1.355273    0.520045   -0.673299
      7          1           0        0.215551   -1.097551   -1.533957
      8          1           0        2.149253   -2.660034   -1.603821
      9          1           0        4.391635   -1.909145   -0.774380
     10          1           0        2.760262    1.943106    0.184812
     11          1           0        0.512559    1.204783   -0.641501
     12          7           0        4.993210    0.487039    0.227843
     13          8           0        5.085586    1.634433    0.658646
     14          8           0        5.914956   -0.324004    0.171005
     15          6           0       -5.298416    0.748935   -1.214306
     16          6           0       -5.216908   -0.583244   -0.795766
     17          6           0       -4.196344   -0.995473    0.066246
     18          6           0       -3.269992   -0.044780    0.492095
     19          6           0       -3.324497    1.289718    0.092802
     20          6           0       -4.353616    1.679524   -0.769470
     21          1           0       -6.094537    1.060455   -1.884039
     22          1           0       -5.949267   -1.308127   -1.139626
     23          1           0       -4.109681   -2.020435    0.405893
     24          1           0       -2.579850    1.989392    0.452491
     25          1           0       -4.414446    2.714779   -1.092876
     26          7           0       -2.185038   -0.469320    1.404806
     27          8           0       -1.381243    0.387597    1.765701
     28          8           0       -2.158990   -1.650950    1.742011
 ---------------------------------------------------------------------

 SCF Done:  E(RHF) =  -868.337994920     A.U. after   16 cycles
 E2 =    -0.2599987221D+01 EUMP2 =    -0.87093798214075D+03

 The electronic state is 1-A.
 Alpha  occ. eigenvalues --  -20.61679 -20.61672 -20.60158 -20.60153 -15.86710
 Alpha  occ. eigenvalues --  -15.85207 -11.32084 -11.30470 -11.28655 -11.28604
 Alpha  occ. eigenvalues --  -11.28312 -11.27620 -11.27596 -11.27029 -11.26993
 Alpha  occ. eigenvalues --  -11.26783 -11.26066 -11.26015  -1.60744  -1.59234
 Alpha  occ. eigenvalues --   -1.40299  -1.38791  -1.20236  -1.18624  -1.09620
 Alpha  occ. eigenvalues --   -1.08053  -1.05625  -1.04015  -0.96457  -0.94910
 Alpha  occ. eigenvalues --   -0.87020  -0.85433  -0.83281  -0.81745  -0.78349
 Alpha  occ. eigenvalues --   -0.76798  -0.72917  -0.72093  -0.71432  -0.71311
 Alpha  occ. eigenvalues --   -0.70550  -0.69780  -0.65874  -0.65604  -0.64295
 Alpha  occ. eigenvalues --   -0.64040  -0.62968  -0.61380  -0.56090  -0.54577
 Alpha  occ. eigenvalues --   -0.53967  -0.53700  -0.52330  -0.52135  -0.49686
 Alpha  occ. eigenvalues --   -0.49670  -0.48190  -0.48183  -0.45685  -0.44219
 Alpha  occ. eigenvalues --   -0.38206  -0.37236  -0.36591  -0.35570
 Alpha virt. eigenvalues --    0.04143   0.05736   0.10372   0.12063   0.15667
 Alpha virt. eigenvalues --    0.17269   0.20424   0.21890   0.25994   0.27034
 Alpha virt. eigenvalues --    0.28266   0.28745   0.30192   0.30874   0.32530

 Mulliken charges:
               1
     1  C   -0.169221
     2  C   -0.216748
     3  C   -0.171641
     4  C    0.158754
     5  C   -0.170328
     6  C   -0.205666
     7  H    0.219744
     8  H    0.221092
     9  H    0.273487
    10  H    0.273938
    11  H    0.219873
    12  N    0.488242
    13  O   -0.461613
    14  O   -0.462262
    15  C   -0.170635
    16  C   -0.218152
    17  C   -0.172440
    18  C    0.155770
    19  C   -0.175942
    20  C   -0.217877
    21  H    0.228670
    22  H    0.226227
    23  H    0.277032
    24  H    0.273871
    25  H    0.226053
    26  N    0.486814
    27  O   -0.460191
    28  O   -0.456851
 Sum of Mulliken charges =  -0.00000

 Dipole moment (field-independent basis, Debye):
    X=             -8.8122    Y=             -0.0652    Z=             -4.8657  Tot=             10.0665
 Quadrupole moment (field-independent basis, Debye-Ang):
   XX=           -113.4419   YY=            -96.8414   ZZ=           -108.4399
   XY=            -10.7308   XZ=              3.5796   YZ=              2.3037

 Normal termination of Gaussian 16 at Thu May  6 08:03:42 2021.
