 Gaussian 16, Revision A.03,
 Gaussian 16:  EM64L-G16RevA.03 25-Dec-2016

 -------------
 #p 6-31g* mp2
 -------------

 ------------------------------------------------------
 Input file generated by CHIRIPA (05-May-2021 14:57:26)
 ------------------------------------------------------
 Symbolic Z-matrix:
 Charge =  0 Multiplicity = 1

                         Standard orientation:
 ---------------------------------------------------------------------
 Center     Atomic      Atomic             Coordinates (Angstroms)
 Number     Number       Type             X           Y           Z
 ---------------------------------------------------------------------
      1          6           0        0.846738   -1.244521   -0.210928
      2          6           0        1.974276   -2.043559    0.005213
      3          6           0        3.249408   -1.472783    0.058160
      4          6           0        3.360909   -0.093426   -0.109870
      5          6           0        2.256668    0.729311   -0.326767
      6          6           0        0.991277    0.136928   -0.375937
      7          1           0       -0.140031   -1.696306   -0.250591
      8          1           0        1.865032   -3.116686    0.133697
      9          1           0        4.139210   -2.067868    0.224120
     10          1           0        2.397248    1.796149   -0.451312
     11          1           0        0.117387    0.759934   -0.543938
     12          7           0        4.705677    0.522266   -0.055817
     13          8           0        4.777164    1.739936   -0.206836
     14          8           0        5.662756   -0.224483    0.136545
     15          6           0       -3.527411   -2.293575   -0.032097
     16          6           0       -4.129460   -1.433877   -0.956746
     17          6           0       -3.921433   -0.053372   -0.882725
     18          6           0       -3.101751    0.435477    0.133365
     19          6           0       -2.487901   -0.395325    1.069445
     20          6           0       -2.709994   -1.772474    0.976270
     21          1           0       -3.694474   -3.364682   -0.097038
     22          1           0       -4.764764   -1.835765   -1.740914
     23          1           0       -4.375153    0.634887   -1.585472
     24          1           0       -1.859732    0.034864    1.840004
     25          1           0       -2.241137   -2.437747    1.695736
     26          7           0       -2.874077    1.895179    0.221867
     27          8           0       -2.147602    2.300895    1.126448
     28          8           0       -3.426412    2.605939   -0.615023
 ---------------------------------------------------------------------

 SCF Done:  E(RHF) =  -868.337079386     A.U. after   16 cycles
 E2 =    -0.2602759227D+01 EUMP2 =    -0.87093983861374D+03

 The electronic state is 1-A.
 Alpha  occ. eigenvalues --  -20.61922 -20.61916 -20.60609 -20.60593 -15.86960
 Alpha  occ. eigenvalues --  -15.85657 -11.32432 -11.31040 -11.29012 -11.28969
 Alpha  occ. eigenvalues --  -11.28755 -11.28022 -11.27956 -11.27661 -11.27555
 Alpha  occ. eigenvalues --  -11.27280 -11.26700 -11.26554  -1.60999  -1.59679
 Alpha  occ. eigenvalues --   -1.40541  -1.39231  -1.20642  -1.19220  -1.10000
 Alpha  occ. eigenvalues --   -1.08622  -1.06030  -1.04618  -0.96802  -0.95446
 Alpha  occ. eigenvalues --   -0.87406  -0.86025  -0.83615  -0.82268  -0.78650
 Alpha  occ. eigenvalues --   -0.77315  -0.73154  -0.72364  -0.71874  -0.71669
 Alpha  occ. eigenvalues --   -0.71003  -0.70358  -0.66250  -0.65975  -0.64867
 Alpha  occ. eigenvalues --   -0.64646  -0.63319  -0.61962  -0.56478  -0.55454
 Alpha  occ. eigenvalues --   -0.54095  -0.54036  -0.52957  -0.52704  -0.49934
 Alpha  occ. eigenvalues --   -0.49915  -0.48640  -0.48626  -0.45897  -0.44632
 Alpha  occ. eigenvalues --   -0.38632  -0.37791  -0.37047  -0.36216
 Alpha virt. eigenvalues --    0.03824   0.05230   0.09811   0.11468   0.15237
 Alpha virt. eigenvalues --    0.16734   0.20273   0.21631   0.26198   0.26911
 Alpha virt. eigenvalues --    0.27320   0.28779   0.29870   0.31072   0.31789

 Mulliken charges:
               1
     1  C   -0.180223
     2  C   -0.221428
     3  C   -0.170995
     4  C    0.157864
     5  C   -0.170233
     6  C   -0.222454
     7  H    0.230016
     8  H    0.218644
     9  H    0.274426
    10  H    0.280189
    11  H    0.226665
    12  N    0.487976
    13  O   -0.458396
    14  O   -0.461926
    15  C   -0.171407
    16  C   -0.218298
    17  C   -0.169629
    18  C    0.152442
    19  C   -0.174865
    20  C   -0.231050
    21  H    0.229914
    22  H    0.228554
    23  H    0.279954
    24  H    0.282046
    25  H    0.227913
    26  N    0.486675
    27  O   -0.457666
    28  O   -0.454708
 Sum of Mulliken charges =  -0.00000

 Dipole moment (field-independent basis, Debye):
    X=             -5.9120    Y=             -7.1334    Z=             -0.5189  Tot=              9.2794
 Quadrupole moment (field-independent basis, Debye-Ang):
   XX=           -129.0999   YY=           -105.3101   ZZ=           -102.4779
   XY=              6.7264   XZ=              3.9451   YZ=             -2.0436

 Normal termination of Gaussian 16 at Thu May  6 21:24:12 2021.
