 Gaussian 16, Revision A.03,
 Gaussian 16:  EM64L-G16RevA.03 25-Dec-2016

 -------------
 #p 6-31g* mp2
 -------------

 ------------------------------------------------------
 Input file generated by CHIRIPA (05-May-2021 14:55:23)
 ------------------------------------------------------
 Symbolic Z-matrix:
 Charge =  0 Multiplicity = 1

                         Standard orientation:
 ---------------------------------------------------------------------
 Center     Atomic      Atomic             Coordinates (Angstroms)
 Number     Number       Type             X           Y           Z
 ---------------------------------------------------------------------
      1          6           0        4.493461   -0.900549   -1.436385
      2          6           0        3.160679   -1.305795   -1.562835
      3          6           0        2.190092   -0.843232   -0.669222
      4          6           0        2.589111    0.027535    0.343615
      5          6           0        3.908991    0.449521    0.495722
      6          6           0        4.862712   -0.025727   -0.409321
      7          1           0        5.240886   -1.264806   -2.135005
      8          1           0        2.871036   -1.985116   -2.359500
      9          1           0        1.151235   -1.140874   -0.744066
     10          1           0        4.167388    1.127520    1.300064
     11          1           0        5.897028    0.290678   -0.308702
     12          7           0        1.570522    0.523944    1.295693
     13          8           0        1.947668    1.290399    2.179404
     14          8           0        0.414292    0.137175    1.140194
     15          6           0       -3.165605    0.732845   -0.132396
     16          6           0       -3.559498    1.809360   -1.144300
     17          6           0       -2.824206    3.130707   -0.918069
     18          1           0       -3.371589    1.099642    0.882481
     19          1           0       -2.081264    0.564635   -0.189875
     20          1           0       -4.642980    1.974504   -1.085897
     21          1           0       -3.352730    1.439883   -2.156896
     22          1           0       -1.741658    2.987549   -0.996788
     23          1           0       -3.039238    3.525207    0.080296
     24          1           0       -3.120821    3.886054   -1.652461
     25          6           0       -3.892283   -0.593890   -0.345559
     26          6           0       -3.498390   -1.670405    0.666345
     27          6           0       -4.233682   -2.991752    0.440114
     28          1           0       -4.976624   -0.425680   -0.288080
     29          1           0       -3.686299   -0.960687   -1.360436
     30          1           0       -3.705158   -1.300928    1.678941
     31          1           0       -2.414908   -1.835549    0.607942
     32          1           0       -4.018650   -3.386252   -0.558251
     33          1           0       -5.316230   -2.848595    0.518833
     34          1           0       -3.937067   -3.747099    1.174506
 ---------------------------------------------------------------------

 SCF Done:  E(RHF) =  -669.535950419     A.U. after   15 cycles
 E2 =    -0.2091335603D+01 EUMP2 =    -0.67162728602253D+03

 The electronic state is 1-A.
 Alpha  occ. eigenvalues --  -20.60955 -20.60944 -15.85987 -11.31315 -11.27887
 Alpha  occ. eigenvalues --  -11.27873 -11.27614 -11.26888 -11.26877 -11.20791
 Alpha  occ. eigenvalues --  -11.20752 -11.20568 -11.20492 -11.20285 -11.20195
 Alpha  occ. eigenvalues --   -1.60013  -1.39570  -1.19484  -1.08886  -1.07539
 Alpha  occ. eigenvalues --   -1.04882  -1.02740  -0.95728  -0.95190  -0.86283
 Alpha  occ. eigenvalues --   -0.86209  -0.82564  -0.78784  -0.77643  -0.77268
 Alpha  occ. eigenvalues --   -0.72208  -0.71327  -0.70593  -0.65143  -0.64885
 Alpha  occ. eigenvalues --   -0.64179  -0.62232  -0.60155  -0.58558  -0.56786
 Alpha  occ. eigenvalues --   -0.55384  -0.54490  -0.53213  -0.52975  -0.51927
 Alpha  occ. eigenvalues --   -0.51603  -0.49146  -0.48970  -0.48959  -0.47108
 Alpha  occ. eigenvalues --   -0.45838  -0.45111  -0.44858  -0.44567  -0.42956
 Alpha  occ. eigenvalues --   -0.37461  -0.36484
 Alpha virt. eigenvalues --    0.04889   0.11170   0.16366   0.21037   0.23440
 Alpha virt. eigenvalues --    0.25032   0.26250   0.27447   0.27869   0.28615
 Alpha virt. eigenvalues --    0.29161   0.31134   0.32033   0.32380   0.32538

 Mulliken charges:
               1
     1  C   -0.170615
     2  C   -0.218451
     3  C   -0.170812
     4  C    0.157975
     5  C   -0.170790
     6  C   -0.218489
     7  H    0.226110
     8  H    0.223924
     9  H    0.274896
    10  H    0.275978
    11  H    0.223944
    12  N    0.492480
    13  O   -0.458570
    14  O   -0.464256
    15  C   -0.305186
    16  C   -0.299147
    17  C   -0.473911
    18  H    0.152396
    19  H    0.168937
    20  H    0.148509
    21  H    0.145877
    22  H    0.155893
    23  H    0.157464
    24  H    0.155195
    25  C   -0.297976
    26  C   -0.299368
    27  C   -0.475306
    28  H    0.146038
    29  H    0.142666
    30  H    0.154820
    31  H    0.157117
    32  H    0.150459
    33  H    0.153638
    34  H    0.158559
 Sum of Mulliken charges =  -0.00000

 Dipole moment (field-independent basis, Debye):
    X=              3.8745    Y=             -1.7039    Z=             -3.1898  Tot=              5.3000
 Quadrupole moment (field-independent basis, Debye-Ang):
   XX=            -74.4789   YY=            -95.5380   ZZ=            -96.2569
   XY=             -3.2159   XZ=             -6.7658   YZ=              1.2396

 Normal termination of Gaussian 16 at Thu May  6 04:43:01 2021.
