 Gaussian 16, Revision A.03,
 Gaussian 16:  EM64L-G16RevA.03 25-Dec-2016

 -------------
 #p 6-31g* mp2
 -------------

 ------------------------------------------------------
 Input file generated by CHIRIPA (05-May-2021 14:57:21)
 ------------------------------------------------------
 Symbolic Z-matrix:
 Charge =  0 Multiplicity = 1

                         Standard orientation:
 ---------------------------------------------------------------------
 Center     Atomic      Atomic             Coordinates (Angstroms)
 Number     Number       Type             X           Y           Z
 ---------------------------------------------------------------------
      1          6           0        1.835224    2.768688    0.220029
      2          6           0        1.505666    1.945496    1.301817
      3          6           0        1.929893    0.613795    1.335737
      4          6           0        2.685561    0.135992    0.266175
      5          6           0        3.030043    0.931247   -0.825701
      6          6           0        2.595021    2.259833   -0.838412
      7          1           0        1.501482    3.801976    0.201917
      8          1           0        0.915722    2.337980    2.125205
      9          1           0        1.688998   -0.045475    2.160813
     10          1           0        3.619432    0.511558   -1.631864
     11          1           0        2.852453    2.896831   -1.679844
     12          7           0        3.140385   -1.272172    0.290858
     13          8           0        3.805029   -1.669105   -0.663778
     14          8           0        2.823620   -1.952294    1.264373
     15          6           0       -0.524291   -1.600035   -0.966033
     16          6           0       -1.482993   -2.241862   -0.175166
     17          6           0       -2.642751   -1.568998    0.220771
     18          6           0       -2.812297   -0.248973   -0.194055
     19          6           0       -1.875465    0.417737   -0.982174
     20          6           0       -0.723236   -0.274622   -1.366308
     21          1           0        0.373711   -2.130304   -1.269021
     22          1           0       -1.331142   -3.271148    0.137175
     23          1           0       -3.401133   -2.041841    0.832893
     24          1           0       -2.054776    1.444285   -1.277917
     25          1           0        0.019607    0.226349   -1.980521
     26          7           0       -4.036094    0.473676    0.218858
     27          8           0       -4.161880    1.636192   -0.159786
     28          8           0       -4.846351   -0.136110    0.913324
 ---------------------------------------------------------------------

 SCF Done:  E(RHF) =  -868.338916892     A.U. after   16 cycles
 E2 =    -0.2602410301D+01 EUMP2 =    -0.87094132719328D+03

 The electronic state is 1-A.
 Alpha  occ. eigenvalues --  -20.61727 -20.61713 -20.60888 -20.60870 -15.86753
 Alpha  occ. eigenvalues --  -15.85929 -11.31960 -11.31180 -11.28568 -11.28458
 Alpha  occ. eigenvalues --  -11.28203 -11.27733 -11.27676 -11.27542 -11.27411
 Alpha  occ. eigenvalues --  -11.27328 -11.26679 -11.26625  -1.60811  -1.59961
 Alpha  occ. eigenvalues --   -1.40359  -1.39518  -1.20139  -1.19315  -1.09552
 Alpha  occ. eigenvalues --   -1.08718  -1.05504  -1.04692  -0.96407  -0.95581
 Alpha  occ. eigenvalues --   -0.86899  -0.86086  -0.83232  -0.82414  -0.78307
 Alpha  occ. eigenvalues --   -0.77496  -0.72965  -0.72211  -0.72140  -0.71288
 Alpha  occ. eigenvalues --   -0.71206  -0.70340  -0.65773  -0.65475  -0.64953
 Alpha  occ. eigenvalues --   -0.64677  -0.62837  -0.62054  -0.55977  -0.55147
 Alpha  occ. eigenvalues --   -0.54083  -0.53568  -0.52901  -0.52659  -0.49740
 Alpha  occ. eigenvalues --   -0.49716  -0.48912  -0.48890  -0.45791  -0.44949
 Alpha  occ. eigenvalues --   -0.38255  -0.37262  -0.36997  -0.36224
 Alpha virt. eigenvalues --    0.04151   0.05023   0.10507   0.11363   0.15707
 Alpha virt. eigenvalues --    0.16549   0.20779   0.21550   0.26718   0.27383
 Alpha virt. eigenvalues --    0.27610   0.28324   0.30408   0.31146   0.31883

 Mulliken charges:
               1
     1  C   -0.172024
     2  C   -0.216840
     3  C   -0.165634
     4  C    0.157277
     5  C   -0.179738
     6  C   -0.222357
     7  H    0.230407
     8  H    0.229509
     9  H    0.277930
    10  H    0.275541
    11  H    0.225679
    12  N    0.485068
    13  O   -0.462280
    14  O   -0.458368
    15  C   -0.178942
    16  C   -0.217253
    17  C   -0.173356
    18  C    0.157087
    19  C   -0.174018
    20  C   -0.215113
    21  H    0.234908
    22  H    0.229039
    23  H    0.275369
    24  H    0.271026
    25  H    0.222563
    26  N    0.487903
    27  O   -0.463507
    28  O   -0.459875
 Sum of Mulliken charges =  -0.00000

 Dipole moment (field-independent basis, Debye):
    X=              2.8292    Y=              2.4149    Z=             -1.3551  Tot=              3.9588
 Quadrupole moment (field-independent basis, Debye-Ang):
   XX=           -138.1169   YY=            -98.9891   ZZ=            -99.8581
   XY=             21.5098   XZ=             -0.3898   YZ=             -0.5844

 Normal termination of Gaussian 16 at Thu May  6 04:53:47 2021.
