 Gaussian 16, Revision A.03,
 Gaussian 16:  EM64L-G16RevA.03 25-Dec-2016

 -------------
 #p 6-31g* mp2
 -------------

 ------------------------------------------------------
 Input file generated by CHIRIPA (05-May-2021 14:55:23)
 ------------------------------------------------------
 Symbolic Z-matrix:
 Charge =  0 Multiplicity = 1

                         Standard orientation:
 ---------------------------------------------------------------------
 Center     Atomic      Atomic             Coordinates (Angstroms)
 Number     Number       Type             X           Y           Z
 ---------------------------------------------------------------------
      1          6           0       -2.231854   -2.700815    0.638345
      2          6           0       -1.309414   -1.722814    1.024530
      3          6           0       -1.525872   -0.378310    0.708295
      4          6           0       -2.680598   -0.045706    0.001702
      5          6           0       -3.618330   -0.996996   -0.397038
      6          6           0       -3.381341   -2.335429   -0.069958
      7          1           0       -2.055730   -3.742900    0.888216
      8          1           0       -0.415832   -2.003669    1.574690
      9          1           0       -0.828236    0.399223    0.994936
     10          1           0       -4.499875   -0.686386   -0.944594
     11          1           0       -4.099448   -3.092820   -0.371167
     12          7           0       -2.920619    1.374446   -0.338822
     13          8           0       -3.945720    1.641603   -0.962067
     14          8           0       -2.079103    2.193514    0.023967
     15          6           0        3.413370    1.059505    0.226620
     16          6           0        2.153421    1.887729   -0.027468
     17          6           0        2.234276    3.288490    0.580088
     18          1           0        3.581251    0.981897    1.309551
     19          1           0        4.282117    1.590055   -0.187131
     20          1           0        1.287126    1.355119    0.385418
     21          1           0        1.988412    1.963213   -1.109914
     22          1           0        3.080396    3.842172    0.160424
     23          1           0        2.375125    3.230623    1.664253
     24          1           0        1.323200    3.863243    0.386537
     25          6           0        3.347690   -0.343308   -0.374652
     26          6           0        4.607639   -1.171532   -0.120563
     27          6           0        4.526784   -2.572294   -0.728118
     28          1           0        2.478943   -0.873859    0.039100
     29          1           0        3.179809   -0.265700   -1.457581
     30          1           0        4.772648   -1.247017    0.961883
     31          1           0        5.473934   -0.638922   -0.533450
     32          1           0        4.385935   -2.514427   -1.812284
     33          1           0        3.680664   -3.125975   -0.308455
     34          1           0        5.437860   -3.147046   -0.534568
 ---------------------------------------------------------------------

 SCF Done:  E(RHF) =  -669.535552213     A.U. after   15 cycles
 E2 =    -0.2091707214D+01 EUMP2 =    -0.67162725942711D+03

 The electronic state is 1-A.
 Alpha  occ. eigenvalues --  -20.60790 -20.60785 -15.85840 -11.31200 -11.27775
 Alpha  occ. eigenvalues --  -11.27764 -11.27521 -11.26797 -11.26785 -11.21882
 Alpha  occ. eigenvalues --  -11.21660 -11.21553 -11.21458 -11.21404 -11.20716
 Alpha  occ. eigenvalues --   -1.59861  -1.39415  -1.19378  -1.08773  -1.08581
 Alpha  occ. eigenvalues --   -1.04784  -1.03600  -0.96039  -0.95608  -0.87058
 Alpha  occ. eigenvalues --   -0.86182  -0.82441  -0.79685  -0.78395  -0.77479
 Alpha  occ. eigenvalues --   -0.72061  -0.71181  -0.70495  -0.65247  -0.65032
 Alpha  occ. eigenvalues --   -0.64788  -0.62160  -0.60995  -0.59410  -0.57623
 Alpha  occ. eigenvalues --   -0.55363  -0.55278  -0.53108  -0.52897  -0.52686
 Alpha  occ. eigenvalues --   -0.52453  -0.50006  -0.48821  -0.48814  -0.47975
 Alpha  occ. eigenvalues --   -0.46741  -0.45920  -0.45854  -0.44814  -0.43857
 Alpha  occ. eigenvalues --   -0.37357  -0.36377
 Alpha virt. eigenvalues --    0.05022   0.11237   0.16493   0.19929   0.22941
 Alpha virt. eigenvalues --    0.23853   0.25198   0.26952   0.27395   0.28157
 Alpha virt. eigenvalues --    0.29270   0.30304   0.31474   0.31619   0.32234

 Mulliken charges:
               1
     1  C   -0.170480
     2  C   -0.221538
     3  C   -0.175800
     4  C    0.157273
     5  C   -0.170282
     6  C   -0.218691
     7  H    0.225762
     8  H    0.223525
     9  H    0.286006
    10  H    0.275685
    11  H    0.223559
    12  N    0.487506
    13  O   -0.460201
    14  O   -0.461411
    15  C   -0.298813
    16  C   -0.300337
    17  C   -0.477926
    18  H    0.147313
    19  H    0.151526
    20  H    0.145689
    21  H    0.156477
    22  H    0.153800
    23  H    0.151662
    24  H    0.174534
    25  C   -0.296267
    26  C   -0.299780
    27  C   -0.474888
    28  H    0.140159
    29  H    0.152438
    30  H    0.150798
    31  H    0.154200
    32  H    0.156723
    33  H    0.150734
    34  H    0.161045
 Sum of Mulliken charges =  -0.00000

 Dipole moment (field-independent basis, Debye):
    X=              0.8323    Y=             -4.8719    Z=              1.1152  Tot=              5.0667
 Quadrupole moment (field-independent basis, Debye-Ang):
   XX=            -95.6265   YY=            -95.0950   ZZ=            -93.8355
   XY=             15.2218   XZ=             -1.5333   YZ=             -0.2129

 Normal termination of Gaussian 16 at Thu May  6 03:05:40 2021.
