 Gaussian 16, Revision A.03,
 Gaussian 16:  EM64L-G16RevA.03 25-Dec-2016

 -------------
 #p 6-31g* mp2
 -------------

 ------------------------------------------------------
 Input file generated by CHIRIPA (05-May-2021 14:51:12)
 ------------------------------------------------------
 Symbolic Z-matrix:
 Charge =  0 Multiplicity = 1

                         Standard orientation:
 ---------------------------------------------------------------------
 Center     Atomic      Atomic             Coordinates (Angstroms)
 Number     Number       Type             X           Y           Z
 ---------------------------------------------------------------------
      1          6           0       -3.716474    0.393608   -0.334683
      2          6           0       -3.506825    1.890706   -0.105054
      3          6           0       -2.101008    2.356007   -0.485801
      4          1           0       -2.972721   -0.167814    0.247195
      5          1           0       -3.526219    0.161704   -1.391762
      6          1           0       -3.698766    2.119951    0.950987
      7          1           0       -4.251286    2.448624   -0.687395
      8          1           0       -1.902288    2.155879   -1.543657
      9          1           0       -1.346629    1.825339    0.104034
     10          1           0       -1.972975    3.429245   -0.313678
     11          6           0       -5.117081   -0.086665    0.041304
     12          6           0       -5.326731   -1.583763   -0.188325
     13          6           0       -6.732548   -2.049064    0.192423
     14          1           0       -5.307337    0.145240    1.098384
     15          1           0       -5.860835    0.474757   -0.540573
     16          1           0       -4.582270   -2.141680    0.394017
     17          1           0       -5.134790   -1.813007   -1.244365
     18          1           0       -7.486927   -1.518395   -0.397412
     19          1           0       -6.931268   -1.848936    1.250279
     20          1           0       -6.860581   -3.122302    0.020299
     21          6           0        3.673824   -0.330779    0.150299
     22          6           0        2.789357    0.774892    0.727529
     23          6           0        1.305707    0.405332    0.728002
     24          1           0        3.349502   -0.552953   -0.875565
     25          1           0        3.524454   -1.251203    0.731594
     26          1           0        2.941386    1.693334    0.146180
     27          1           0        3.115946    0.994594    1.752072
     28          1           0        1.133556   -0.496622    1.324193
     29          1           0        0.958005    0.206089   -0.290824
     30          1           0        0.691722    1.209808    1.144777
     31          6           0        5.159732    0.023836    0.143079
     32          6           0        6.044198   -1.081836   -0.434151
     33          6           0        7.527849   -0.712276   -0.434623
     34          1           0        5.309103    0.944260   -0.438215
     35          1           0        5.484054    0.246010    1.168944
     36          1           0        5.717610   -1.301537   -1.458693
     37          1           0        5.892169   -2.000277    0.147199
     38          1           0        7.875551   -0.513032    0.584203
     39          1           0        7.700000    0.189678   -1.030814
     40          1           0        8.141834   -1.516751   -0.851399
 ---------------------------------------------------------------------

 SCF Done:  E(RHF) =  -470.733056356     A.U. after   11 cycles
 E2 =    -0.1582379114D+01 EUMP2 =    -0.47231543547051D+03

 The electronic state is 1-A.
 Alpha  occ. eigenvalues --  -11.21610 -11.21603 -11.21566 -11.21530 -11.21409
 Alpha  occ. eigenvalues --  -11.21353 -11.21349 -11.21290 -11.21085 -11.21072
 Alpha  occ. eigenvalues --  -11.21044 -11.20933  -1.08436  -1.08375  -1.03545
 Alpha  occ. eigenvalues --   -1.03465  -0.96017  -0.95898  -0.87062  -0.86892
 Alpha  occ. eigenvalues --   -0.79648  -0.79494  -0.78249  -0.78183  -0.65067
 Alpha  occ. eigenvalues --   -0.65006  -0.60965  -0.60867  -0.59394  -0.59277
 Alpha  occ. eigenvalues --   -0.57639  -0.57502  -0.55336  -0.55165  -0.52817
 Alpha  occ. eigenvalues --   -0.52611  -0.52417  -0.52235  -0.49984  -0.49780
 Alpha  occ. eigenvalues --   -0.47922  -0.47840  -0.46658  -0.46533  -0.45802
 Alpha  occ. eigenvalues --   -0.45732  -0.45694  -0.45651  -0.43749  -0.43729
 Alpha virt. eigenvalues --    0.22397   0.22971   0.23646   0.24760   0.26331
 Alpha virt. eigenvalues --    0.26637   0.27103   0.27466   0.27787   0.29020
 Alpha virt. eigenvalues --    0.30267   0.31382   0.31711   0.31830   0.32100

 Mulliken charges:
               1
     1  C   -0.298505
     2  C   -0.299072
     3  C   -0.483546
     4  H    0.150431
     5  H    0.149171
     6  H    0.151372
     7  H    0.151423
     8  H    0.154203
     9  H    0.164832
    10  H    0.159083
    11  C   -0.298235
    12  C   -0.299613
    13  C   -0.475670
    14  H    0.149391
    15  H    0.149495
    16  H    0.151987
    17  H    0.151818
    18  H    0.155104
    19  H    0.155118
    20  H    0.160123
    21  C   -0.298726
    22  C   -0.299334
    23  C   -0.479871
    24  H    0.149861
    25  H    0.149444
    26  H    0.152611
    27  H    0.151802
    28  H    0.154777
    29  H    0.157218
    30  H    0.163179
    31  C   -0.298319
    32  C   -0.299640
    33  C   -0.475707
    34  H    0.149638
    35  H    0.149631
    36  H    0.151983
    37  H    0.151900
    38  H    0.155167
    39  H    0.155218
    40  H    0.160258
 Sum of Mulliken charges =  -0.00000

 Dipole moment (field-independent basis, Debye):
    X=              0.0451    Y=             -0.0123    Z=              0.0084  Tot=              0.0475
 Quadrupole moment (field-independent basis, Debye-Ang):
   XX=            -87.0274   YY=            -84.9433   ZZ=            -83.0443
   XY=             -0.6315   XZ=              0.6723   YZ=             -0.4245

 Normal termination of Gaussian 16 at Wed May  5 18:19:06 2021.
