 Gaussian 16, Revision A.03,
 Gaussian 16:  EM64L-G16RevA.03 25-Dec-2016

 -------------
 #p 6-31g* mp2
 -------------

 ------------------------------------------------------
 Input file generated by CHIRIPA (05-May-2021 14:55:23)
 ------------------------------------------------------
 Symbolic Z-matrix:
 Charge =  0 Multiplicity = 1

                         Standard orientation:
 ---------------------------------------------------------------------
 Center     Atomic      Atomic             Coordinates (Angstroms)
 Number     Number       Type             X           Y           Z
 ---------------------------------------------------------------------
      1          6           0        4.696927    1.957486    0.380450
      2          6           0        5.202264    0.653238    0.390074
      3          6           0        4.385056   -0.427398    0.045190
      4          6           0        3.061436   -0.166327   -0.305756
      5          6           0        2.528668    1.121727   -0.324883
      6          6           0        3.364092    2.187163    0.023631
      7          1           0        5.338829    2.791046    0.649774
      8          1           0        6.236962    0.471886    0.666762
      9          1           0        4.750428   -1.447162    0.044224
     10          1           0        1.493023    1.271089   -0.605145
     11          1           0        2.968931    3.199005    0.015275
     12          7           0        2.186653   -1.302302   -0.672791
     13          8           0        1.024095   -1.045773   -0.978222
     14          8           0        2.680120   -2.427698   -0.648092
     15          6           0       -3.688562   -0.546484    0.689963
     16          6           0       -2.199945   -0.203244    0.754702
     17          6           0       -1.383667   -1.252454    1.510111
     18          1           0       -4.078975   -0.651132    1.711516
     19          1           0       -3.811268   -1.525626    0.206619
     20          1           0       -2.080177    0.775586    1.236534
     21          1           0       -1.813076   -0.099213   -0.267123
     22          1           0       -1.473494   -2.231103    1.027639
     23          1           0       -1.742112   -1.351333    2.539839
     24          1           0       -0.322380   -0.987199    1.544311
     25          6           0       -4.517802    0.492991   -0.062086
     26          6           0       -6.006419    0.149751   -0.126824
     27          6           0       -6.822698    1.198961   -0.882234
     28          1           0       -4.395097    1.472133    0.421258
     29          1           0       -4.127389    0.597639   -1.083640
     30          1           0       -6.393289    0.045721    0.895000
     31          1           0       -6.126188   -0.829079   -0.608657
     32          1           0       -6.464252    1.297840   -1.911963
     33          1           0       -6.732871    2.177610   -0.399762
     34          1           0       -7.883985    0.933706   -0.916435
 ---------------------------------------------------------------------

 SCF Done:  E(RHF) =  -669.535874650     A.U. after   15 cycles
 E2 =    -0.2091734215D+01 EUMP2 =    -0.67162760886559D+03

 The electronic state is 1-A.
 Alpha  occ. eigenvalues --  -20.60935 -20.60917 -15.85949 -11.31276 -11.27837
 Alpha  occ. eigenvalues --  -11.27833 -11.27576 -11.26847 -11.26837 -11.21157
 Alpha  occ. eigenvalues --  -11.20844 -11.20727 -11.20676 -11.20617 -11.19922
 Alpha  occ. eigenvalues --   -1.59985  -1.39542  -1.19444  -1.08849  -1.07769
 Alpha  occ. eigenvalues --   -1.04840  -1.02812  -0.95697  -0.95258  -0.86288
 Alpha  occ. eigenvalues --   -0.86240  -0.82524  -0.78913  -0.77623  -0.77526
 Alpha  occ. eigenvalues --   -0.72185  -0.71308  -0.70552  -0.65104  -0.64842
 Alpha  occ. eigenvalues --   -0.64392  -0.62186  -0.60189  -0.58672  -0.56873
 Alpha  occ. eigenvalues --   -0.55345  -0.54545  -0.53171  -0.52931  -0.51968
 Alpha  occ. eigenvalues --   -0.51703  -0.49238  -0.48931  -0.48912  -0.47233
 Alpha  occ. eigenvalues --   -0.45943  -0.45116  -0.45012  -0.44897  -0.43066
 Alpha  occ. eigenvalues --   -0.37424  -0.36440
 Alpha virt. eigenvalues --    0.04933   0.11194   0.16402   0.21203   0.23485
 Alpha virt. eigenvalues --    0.24764   0.26902   0.27326   0.27694   0.28461
 Alpha virt. eigenvalues --    0.28850   0.30756   0.31795   0.32158   0.32398

 Mulliken charges:
               1
     1  C   -0.170582
     2  C   -0.218551
     3  C   -0.170810
     4  C    0.157626
     5  C   -0.171544
     6  C   -0.218577
     7  H    0.225954
     8  H    0.223780
     9  H    0.275831
    10  H    0.276812
    11  H    0.223975
    12  N    0.489842
    13  O   -0.460041
    14  O   -0.458802
    15  C   -0.298061
    16  C   -0.303329
    17  C   -0.466387
    18  H    0.146531
    19  H    0.151891
    20  H    0.141167
    21  H    0.164624
    22  H    0.162756
    23  H    0.144978
    24  H    0.156298
    25  C   -0.297804
    26  C   -0.299180
    27  C   -0.475335
    28  H    0.145930
    29  H    0.150037
    30  H    0.150826
    31  H    0.152706
    32  H    0.154903
    33  H    0.153442
    34  H    0.159094
 Sum of Mulliken charges =  -0.00000

 Dipole moment (field-independent basis, Debye):
    X=              3.3136    Y=              3.8974    Z=              1.1513  Tot=              5.2436
 Quadrupole moment (field-independent basis, Debye-Ang):
   XX=            -74.3854   YY=            -94.5263   ZZ=            -96.1792
   XY=              9.8874   XZ=              3.5661   YZ=             -1.1015

 Normal termination of Gaussian 16 at Thu May  6 19:15:51 2021.
