 Gaussian 16, Revision A.03,
 Gaussian 16:  EM64L-G16RevA.03 25-Dec-2016

 -------------
 #p 6-31g* mp2
 -------------

 ------------------------------------------------------
 Input file generated by CHIRIPA (05-May-2021 14:51:14)
 ------------------------------------------------------
 Symbolic Z-matrix:
 Charge =  0 Multiplicity = 1

                         Standard orientation:
 ---------------------------------------------------------------------
 Center     Atomic      Atomic             Coordinates (Angstroms)
 Number     Number       Type             X           Y           Z
 ---------------------------------------------------------------------
      1          6           0       -2.956695   -0.359874    0.347786
      2          6           0       -4.318538   -0.077214   -0.287407
      3          6           0       -5.128025    0.962729    0.487862
      4          1           0       -3.105230   -0.704139    1.380435
      5          1           0       -2.387105    0.577740    0.409763
      6          1           0       -4.884850   -1.015330   -0.349433
      7          1           0       -4.166753    0.266234   -1.318727
      8          1           0       -4.586578    1.912932    0.538369
      9          1           0       -5.308755    0.624087    1.513171
     10          1           0       -6.097890    1.149554    0.016354
     11          6           0       -2.135693   -1.397456   -0.415829
     12          6           0       -0.773849   -1.680116    0.219364
     13          6           0        0.035637   -2.720060   -0.555905
     14          1           0       -2.705282   -2.335071   -0.477806
     15          1           0       -1.987158   -1.053192   -1.448479
     16          1           0       -0.925635   -2.023564    1.250684
     17          1           0       -0.207538   -0.742001    0.281389
     18          1           0        0.216368   -2.381417   -1.581214
     19          1           0       -0.505810   -3.670262   -0.606413
     20          1           0        1.005502   -2.906884   -0.084398
     21          6           0        2.818131    0.312118    0.468196
     22          6           0        3.599785   -0.736858   -0.323417
     23          6           0        4.137449   -1.863826    0.558998
     24          1           0        3.467715    0.733064    1.247804
     25          1           0        1.983226   -0.177929    0.987985
     26          1           0        4.432148   -0.244752   -0.842667
     27          1           0        2.948324   -1.155218   -1.101355
     28          1           0        3.316553   -2.380894    1.066316
     29          1           0        4.808808   -1.465254    1.326474
     30          1           0        4.692907   -2.602516   -0.027229
     31          6           0        2.274257    1.445212   -0.400152
     32          6           0        1.492602    2.494189    0.391460
     33          6           0        0.954939    3.621156   -0.490954
     34          1           0        3.109162    1.935259   -0.919942
     35          1           0        1.624673    1.024266   -1.179761
     36          1           0        2.144063    2.912549    1.169399
     37          1           0        0.660239    2.002083    0.910711
     38          1           0        0.283580    3.222585   -1.258431
     39          1           0        1.775834    4.138225   -0.998273
     40          1           0        0.399480    4.359846    0.095273
 ---------------------------------------------------------------------

 SCF Done:  E(RHF) =  -470.732726263     A.U. after   11 cycles
 E2 =    -0.1584820198D+01 EUMP2 =    -0.47231754646055D+03

 The electronic state is 1-A.
 Alpha  occ. eigenvalues --  -11.21666 -11.21646 -11.21638 -11.21558 -11.21464
 Alpha  occ. eigenvalues --  -11.21413 -11.21404 -11.21321 -11.21143 -11.21118
 Alpha  occ. eigenvalues --  -11.21094 -11.21076  -1.08524  -1.08412  -1.03614
 Alpha  occ. eigenvalues --   -1.03521  -0.96039  -0.95999  -0.87053  -0.87013
 Alpha  occ. eigenvalues --   -0.79690  -0.79581  -0.78371  -0.78185  -0.65429
 Alpha  occ. eigenvalues --   -0.64853  -0.61094  -0.60902  -0.59376  -0.59328
 Alpha  occ. eigenvalues --   -0.57630  -0.57597  -0.55396  -0.55249  -0.52728
 Alpha  occ. eigenvalues --   -0.52686  -0.52477  -0.52387  -0.50002  -0.49931
 Alpha  occ. eigenvalues --   -0.47981  -0.47908  -0.46852  -0.46557  -0.46073
 Alpha  occ. eigenvalues --   -0.45820  -0.45748  -0.45326  -0.43831  -0.43790
 Alpha virt. eigenvalues --    0.19241   0.21895   0.23659   0.25044   0.25525
 Alpha virt. eigenvalues --    0.26323   0.26967   0.27434   0.28279   0.29915
 Alpha virt. eigenvalues --    0.30718   0.31301   0.31707   0.32006   0.32620

 Mulliken charges:
               1
     1  C   -0.299207
     2  C   -0.299652
     3  C   -0.475821
     4  H    0.149868
     5  H    0.149799
     6  H    0.152114
     7  H    0.152007
     8  H    0.155440
     9  H    0.155225
    10  H    0.160411
    11  C   -0.297705
    12  C   -0.307974
    13  C   -0.480839
    14  H    0.149910
    15  H    0.149416
    16  H    0.151954
    17  H    0.159604
    18  H    0.154948
    19  H    0.155827
    20  H    0.165596
    21  C   -0.303360
    22  C   -0.302144
    23  C   -0.478010
    24  H    0.149777
    25  H    0.154883
    26  H    0.151856
    27  H    0.155562
    28  H    0.156055
    29  H    0.155403
    30  H    0.160533
    31  C   -0.299240
    32  C   -0.302044
    33  C   -0.475615
    34  H    0.150141
    35  H    0.149306
    36  H    0.152583
    37  H    0.152837
    38  H    0.154601
    39  H    0.155544
    40  H    0.160412
 Sum of Mulliken charges =  -0.00000

 Dipole moment (field-independent basis, Debye):
    X=             -0.0065    Y=             -0.0112    Z=              0.0050  Tot=              0.0139
 Quadrupole moment (field-independent basis, Debye-Ang):
   XX=            -84.5487   YY=            -85.2253   ZZ=            -84.9045
   XY=              1.6995   XZ=             -0.0311   YZ=             -0.2213

 Normal termination of Gaussian 16 at Thu May  6 02:26:43 2021.
