 Gaussian 16, Revision A.03,
 Gaussian 16:  EM64L-G16RevA.03 25-Dec-2016

 -------------
 #p 6-31g* mp2
 -------------

 ------------------------------------------------------
 Input file generated by CHIRIPA (05-May-2021 14:53:14)
 ------------------------------------------------------
 Symbolic Z-matrix:
 Charge =  0 Multiplicity = 1

                         Standard orientation:
 ---------------------------------------------------------------------
 Center     Atomic      Atomic             Coordinates (Angstroms)
 Number     Number       Type             X           Y           Z
 ---------------------------------------------------------------------
      1          6           0       -3.155700   -0.531510    0.108487
      2          6           0       -1.900039    0.155076   -0.429938
      3          6           0       -0.617956   -0.604109   -0.086870
      4          1           0       -3.070075   -0.635533    1.198804
      5          1           0       -3.211505   -1.550336   -0.299279
      6          1           0       -1.847350    1.172783   -0.022369
      7          1           0       -1.988747    0.257649   -1.519078
      8          1           0       -0.644482   -1.614683   -0.507151
      9          1           0       -0.502281   -0.694350    0.998061
     10          1           0        0.267393   -0.095761   -0.481331
     11          6           0       -4.445480    0.215508   -0.226414
     12          6           0       -5.701141   -0.471078    0.312010
     13          6           0       -6.983224    0.288107   -0.031057
     14          1           0       -4.389675    1.234335    0.181351
     15          1           0       -4.531104    0.319531   -1.316732
     16          1           0       -5.612433   -0.573651    1.401150
     17          1           0       -5.753830   -1.488785   -0.095559
     18          1           0       -7.098899    0.378348   -1.115989
     19          1           0       -6.956698    1.298682    0.389224
     20          1           0       -7.868573   -0.220241    0.363403
     21          6           0        2.563914    2.612624    0.121006
     22          6           0        2.545481    1.864513    1.302747
     23          6           0        2.768753    0.484722    1.273140
     24          6           0        3.008394   -0.117208    0.038820
     25          6           0        3.033104    0.600890   -1.155757
     26          6           0        2.807238    1.979540   -1.102318
     27          1           0        2.389464    3.684035    0.153262
     28          1           0        2.356771    2.353507    2.254229
     29          1           0        2.760080   -0.118497    2.172845
     30          1           0        3.223937    0.085342   -2.089144
     31          1           0        2.822140    2.558011   -2.021663
     32          7           0        3.246134   -1.577326   -0.005138
     33          8           0        3.454963   -2.083908   -1.105321
     34          8           0        3.219144   -2.187537    1.061422
 ---------------------------------------------------------------------

 SCF Done:  E(RHF) =  -669.534288752     A.U. after   15 cycles
 E2 =    -0.2093378149D+01 EUMP2 =    -0.67162766690081D+03

 The electronic state is 1-A.
 Alpha  occ. eigenvalues --  -20.60745 -20.60738 -15.85795 -11.31157 -11.27767
 Alpha  occ. eigenvalues --  -11.27755 -11.27557 -11.26837 -11.26814 -11.21609
 Alpha  occ. eigenvalues --  -11.21586 -11.21409 -11.21324 -11.21104 -11.20831
 Alpha  occ. eigenvalues --   -1.59815  -1.39369  -1.19404  -1.08779  -1.08417
 Alpha  occ. eigenvalues --   -1.04805  -1.03502  -0.95951  -0.95600  -0.86972
 Alpha  occ. eigenvalues --   -0.86194  -0.82437  -0.79582  -0.78236  -0.77474
 Alpha  occ. eigenvalues --   -0.72020  -0.71141  -0.70498  -0.65053  -0.65041
 Alpha  occ. eigenvalues --   -0.64805  -0.62146  -0.60903  -0.59403  -0.57609
 Alpha  occ. eigenvalues --   -0.55304  -0.55239  -0.53692  -0.52891  -0.52414
 Alpha  occ. eigenvalues --   -0.51956  -0.49875  -0.48780  -0.48771  -0.47870
 Alpha  occ. eigenvalues --   -0.46611  -0.45774  -0.45706  -0.44766  -0.43755
 Alpha  occ. eigenvalues --   -0.37306  -0.36408
 Alpha virt. eigenvalues --    0.05043   0.11205   0.16535   0.21373   0.22870
 Alpha virt. eigenvalues --    0.24347   0.26634   0.27234   0.27508   0.27898
 Alpha virt. eigenvalues --    0.28371   0.30880   0.31377   0.31867   0.32027

 Mulliken charges:
               1
     1  C   -0.298488
     2  C   -0.298025
     3  C   -0.483967
     4  H    0.149263
     5  H    0.151865
     6  H    0.147440
     7  H    0.150581
     8  H    0.160377
     9  H    0.153290
    10  H    0.165741
    11  C   -0.297949
    12  C   -0.299644
    13  C   -0.475616
    14  H    0.147406
    15  H    0.149308
    16  H    0.151862
    17  H    0.153095
    18  H    0.155092
    19  H    0.154181
    20  H    0.160563
    21  C   -0.171529
    22  C   -0.216989
    23  C   -0.169180
    24  C    0.160849
    25  C   -0.176419
    26  C   -0.216075
    27  H    0.225911
    28  H    0.223556
    29  H    0.275548
    30  H    0.275861
    31  H    0.223947
    32  N    0.489649
    33  O   -0.460948
    34  O   -0.460556
 Sum of Mulliken charges =  -0.00000

 Dipole moment (field-independent basis, Debye):
    X=             -0.7618    Y=              5.1209    Z=              0.1622  Tot=              5.1798
 Quadrupole moment (field-independent basis, Debye-Ang):
   XX=           -101.7994   YY=            -96.4357   ZZ=            -89.0698
   XY=             16.4038   XZ=             -0.2648   YZ=              0.4840

 Normal termination of Gaussian 16 at Wed May  5 20:15:15 2021.
