 Gaussian 16, Revision A.03,
 Gaussian 16:  EM64L-G16RevA.03 25-Dec-2016

 -------------
 #p 6-31g* mp2
 -------------

 ------------------------------------------------------
 Input file generated by CHIRIPA (05-May-2021 14:57:26)
 ------------------------------------------------------
 Symbolic Z-matrix:
 Charge =  0 Multiplicity = 1

                         Standard orientation:
 ---------------------------------------------------------------------
 Center     Atomic      Atomic             Coordinates (Angstroms)
 Number     Number       Type             X           Y           Z
 ---------------------------------------------------------------------
      1          6           0       -5.440491    1.809348    0.027277
      2          6           0       -4.125988    2.134864    0.377481
      3          6           0       -3.117453    1.168012    0.326470
      4          6           0       -3.460298   -0.120258   -0.081093
      5          6           0       -4.760677   -0.475455   -0.436253
      6          6           0       -5.753089    0.507522   -0.377758
      7          1           0       -6.217683    2.566685    0.069811
      8          1           0       -3.880317    3.145068    0.692409
      9          1           0       -2.091610    1.392770    0.592078
     10          1           0       -4.974977   -1.491024   -0.746274
     11          1           0       -6.773090    0.251866   -0.650308
     12          7           0       -2.401141   -1.152357   -0.139057
     13          8           0       -2.729020   -2.280108   -0.501426
     14          8           0       -1.263151   -0.814022    0.178976
     15          6           0        1.948517   -1.719614    0.928304
     16          6           0        2.504026   -0.776210    1.798891
     17          6           0        3.439271    0.153742    1.335153
     18          6           0        3.797889    0.111583   -0.011290
     19          6           0        3.262231   -0.816062   -0.903385
     20          6           0        2.328723   -1.736499   -0.417683
     21          1           0        1.222671   -2.438326    1.297078
     22          1           0        2.210620   -0.760753    2.844701
     23          1           0        3.885041    0.894938    1.987330
     24          1           0        3.574390   -0.806780   -1.940636
     25          1           0        1.898955   -2.468021   -1.096077
     26          7           0        4.787072    1.091045   -0.513854
     27          8           0        5.086402    1.033056   -1.704516
     28          8           0        5.244333    1.898189    0.292414
 ---------------------------------------------------------------------

 SCF Done:  E(RHF) =  -868.339686012     A.U. after   16 cycles
 E2 =    -0.2598928987D+01 EUMP2 =    -0.87093861499899D+03

 The electronic state is 1-A.
 Alpha  occ. eigenvalues --  -20.61600 -20.61593 -20.59967 -20.59957 -15.86618
 Alpha  occ. eigenvalues --  -15.85012 -11.31734 -11.30064 -11.28277 -11.28263
 Alpha  occ. eigenvalues --  -11.27967 -11.27233 -11.27216 -11.26686 -11.26610
 Alpha  occ. eigenvalues --  -11.26159 -11.25553 -11.25422  -1.60676  -1.59050
 Alpha  occ. eigenvalues --   -1.40231  -1.38612  -1.19885  -1.18207  -1.09330
 Alpha  occ. eigenvalues --   -1.07610  -1.05247  -1.03587  -0.96208  -0.94506
 Alpha  occ. eigenvalues --   -0.86657  -0.84974  -0.83043  -0.81375  -0.78118
 Alpha  occ. eigenvalues --   -0.76498  -0.72866  -0.71977  -0.71237  -0.70986
 Alpha  occ. eigenvalues --   -0.70374  -0.69227  -0.65538  -0.65246  -0.63847
 Alpha  occ. eigenvalues --   -0.63577  -0.62595  -0.60967  -0.55758  -0.53968
 Alpha  occ. eigenvalues --   -0.53592  -0.53333  -0.51908  -0.51675  -0.49623
 Alpha  occ. eigenvalues --   -0.49591  -0.48008  -0.47963  -0.45688  -0.44090
 Alpha  occ. eigenvalues --   -0.37851  -0.36840  -0.36023  -0.35204
 Alpha virt. eigenvalues --    0.04385   0.06066   0.10818   0.12484   0.15936
 Alpha virt. eigenvalues --    0.17679   0.21003   0.22670   0.26927   0.27879
 Alpha virt. eigenvalues --    0.28440   0.29620   0.30595   0.32072   0.32294

 Mulliken charges:
               1
     1  C   -0.169860
     2  C   -0.218560
     3  C   -0.170925
     4  C    0.157114
     5  C   -0.170589
     6  C   -0.218608
     7  H    0.227734
     8  H    0.225878
     9  H    0.276727
    10  H    0.275639
    11  H    0.224991
    12  N    0.490568
    13  O   -0.461892
    14  O   -0.466663
    15  C   -0.150522
    16  C   -0.222915
    17  C   -0.173397
    18  C    0.155844
    19  C   -0.173650
    20  C   -0.215068
    21  H    0.232909
    22  H    0.218232
    23  H    0.270083
    24  H    0.271486
    25  H    0.225901
    26  N    0.488277
    27  O   -0.463661
    28  O   -0.465076
 Sum of Mulliken charges =  -0.00000

 Dipole moment (field-independent basis, Debye):
    X=             -7.7621    Y=              0.0398    Z=              1.9711  Tot=              8.0086
 Quadrupole moment (field-independent basis, Debye-Ang):
   XX=           -105.3510   YY=           -104.0098   ZZ=           -101.3848
   XY=            -23.9760   XZ=              7.9528   YZ=              3.1862

 Normal termination of Gaussian 16 at Fri May  7 03:32:36 2021.
