 Gaussian 16, Revision A.03,
 Gaussian 16:  EM64L-G16RevA.03 25-Dec-2016

 -------------
 #p 6-31g* mp2
 -------------

 ------------------------------------------------------
 Input file generated by CHIRIPA (05-May-2021 14:57:23)
 ------------------------------------------------------
 Symbolic Z-matrix:
 Charge =  0 Multiplicity = 1

                         Standard orientation:
 ---------------------------------------------------------------------
 Center     Atomic      Atomic             Coordinates (Angstroms)
 Number     Number       Type             X           Y           Z
 ---------------------------------------------------------------------
      1          6           0       -4.351224    1.503671    0.924963
      2          6           0       -3.511462    0.767749    1.767424
      3          6           0       -2.636171   -0.186453    1.240250
      4          6           0       -2.626713   -0.379852   -0.140256
      5          6           0       -3.451153    0.337539   -1.005669
      6          6           0       -4.318447    1.286600   -0.456459
      7          1           0       -5.028065    2.242922    1.343044
      8          1           0       -3.534771    0.934214    2.840639
      9          1           0       -1.975258   -0.770144    1.869470
     10          1           0       -3.405309    0.149306   -2.071448
     11          1           0       -4.969486    1.856663   -1.113133
     12          7           0       -1.704314   -1.387302   -0.710016
     13          8           0       -1.715069   -1.538864   -1.929667
     14          8           0       -0.988049   -2.006302    0.073847
     15          6           0        2.610721   -2.180985    0.822653
     16          6           0        2.377073   -1.862028   -0.519061
     17          6           0        2.467390   -0.538530   -0.960359
     18          6           0        2.794978    0.445332   -0.028697
     19          6           0        3.033468    0.159222    1.314639
     20          6           0        2.937596   -1.171123    1.733614
     21          1           0        2.538403   -3.211769    1.156793
     22          1           0        2.123040   -2.644239   -1.228750
     23          1           0        2.291536   -0.263654   -1.993285
     24          1           0        3.284835    0.960690    1.998657
     25          1           0        3.119578   -1.415900    2.776214
     26          7           0        2.893533    1.850084   -0.484063
     27          8           0        3.183713    2.698528    0.356517
     28          8           0        2.678733    2.076086   -1.672937
 ---------------------------------------------------------------------

 SCF Done:  E(RHF) =  -868.339313109     A.U. after   16 cycles
 E2 =    -0.2599975511D+01 EUMP2 =    -0.87093928862054D+03

 The electronic state is 1-A.
 Alpha  occ. eigenvalues --  -20.61207 -20.61179 -20.60145 -20.60130 -15.86210
 Alpha  occ. eigenvalues --  -15.85180 -11.31362 -11.30272 -11.27926 -11.27892
 Alpha  occ. eigenvalues --  -11.27610 -11.26887 -11.26857 -11.26846 -11.26672
 Alpha  occ. eigenvalues --  -11.26408 -11.25839 -11.25595  -1.60260  -1.59223
 Alpha  occ. eigenvalues --   -1.39819  -1.38783  -1.19515  -1.18386  -1.08953
 Alpha  occ. eigenvalues --   -1.07824  -1.04888  -1.03740  -0.95828  -0.94717
 Alpha  occ. eigenvalues --   -0.86298  -0.85153  -0.82670  -0.81561  -0.77742
 Alpha  occ. eigenvalues --   -0.76654  -0.72467  -0.71563  -0.71406  -0.70627
 Alpha  occ. eigenvalues --   -0.70546  -0.69489  -0.65176  -0.64896  -0.64036
 Alpha  occ. eigenvalues --   -0.63739  -0.62244  -0.61104  -0.55401  -0.54241
 Alpha  occ. eigenvalues --   -0.53226  -0.52984  -0.52095  -0.51833  -0.49228
 Alpha  occ. eigenvalues --   -0.49196  -0.48175  -0.48136  -0.45265  -0.44250
 Alpha  occ. eigenvalues --   -0.37485  -0.36479  -0.36291  -0.35271
 Alpha virt. eigenvalues --    0.04775   0.05850   0.11181   0.12358   0.16333
 Alpha virt. eigenvalues --    0.17452   0.21321   0.22434   0.27230   0.28189
 Alpha virt. eigenvalues --    0.28375   0.29272   0.30889   0.31986   0.32383

 Mulliken charges:
               1
     1  C   -0.169502
     2  C   -0.217979
     3  C   -0.170011
     4  C    0.158488
     5  C   -0.169472
     6  C   -0.217918
     7  H    0.227001
     8  H    0.223654
     9  H    0.273398
    10  H    0.276189
    11  H    0.225054
    12  N    0.489007
    13  O   -0.462704
    14  O   -0.464157
    15  C   -0.164834
    16  C   -0.198864
    17  C   -0.176925
    18  C    0.156453
    19  C   -0.175281
    20  C   -0.220614
    21  H    0.224796
    22  H    0.230485
    23  H    0.275405
    24  H    0.269942
    25  H    0.217842
    26  N    0.487871
    27  O   -0.465219
    28  O   -0.462104
 Sum of Mulliken charges =  -0.00000

 Dipole moment (field-independent basis, Debye):
    X=             -3.8818    Y=             -1.6239    Z=              3.4813  Tot=              5.4612
 Quadrupole moment (field-independent basis, Debye-Ang):
   XX=            -90.6014   YY=           -112.3905   ZZ=            -97.2823
   XY=            -23.4289   XZ=              2.2317   YZ=              0.1399

 Normal termination of Gaussian 16 at Fri May  7 00:19:27 2021.
