 Gaussian 16, Revision A.03,
 Gaussian 16:  EM64L-G16RevA.03 25-Dec-2016

 -------------
 #p 6-31g* mp2
 -------------

 ------------------------------------------------------
 Input file generated by CHIRIPA (05-May-2021 14:51:09)
 ------------------------------------------------------
 Symbolic Z-matrix:
 Charge =  0 Multiplicity = 1

                         Standard orientation:
 ---------------------------------------------------------------------
 Center     Atomic      Atomic             Coordinates (Angstroms)
 Number     Number       Type             X           Y           Z
 ---------------------------------------------------------------------
      1          6           0       -4.174395    0.338632    0.332094
      2          6           0       -5.179351    0.517297   -0.806381
      3          6           0       -6.343037    1.434547   -0.429178
      4          1           0       -4.693743   -0.067971    1.210670
      5          1           0       -3.785747    1.323297    0.626685
      6          1           0       -5.564955   -0.467542   -1.099668
      7          1           0       -4.657513    0.923342   -1.682410
      8          1           0       -5.976569    2.429531   -0.156579
      9          1           0       -6.889167    1.030743    0.429475
     10          1           0       -7.049334    1.548320   -1.257466
     11          6           0       -3.005298   -0.575708   -0.029738
     12          6           0       -2.000341   -0.754373    1.108737
     13          6           0       -0.836655   -1.671623    0.731535
     14          1           0       -3.393946   -1.560373   -0.324328
     15          1           0       -2.485949   -0.169105   -0.908314
     16          1           0       -2.522180   -1.160419    1.984767
     17          1           0       -1.614738    0.230466    1.402024
     18          1           0       -0.290525   -1.267819   -0.127118
     19          1           0       -1.203123   -2.666607    0.458935
     20          1           0       -0.130358   -1.785397    1.559822
     21          6           0        3.904593    0.761085   -0.418573
     22          6           0        3.790114    1.940253    0.548093
     23          6           0        4.424404    3.218523   -0.000995
     24          1           0        4.964921    0.579489   -0.641445
     25          1           0        3.426433    1.028944   -1.370944
     26          1           0        4.267132    1.669745    1.498827
     27          1           0        2.729945    2.118941    0.768839
     28          1           0        3.943064    3.515499   -0.938395
     29          1           0        5.488983    3.063750   -0.204259
     30          1           0        4.331214    4.048705    0.706093
     31          6           0        3.275099   -0.524008    0.116217
     32          6           0        3.389578   -1.703177   -0.850449
     33          6           0        2.755288   -2.981447   -0.301362
     34          1           0        3.753259   -0.791869    1.068587
     35          1           0        2.214771   -0.342413    0.339089
     36          1           0        4.449747   -1.881865   -1.071195
     37          1           0        2.912561   -1.432669   -1.801183
     38          1           0        1.690709   -2.826674   -0.098097
     39          1           0        3.236629   -3.278423    0.636038
     40          1           0        2.848478   -3.811629   -1.008449
 ---------------------------------------------------------------------

 SCF Done:  E(RHF) =  -470.732806658     A.U. after   11 cycles
 E2 =    -0.1583155135D+01 EUMP2 =    -0.47231596179270D+03

 The electronic state is 1-A.
 Alpha  occ. eigenvalues --  -11.21669 -11.21635 -11.21585 -11.21514 -11.21457
 Alpha  occ. eigenvalues --  -11.21395 -11.21352 -11.21275 -11.21167 -11.21097
 Alpha  occ. eigenvalues --  -11.21062 -11.20869  -1.08487  -1.08372  -1.03603
 Alpha  occ. eigenvalues --   -1.03455  -0.96063  -0.95896  -0.87098  -0.86905
 Alpha  occ. eigenvalues --   -0.79721  -0.79480  -0.78305  -0.78172  -0.65150
 Alpha  occ. eigenvalues --   -0.64985  -0.61061  -0.60813  -0.59444  -0.59248
 Alpha  occ. eigenvalues --   -0.57655  -0.57521  -0.55338  -0.55214  -0.52807
 Alpha  occ. eigenvalues --   -0.52599  -0.52495  -0.52265  -0.50009  -0.49845
 Alpha  occ. eigenvalues --   -0.48006  -0.47807  -0.46753  -0.46516  -0.45881
 Alpha  occ. eigenvalues --   -0.45771  -0.45701  -0.45540  -0.43801  -0.43715
 Alpha virt. eigenvalues --    0.21394   0.23054   0.23723   0.24693   0.26281
 Alpha virt. eigenvalues --    0.26588   0.27166   0.27481   0.27876   0.29304
 Alpha virt. eigenvalues --    0.30776   0.30955   0.31439   0.31849   0.32356

 Mulliken charges:
               1
     1  C   -0.298363
     2  C   -0.299659
     3  C   -0.475740
     4  H    0.149845
     5  H    0.149565
     6  H    0.152033
     7  H    0.151921
     8  H    0.155224
     9  H    0.155263
    10  H    0.160375
    11  C   -0.298602
    12  C   -0.300988
    13  C   -0.479849
    14  H    0.149790
    15  H    0.149526
    16  H    0.152489
    17  H    0.152057
    18  H    0.156330
    19  H    0.156151
    20  H    0.163028
    21  C   -0.297993
    22  C   -0.299479
    23  C   -0.475643
    24  H    0.149618
    25  H    0.148934
    26  H    0.151936
    27  H    0.151419
    28  H    0.154992
    29  H    0.155248
    30  H    0.160099
    31  C   -0.302987
    32  C   -0.298724
    33  C   -0.485547
    34  H    0.149026
    35  H    0.154427
    36  H    0.151463
    37  H    0.150654
    38  H    0.169279
    39  H    0.153810
    40  H    0.159071
 Sum of Mulliken charges =  -0.00000

 Dipole moment (field-independent basis, Debye):
    X=             -0.0741    Y=             -0.0116    Z=              0.0251  Tot=              0.0791
 Quadrupole moment (field-independent basis, Debye-Ang):
   XX=            -84.8802   YY=            -85.5312   ZZ=            -84.5923
   XY=              0.4708   XZ=              0.4575   YZ=             -0.2648

 Normal termination of Gaussian 16 at Thu May  6 00:34:57 2021.
