 Gaussian 16, Revision A.03,
 Gaussian 16:  EM64L-G16RevA.03 25-Dec-2016

 -------------
 #p 6-31g* mp2
 -------------

 ------------------------------------------------------
 Input file generated by CHIRIPA (05-May-2021 14:53:15)
 ------------------------------------------------------
 Symbolic Z-matrix:
 Charge =  0 Multiplicity = 1

                         Standard orientation:
 ---------------------------------------------------------------------
 Center     Atomic      Atomic             Coordinates (Angstroms)
 Number     Number       Type             X           Y           Z
 ---------------------------------------------------------------------
      1          6           0       -3.301132    1.046080    0.449489
      2          6           0       -1.869703    1.436463    0.819079
      3          6           0       -1.756241    2.884941    1.295348
      4          1           0       -3.667505    1.721501   -0.335700
      5          1           0       -3.952077    1.198353    1.321544
      6          1           0       -1.221403    1.282187   -0.053000
      7          1           0       -1.506628    0.759912    1.603344
      8          1           0       -2.379494    3.049439    2.180276
      9          1           0       -2.092647    3.574681    0.514521
     10          1           0       -0.724576    3.142763    1.554298
     11          6           0       -3.430717   -0.399069   -0.028507
     12          6           0       -4.862146   -0.789453   -0.398097
     13          6           0       -4.975608   -2.237931   -0.874366
     14          1           0       -2.779773   -0.551343   -0.900562
     15          1           0       -3.064345   -1.074491    0.756682
     16          1           0       -5.225221   -0.112902   -1.182362
     17          1           0       -5.510447   -0.635177    0.473982
     18          1           0       -4.639202   -2.927671   -0.093539
     19          1           0       -4.352356   -2.402429   -1.759294
     20          1           0       -6.007273   -2.495753   -1.133317
     21          6           0        2.832703   -2.583598    0.779893
     22          6           0        3.963508   -1.765800    0.684993
     23          6           0        3.862751   -0.472609    0.163404
     24          6           0        2.609996   -0.027399   -0.255741
     25          6           0        1.464933   -0.818256   -0.174099
     26          6           0        1.589216   -2.108055    0.350800
     27          1           0        2.920111   -3.586863    1.186362
     28          1           0        4.930496   -2.132469    1.017459
     29          1           0        4.721934    0.181625    0.078545
     30          1           0        0.514477   -0.424882   -0.513674
     31          1           0        0.709315   -2.740954    0.423307
     32          7           0        2.490876    1.339848   -0.809676
     33          8           0        1.375811    1.708558   -1.172058
     34          8           0        3.514830    2.016898   -0.870981
 ---------------------------------------------------------------------

 SCF Done:  E(RHF) =  -669.535927272     A.U. after   15 cycles
 E2 =    -0.2092191355D+01 EUMP2 =    -0.67162811862684D+03

 The electronic state is 1-A.
 Alpha  occ. eigenvalues --  -20.60865 -20.60859 -15.85899 -11.31192 -11.27768
 Alpha  occ. eigenvalues --  -11.27726 -11.27504 -11.26772 -11.26747 -11.21729
 Alpha  occ. eigenvalues --  -11.21561 -11.21276 -11.21257 -11.21196 -11.20515
 Alpha  occ. eigenvalues --   -1.59928  -1.39485  -1.19366  -1.08777  -1.08395
 Alpha  occ. eigenvalues --   -1.04758  -1.03400  -0.95862  -0.95620  -0.86879
 Alpha  occ. eigenvalues --   -0.86163  -0.82457  -0.79520  -0.78260  -0.77472
 Alpha  occ. eigenvalues --   -0.72127  -0.71241  -0.70480  -0.65071  -0.64988
 Alpha  occ. eigenvalues --   -0.64750  -0.62121  -0.60772  -0.59250  -0.57464
 Alpha  occ. eigenvalues --   -0.55273  -0.55153  -0.53094  -0.52871  -0.52514
 Alpha  occ. eigenvalues --   -0.52287  -0.49812  -0.48918  -0.48872  -0.47796
 Alpha  occ. eigenvalues --   -0.46538  -0.45749  -0.45637  -0.44840  -0.43676
 Alpha  occ. eigenvalues --   -0.37351  -0.36353
 Alpha virt. eigenvalues --    0.04996   0.11275   0.16489   0.20631   0.22993
 Alpha virt. eigenvalues --    0.24374   0.25132   0.26564   0.27833   0.28094
 Alpha virt. eigenvalues --    0.29826   0.30561   0.31550   0.31667   0.32366

 Mulliken charges:
               1
     1  C   -0.297237
     2  C   -0.314822
     3  C   -0.472473
     4  H    0.152851
     5  H    0.148702
     6  H    0.171927
     7  H    0.143753
     8  H    0.150200
     9  H    0.158643
    10  H    0.165452
    11  C   -0.299304
    12  C   -0.299183
    13  C   -0.475880
    14  H    0.146016
    15  H    0.143839
    16  H    0.154604
    17  H    0.152942
    18  H    0.152344
    19  H    0.154454
    20  H    0.161544
    21  C   -0.170358
    22  C   -0.218977
    23  C   -0.170443
    24  C    0.155726
    25  C   -0.170324
    26  C   -0.221548
    27  H    0.225632
    28  H    0.223380
    29  H    0.275426
    30  H    0.282159
    31  H    0.224609
    32  N    0.489774
    33  O   -0.463915
    34  O   -0.459512
 Sum of Mulliken charges =  -0.00000

 Dipole moment (field-independent basis, Debye):
    X=              0.4750    Y=             -4.6789    Z=              1.8796  Tot=              5.0646
 Quadrupole moment (field-independent basis, Debye-Ang):
   XX=            -87.7546   YY=            -95.7246   ZZ=            -95.8932
   XY=            -12.3510   XZ=              5.8538   YZ=              0.4487

 Normal termination of Gaussian 16 at Thu May  6 05:52:04 2021.
