 Gaussian 16, Revision A.03,
 Gaussian 16:  EM64L-G16RevA.03 25-Dec-2016

 -------------
 #p 6-31g* mp2
 -------------

 ------------------------------------------------------
 Input file generated by CHIRIPA (05-May-2021 14:57:26)
 ------------------------------------------------------
 Symbolic Z-matrix:
 Charge =  0 Multiplicity = 1

                         Standard orientation:
 ---------------------------------------------------------------------
 Center     Atomic      Atomic             Coordinates (Angstroms)
 Number     Number       Type             X           Y           Z
 ---------------------------------------------------------------------
      1          6           0       -3.471393    1.593115    1.070862
      2          6           0       -2.884631    0.579374    1.835429
      3          6           0       -2.226900   -0.487189    1.215445
      4          6           0       -2.174649   -0.508433   -0.177432
      5          6           0       -2.749447    0.486539   -0.966689
      6          6           0       -3.402051    1.543549   -0.325295
      7          1           0       -3.980343    2.417936    1.560797
      8          1           0       -2.936926    0.615265    2.919874
      9          1           0       -1.763994   -1.285266    1.783081
     10          1           0       -2.680909    0.423338   -2.045914
     11          1           0       -3.856831    2.329442   -0.921611
     12          7           0       -1.481053   -1.632500   -0.845114
     13          8           0       -1.448873   -1.628063   -2.073765
     14          8           0       -0.982725   -2.496695   -0.127151
     15          6           0        2.493903   -1.989588    1.054839
     16          6           0        2.508881   -0.867881    1.890344
     17          6           0        2.396037    0.418343    1.354207
     18          6           0        2.269150    0.546763   -0.028073
     19          6           0        2.250943   -0.551286   -0.886704
     20          6           0        2.365209   -1.827995   -0.328580
     21          1           0        2.582116   -2.985063    1.479863
     22          1           0        2.608702   -0.990362    2.965090
     23          1           0        2.404734    1.303970    1.977912
     24          1           0        2.150136   -0.397439   -1.954218
     25          1           0        2.353274   -2.697321   -0.979867
     26          7           0        2.148933    1.903395   -0.607295
     27          8           0        2.038243    1.989727   -1.828332
     28          8           0        2.167677    2.854703    0.170715
 ---------------------------------------------------------------------

 SCF Done:  E(RHF) =  -868.339619025     A.U. after   16 cycles
 E2 =    -0.2601262166D+01 EUMP2 =    -0.87094088119155D+03

 The electronic state is 1-A.
 Alpha  occ. eigenvalues --  -20.61064 -20.61053 -20.60420 -20.60401 -15.86069
 Alpha  occ. eigenvalues --  -15.85457 -11.31211 -11.30610 -11.27797 -11.27718
 Alpha  occ. eigenvalues --  -11.27454 -11.27193 -11.26997 -11.26762 -11.26753
 Alpha  occ. eigenvalues --  -11.26675 -11.26190 -11.25939  -1.60121  -1.59496
 Alpha  occ. eigenvalues --   -1.39682  -1.39053  -1.19363  -1.18735  -1.08802
 Alpha  occ. eigenvalues --   -1.08157  -1.04733  -1.04089  -0.95679  -0.95036
 Alpha  occ. eigenvalues --   -0.86143  -0.85491  -0.82525  -0.81872  -0.77597
 Alpha  occ. eigenvalues --   -0.76958  -0.72331  -0.71679  -0.71441  -0.70813
 Alpha  occ. eigenvalues --   -0.70472  -0.69812  -0.65023  -0.64741  -0.64372
 Alpha  occ. eigenvalues --   -0.64071  -0.62089  -0.61434  -0.55245  -0.54574
 Alpha  occ. eigenvalues --   -0.53069  -0.52829  -0.52447  -0.52163  -0.49096
 Alpha  occ. eigenvalues --   -0.49062  -0.48445  -0.48417  -0.45140  -0.44508
 Alpha  occ. eigenvalues --   -0.37369  -0.36615  -0.36331  -0.35621
 Alpha virt. eigenvalues --    0.04903   0.05543   0.11338   0.12003   0.16476
 Alpha virt. eigenvalues --    0.17128   0.21464   0.22140   0.27373   0.28074
 Alpha virt. eigenvalues --    0.28352   0.28993   0.31016   0.31688   0.32524

 Mulliken charges:
               1
     1  C   -0.168756
     2  C   -0.218619
     3  C   -0.169864
     4  C    0.157129
     5  C   -0.168830
     6  C   -0.216864
     7  H    0.227017
     8  H    0.222016
     9  H    0.271729
    10  H    0.277498
    11  H    0.226273
    12  N    0.488905
    13  O   -0.461852
    14  O   -0.464899
    15  C   -0.165853
    16  C   -0.222294
    17  C   -0.174512
    18  C    0.155878
    19  C   -0.179489
    20  C   -0.202561
    21  H    0.226049
    22  H    0.218548
    23  H    0.270593
    24  H    0.278705
    25  H    0.231817
    26  N    0.488149
    27  O   -0.460906
    28  O   -0.465008
 Sum of Mulliken charges =  -0.00000

 Dipole moment (field-independent basis, Debye):
    X=             -2.1526    Y=             -0.9925    Z=              4.2159  Tot=              4.8366
 Quadrupole moment (field-independent basis, Debye-Ang):
   XX=            -93.4337   YY=           -113.3587   ZZ=            -97.9841
   XY=            -19.6922   XZ=              1.0531   YZ=             -0.5407

 Normal termination of Gaussian 16 at Fri May  7 09:42:39 2021.
