 Gaussian 16, Revision A.03,
 Gaussian 16:  EM64L-G16RevA.03 25-Dec-2016

 -------------
 #p 6-31g* mp2
 -------------

 ------------------------------------------------------
 Input file generated by CHIRIPA (05-May-2021 14:51:09)
 ------------------------------------------------------
 Symbolic Z-matrix:
 Charge =  0 Multiplicity = 1

                         Standard orientation:
 ---------------------------------------------------------------------
 Center     Atomic      Atomic             Coordinates (Angstroms)
 Number     Number       Type             X           Y           Z
 ---------------------------------------------------------------------
      1          6           0       -3.300630   -0.512280   -0.096490
      2          6           0       -3.540467    0.981608   -0.317311
      3          6           0       -4.978862    1.294652   -0.730611
      4          1           0       -3.545382   -1.056714   -1.018788
      5          1           0       -3.992544   -0.877508    0.675040
      6          1           0       -2.847361    1.344206   -1.087209
      7          1           0       -3.294934    1.522569    0.605559
      8          1           0       -5.682232    0.960186    0.038807
      9          1           0       -5.232117    0.780809   -1.663579
     10          1           0       -5.128151    2.368101   -0.883191
     11          6           0       -1.867270   -0.841090    0.317140
     12          6           0       -1.627432   -2.334977    0.537962
     13          6           0       -0.189037   -2.648022    0.951262
     14          1           0       -1.175355   -0.475862   -0.454390
     15          1           0       -1.622518   -0.296655    1.239438
     16          1           0       -1.872966   -2.875939   -0.384909
     17          1           0       -2.320538   -2.697575    1.307860
     18          1           0        0.064217   -2.134179    1.884230
     19          1           0        0.514332   -2.313556    0.181843
     20          1           0       -0.039749   -3.721470    1.103841
     21          6           0        2.436967   -0.072787   -0.121237
     22          6           0        3.577141   -0.905831   -0.707773
     23          6           0        3.268157   -2.403195   -0.722820
     24          1           0        2.229065   -0.416026    0.901460
     25          1           0        1.522853   -0.253661   -0.703540
     26          1           0        4.489167   -0.722385   -0.125388
     27          1           0        3.782481   -0.560443   -1.729125
     28          1           0        2.373410   -2.605930   -1.320253
     29          1           0        3.084111   -2.768792    0.292595
     30          1           0        4.096538   -2.979824   -1.146072
     31          6           0        2.730932    1.426157   -0.099414
     32          6           0        1.590758    2.259201    0.487123
     33          6           0        1.899743    3.756565    0.502170
     34          1           0        3.645046    1.607029    0.482889
     35          1           0        2.938834    1.769396   -1.122110
     36          1           0        1.385419    1.913813    1.508474
     37          1           0        0.678733    2.075754   -0.095262
     38          1           0        2.083789    4.122161   -0.513245
     39          1           0        2.794491    3.959300    1.099603
     40          1           0        1.071361    4.333194    0.925422
 ---------------------------------------------------------------------

 SCF Done:  E(RHF) =  -470.731300514     A.U. after   11 cycles
 E2 =    -0.1585228488D+01 EUMP2 =    -0.47231652900170D+03

 The electronic state is 1-A.
 Alpha  occ. eigenvalues --  -11.21597 -11.21596 -11.21564 -11.21508 -11.21369
 Alpha  occ. eigenvalues --  -11.21369 -11.21307 -11.21304 -11.21067 -11.21049
 Alpha  occ. eigenvalues --  -11.21049 -11.20814  -1.08453  -1.08354  -1.03562
 Alpha  occ. eigenvalues --   -1.03433  -0.95986  -0.95901  -0.87007  -0.86924
 Alpha  occ. eigenvalues --   -0.79745  -0.79429  -0.78443  -0.77962  -0.65148
 Alpha  occ. eigenvalues --   -0.64932  -0.60989  -0.60833  -0.59405  -0.59265
 Alpha  occ. eigenvalues --   -0.57613  -0.57509  -0.55280  -0.55180  -0.52678
 Alpha  occ. eigenvalues --   -0.52661  -0.52367  -0.52337  -0.49941  -0.49868
 Alpha  occ. eigenvalues --   -0.48192  -0.47632  -0.46750  -0.46557  -0.46165
 Alpha  occ. eigenvalues --   -0.45821  -0.45532  -0.44923  -0.43762  -0.43724
 Alpha virt. eigenvalues --    0.21104   0.23092   0.23484   0.24251   0.24788
 Alpha virt. eigenvalues --    0.26037   0.27137   0.27550   0.28637   0.30064
 Alpha virt. eigenvalues --    0.30394   0.31327   0.31724   0.31960   0.32446

 Mulliken charges:
               1
     1  C   -0.298147
     2  C   -0.299636
     3  C   -0.475655
     4  H    0.149290
     5  H    0.149653
     6  H    0.151186
     7  H    0.152249
     8  H    0.155274
     9  H    0.155098
    10  H    0.160185
    11  C   -0.301055
    12  C   -0.300063
    13  C   -0.482997
    14  H    0.151404
    15  H    0.150349
    16  H    0.150781
    17  H    0.151056
    18  H    0.152744
    19  H    0.169605
    20  H    0.158261
    21  C   -0.304423
    22  C   -0.298670
    23  C   -0.479680
    24  H    0.153650
    25  H    0.151583
    26  H    0.151955
    27  H    0.151421
    28  H    0.154714
    29  H    0.159321
    30  H    0.160699
    31  C   -0.297794
    32  C   -0.300477
    33  C   -0.475730
    34  H    0.149322
    35  H    0.149046
    36  H    0.151601
    37  H    0.153642
    38  H    0.154979
    39  H    0.155020
    40  H    0.160238
 Sum of Mulliken charges =  -0.00000

 Dipole moment (field-independent basis, Debye):
    X=              0.0464    Y=             -0.0025    Z=              0.0038  Tot=              0.0466
 Quadrupole moment (field-independent basis, Debye-Ang):
   XX=            -85.6349   YY=            -86.2882   ZZ=            -83.0696
   XY=              0.0771   XZ=             -0.1184   YZ=              0.0995

 Normal termination of Gaussian 16 at Thu May  6 02:09:53 2021.
