 Gaussian 16, Revision A.03,
 Gaussian 16:  EM64L-G16RevA.03 25-Dec-2016

 -------------
 #p 6-31g* mp2
 -------------

 ------------------------------------------------------
 Input file generated by CHIRIPA (05-May-2021 14:57:21)
 ------------------------------------------------------
 Symbolic Z-matrix:
 Charge =  0 Multiplicity = 1

                         Standard orientation:
 ---------------------------------------------------------------------
 Center     Atomic      Atomic             Coordinates (Angstroms)
 Number     Number       Type             X           Y           Z
 ---------------------------------------------------------------------
      1          6           0       -2.355227    2.135649    1.139454
      2          6           0       -2.371384    2.060881   -0.257210
      3          6           0       -2.626966    0.846112   -0.900298
      4          6           0       -2.863294   -0.279205   -0.112199
      5          6           0       -2.853943   -0.236805    1.281144
      6          6           0       -2.596133    0.988589    1.902827
      7          1           0       -2.155819    3.083438    1.630706
      8          1           0       -2.184634    2.950082   -0.852602
      9          1           0       -2.645427    0.759912   -1.979949
     10          1           0       -3.043703   -1.140285    1.847830
     11          1           0       -2.584209    1.043687    2.987662
     12          7           0       -3.135047   -1.570851   -0.781678
     13          8           0       -3.340213   -2.547837   -0.064710
     14          8           0       -3.137735   -1.581800   -2.010706
     15          6           0        3.810890   -2.169358    0.620578
     16          6           0        4.520233   -1.293870   -0.208201
     17          6           0        3.980125   -0.052582   -0.557534
     18          6           0        2.722566    0.282464   -0.057954
     19          6           0        1.991273   -0.568084    0.769734
     20          6           0        2.550895   -1.804314    1.106044
     21          1           0        4.238038   -3.131657    0.886891
     22          1           0        5.498964   -1.574718   -0.586691
     23          1           0        4.507605    0.644359   -1.197421
     24          1           0        1.017764   -0.260194    1.131538
     25          1           0        1.997739   -2.482221    1.749866
     26          7           0        2.140449    1.593884   -0.420884
     27          8           0        1.030731    1.865481    0.032327
     28          8           0        2.804924    2.325344   -1.151688
 ---------------------------------------------------------------------

 SCF Done:  E(RHF) =  -868.339237760     A.U. after   16 cycles
 E2 =    -0.2600203226D+01 EUMP2 =    -0.87093944098618D+03

 The electronic state is 1-A.
 Alpha  occ. eigenvalues --  -20.61121 -20.61106 -20.60465 -20.60440 -15.86145
 Alpha  occ. eigenvalues --  -15.85500 -11.31322 -11.30626 -11.27875 -11.27853
 Alpha  occ. eigenvalues --  -11.27572 -11.27238 -11.27050 -11.26846 -11.26822
 Alpha  occ. eigenvalues --  -11.26749 -11.26198 -11.25947  -1.60193  -1.59539
 Alpha  occ. eigenvalues --   -1.39750  -1.39099  -1.19477  -1.18747  -1.08910
 Alpha  occ. eigenvalues --   -1.08164  -1.04850  -1.04114  -0.95779  -0.95053
 Alpha  occ. eigenvalues --   -0.86257  -0.85515  -0.82617  -0.81902  -0.77686
 Alpha  occ. eigenvalues --   -0.77000  -0.72399  -0.71721  -0.71503  -0.70866
 Alpha  occ. eigenvalues --   -0.70582  -0.69827  -0.65134  -0.64851  -0.64393
 Alpha  occ. eigenvalues --   -0.64104  -0.62201  -0.61482  -0.55358  -0.54573
 Alpha  occ. eigenvalues --   -0.53190  -0.52951  -0.52416  -0.52201  -0.49150
 Alpha  occ. eigenvalues --   -0.49127  -0.48492  -0.48454  -0.45202  -0.44558
 Alpha  occ. eigenvalues --   -0.37447  -0.36631  -0.36439  -0.35666
 Alpha virt. eigenvalues --    0.04803   0.05541   0.11212   0.11980   0.16328
 Alpha virt. eigenvalues --    0.17166   0.21338   0.22102   0.27215   0.27990
 Alpha virt. eigenvalues --    0.28151   0.28969   0.30864   0.31666   0.32243

 Mulliken charges:
               1
     1  C   -0.161315
     2  C   -0.199899
     3  C   -0.172503
     4  C    0.156032
     5  C   -0.179551
     6  C   -0.222698
     7  H    0.227492
     8  H    0.228812
     9  H    0.274219
    10  H    0.269955
    11  H    0.219444
    12  N    0.487893
    13  O   -0.465715
    14  O   -0.460704
    15  C   -0.169776
    16  C   -0.218469
    17  C   -0.170679
    18  C    0.157512
    19  C   -0.171945
    20  C   -0.217825
    21  H    0.227099
    22  H    0.224088
    23  H    0.275174
    24  H    0.275540
    25  H    0.225520
    26  N    0.490772
    27  O   -0.467538
    28  O   -0.460938
 Sum of Mulliken charges =  -0.00000

 Dipole moment (field-independent basis, Debye):
    X=              3.1829    Y=              0.2016    Z=              3.5418  Tot=              4.7661
 Quadrupole moment (field-independent basis, Debye-Ang):
   XX=            -97.2088   YY=           -109.3718   ZZ=           -100.9803
   XY=            -25.4533   XZ=             -6.2695   YZ=             -3.5457

 Normal termination of Gaussian 16 at Wed May  5 16:13:55 2021.
