 Gaussian 16, Revision A.03,
 Gaussian 16:  EM64L-G16RevA.03 25-Dec-2016

 -------------
 #p 6-31g* mp2
 -------------

 ------------------------------------------------------
 Input file generated by CHIRIPA (05-May-2021 14:51:09)
 ------------------------------------------------------
 Symbolic Z-matrix:
 Charge =  0 Multiplicity = 1

                         Standard orientation:
 ---------------------------------------------------------------------
 Center     Atomic      Atomic             Coordinates (Angstroms)
 Number     Number       Type             X           Y           Z
 ---------------------------------------------------------------------
      1          6           0        3.232686    0.416781   -0.816741
      2          6           0        2.518246    1.655408   -0.275112
      3          6           0        1.800367    2.448730   -1.367396
      4          1           0        3.956290    0.724788   -1.583861
      5          1           0        2.500286   -0.229849   -1.319587
      6          1           0        3.251538    2.298844    0.227769
      7          1           0        1.796395    1.344435    0.490945
      8          1           0        1.047864    1.827240   -1.863471
      9          1           0        2.511275    2.787072   -2.128143
     10          1           0        1.296432    3.329896   -0.958182
     11          6           0        3.955008   -0.386703    0.263256
     12          6           0        4.669449   -1.625331   -0.278373
     13          6           0        5.387328   -2.418652    0.813912
     14          1           0        4.687408    0.259927    0.766102
     15          1           0        3.231404   -0.694711    1.030377
     16          1           0        5.391300   -1.314357   -1.044429
     17          1           0        3.936157   -2.268767   -0.781253
     18          1           0        4.676420   -2.756994    1.574658
     19          1           0        6.139831   -1.797163    1.309987
     20          1           0        5.891262   -3.299818    0.404698
     21          6           0       -3.853257   -0.562610   -0.188343
     22          6           0       -5.344104   -0.852494   -0.011357
     23          6           0       -5.848234   -1.950231   -0.948705
     24          1           0       -3.663936   -0.272104   -1.230797
     25          1           0       -3.283953   -1.485914   -0.012848
     26          1           0       -5.910327    0.071403   -0.185777
     27          1           0       -5.529927   -1.142158    1.030844
     28          1           0       -5.309130   -2.886340   -0.770754
     29          1           0       -5.691691   -1.665883   -1.994288
     30          1           0       -6.916315   -2.141311   -0.805350
     31          6           0       -3.334438    0.532533    0.741827
     32          6           0       -1.843590    0.822417    0.564841
     33          6           0       -1.339460    1.920153    1.502190
     34          1           0       -3.903741    1.455837    0.566332
     35          1           0       -3.523757    0.242027    1.784281
     36          1           0       -1.657767    1.112081   -0.477359
     37          1           0       -1.277368   -0.101480    0.739261
     38          1           0       -1.496003    1.635806    2.547772
     39          1           0       -1.878564    2.856263    1.324238
     40          1           0       -0.271379    2.111234    1.358834
 ---------------------------------------------------------------------

 SCF Done:  E(RHF) =  -470.733246945     A.U. after   11 cycles
 E2 =    -0.1582939294D+01 EUMP2 =    -0.47231618623893D+03

 The electronic state is 1-A.
 Alpha  occ. eigenvalues --  -11.21622 -11.21615 -11.21602 -11.21598 -11.21422
 Alpha  occ. eigenvalues --  -11.21404 -11.21362 -11.21345 -11.21083 -11.21074
 Alpha  occ. eigenvalues --  -11.21073 -11.21046  -1.08455  -1.08423  -1.03579
 Alpha  occ. eigenvalues --   -1.03497  -0.96029  -0.95943  -0.87007  -0.86997
 Alpha  occ. eigenvalues --   -0.79636  -0.79569  -0.78259  -0.78248  -0.65082
 Alpha  occ. eigenvalues --   -0.65068  -0.61016  -0.60925  -0.59515  -0.59193
 Alpha  occ. eigenvalues --   -0.57730  -0.57444  -0.55300  -0.55227  -0.52737
 Alpha  occ. eigenvalues --   -0.52625  -0.52426  -0.52386  -0.49941  -0.49910
 Alpha  occ. eigenvalues --   -0.47971  -0.47881  -0.46676  -0.46573  -0.45808
 Alpha  occ. eigenvalues --   -0.45779  -0.45736  -0.45679  -0.43799  -0.43760
 Alpha virt. eigenvalues --    0.20752   0.23129   0.23427   0.25300   0.26179
 Alpha virt. eigenvalues --    0.26410   0.26870   0.27525   0.27809   0.29052
 Alpha virt. eigenvalues --    0.30268   0.30779   0.31473   0.31782   0.32490

 Mulliken charges:
               1
     1  C   -0.297764
     2  C   -0.305996
     3  C   -0.476944
     4  H    0.149612
     5  H    0.149871
     6  H    0.151963
     7  H    0.157177
     8  H    0.156293
     9  H    0.155230
    10  H    0.160883
    11  C   -0.298416
    12  C   -0.299670
    13  C   -0.475703
    14  H    0.149547
    15  H    0.149614
    16  H    0.151972
    17  H    0.151953
    18  H    0.155115
    19  H    0.155207
    20  H    0.160258
    21  C   -0.298294
    22  C   -0.299667
    23  C   -0.475723
    24  H    0.149619
    25  H    0.149305
    26  H    0.152031
    27  H    0.151970
    28  H    0.155127
    29  H    0.155208
    30  H    0.160323
    31  C   -0.298224
    32  C   -0.300459
    33  C   -0.482958
    34  H    0.149789
    35  H    0.149713
    36  H    0.153337
    37  H    0.150882
    38  H    0.154863
    39  H    0.155259
    40  H    0.167697
 Sum of Mulliken charges =  -0.00000

 Dipole moment (field-independent basis, Debye):
    X=              0.0031    Y=              0.0081    Z=             -0.0069  Tot=              0.0111
 Quadrupole moment (field-independent basis, Debye-Ang):
   XX=            -84.6103   YY=            -85.0348   ZZ=            -85.1026
   XY=              0.3065   XZ=             -0.6568   YZ=             -0.6228

 Normal termination of Gaussian 16 at Thu May  6 00:32:55 2021.
