 Gaussian 16, Revision A.03,
 Gaussian 16:  EM64L-G16RevA.03 25-Dec-2016

 -------------
 #p 6-31g* mp2
 -------------

 ------------------------------------------------------
 Input file generated by CHIRIPA (05-May-2021 14:53:17)
 ------------------------------------------------------
 Symbolic Z-matrix:
 Charge =  0 Multiplicity = 1

                         Standard orientation:
 ---------------------------------------------------------------------
 Center     Atomic      Atomic             Coordinates (Angstroms)
 Number     Number       Type             X           Y           Z
 ---------------------------------------------------------------------
      1          6           0       -4.004357    0.362077    0.055948
      2          6           0       -4.096704   -1.164134    0.044255
      3          6           0       -5.509236   -1.673129    0.333171
      4          1           0       -4.337407    0.735735    1.033906
      5          1           0       -4.701677    0.770367   -0.688659
      6          1           0       -3.398411   -1.569476    0.787693
      7          1           0       -3.763213   -1.534213   -0.933724
      8          1           0       -6.214846   -1.296531   -0.414418
      9          1           0       -5.847971   -1.331994    1.316780
     10          1           0       -5.552460   -2.766662    0.319931
     11          6           0       -2.598443    0.886148   -0.231257
     12          6           0       -2.506096    2.412359   -0.219563
     13          6           0       -1.093564    2.921353   -0.508480
     14          1           0       -1.901123    0.477858    0.513350
     15          1           0       -2.265393    0.512490   -1.209215
     16          1           0       -2.839587    2.782438    0.758415
     17          1           0       -3.204389    2.817700   -0.963002
     18          1           0       -0.754829    2.580219   -1.492089
     19          1           0       -0.387954    2.544756    0.239109
     20          1           0       -1.050339    4.014887   -0.495240
     21          6           0        0.223365   -1.387026   -0.014514
     22          6           0        0.669105   -0.695276    1.116556
     23          6           0        1.972387   -0.192528    1.173521
     24          6           0        2.806974   -0.400633    0.076503
     25          6           0        2.392240   -1.085715   -1.064526
     26          6           0        1.084837   -1.579698   -1.099532
     27          1           0       -0.790657   -1.774168   -0.050237
     28          1           0        0.002267   -0.544151    1.960674
     29          1           0        2.343376    0.346643    2.036701
     30          1           0        3.080092   -1.220633   -1.890404
     31          1           0        0.741386   -2.116539   -1.979242
     32          7           0        4.188883    0.126963    0.125187
     33          8           0        4.904638   -0.069658   -0.854442
     34          8           0        4.530100    0.727126    1.142051
 ---------------------------------------------------------------------

 SCF Done:  E(RHF) =  -669.534090773     A.U. after   15 cycles
 E2 =    -0.2094131977D+01 EUMP2 =    -0.67162822275024D+03

 The electronic state is 1-A.
 Alpha  occ. eigenvalues --  -20.60726 -20.60721 -15.85783 -11.31137 -11.27750
 Alpha  occ. eigenvalues --  -11.27739 -11.27415 -11.26732 -11.26707 -11.22747
 Alpha  occ. eigenvalues --  -11.22252 -11.22190 -11.22132 -11.21943 -11.21418
 Alpha  occ. eigenvalues --   -1.59803  -1.39357  -1.19331  -1.09294  -1.08706
 Alpha  occ. eigenvalues --   -1.04746  -1.04286  -0.96702  -0.95551  -0.87716
 Alpha  occ. eigenvalues --   -0.86146  -0.82396  -0.80397  -0.79131  -0.77437
 Alpha  occ. eigenvalues --   -0.72003  -0.71127  -0.70420  -0.65954  -0.64976
 Alpha  occ. eigenvalues --   -0.64737  -0.62107  -0.61681  -0.60097  -0.58326
 Alpha  occ. eigenvalues --   -0.55973  -0.55232  -0.53387  -0.53223  -0.52989
 Alpha  occ. eigenvalues --   -0.52836  -0.50649  -0.48768  -0.48756  -0.48674
 Alpha  occ. eigenvalues --   -0.47446  -0.46582  -0.46552  -0.44766  -0.44548
 Alpha  occ. eigenvalues --   -0.37191  -0.36325
 Alpha virt. eigenvalues --    0.05094   0.11161   0.16522   0.19591   0.22738
 Alpha virt. eigenvalues --    0.23418   0.25064   0.25577   0.27183   0.27741
 Alpha virt. eigenvalues --    0.29836   0.30615   0.30739   0.31235   0.31886

 Mulliken charges:
               1
     1  C   -0.297599
     2  C   -0.303046
     3  C   -0.475404
     4  H    0.151444
     5  H    0.153241
     6  H    0.143593
     7  H    0.149854
     8  H    0.158811
     9  H    0.157797
    10  H    0.161508
    11  C   -0.301490
    12  C   -0.300384
    13  C   -0.476142
    14  H    0.146271
    15  H    0.148356
    16  H    0.151966
    17  H    0.153578
    18  H    0.156521
    19  H    0.156036
    20  H    0.162592
    21  C   -0.167854
    22  C   -0.220694
    23  C   -0.172073
    24  C    0.157993
    25  C   -0.169891
    26  C   -0.222214
    27  H    0.234248
    28  H    0.221984
    29  H    0.275463
    30  H    0.275476
    31  H    0.223241
    32  N    0.488205
    33  O   -0.460676
    34  O   -0.460712
 Sum of Mulliken charges =  -0.00000

 Dipole moment (field-independent basis, Debye):
    X=             -5.0004    Y=             -1.7936    Z=             -0.2226  Tot=              5.3170
 Quadrupole moment (field-independent basis, Debye-Ang):
   XX=           -122.9537   YY=            -93.4189   ZZ=            -89.7714
   XY=             -4.1964   XZ=             -1.3316   YZ=              1.9354

 Normal termination of Gaussian 16 at Thu May  6 12:18:15 2021.
