 Gaussian 16, Revision A.03,
 Gaussian 16:  EM64L-G16RevA.03 25-Dec-2016

 -------------
 #p 6-31g* mp2
 -------------

 ------------------------------------------------------
 Input file generated by CHIRIPA (05-May-2021 14:51:07)
 ------------------------------------------------------
 Symbolic Z-matrix:
 Charge =  0 Multiplicity = 1

                         Standard orientation:
 ---------------------------------------------------------------------
 Center     Atomic      Atomic             Coordinates (Angstroms)
 Number     Number       Type             X           Y           Z
 ---------------------------------------------------------------------
      1          6           0        2.600917   -0.701770    0.088868
      2          6           0        1.890442   -1.433762    1.227902
      3          6           0        1.880934   -2.951175    1.040383
      4          1           0        2.110351   -0.952121   -0.861718
      5          1           0        3.633703   -1.069376    0.013938
      6          1           0        0.859719   -1.063895    1.301556
      7          1           0        2.382637   -1.181489    2.175910
      8          1           0        2.903302   -3.339390    0.988877
      9          1           0        1.371732   -3.221128    0.109556
     10          1           0        1.368100   -3.454507    1.865925
     11          6           0        2.618683    0.815933    0.262044
     12          6           0        3.329158    1.547925   -0.876990
     13          6           0        3.338666    3.065337   -0.689471
     14          1           0        1.585897    1.183538    0.336974
     15          1           0        3.109249    1.066284    1.212630
     16          1           0        2.836963    1.295651   -1.824997
     17          1           0        4.359881    1.178058   -0.950644
     18          1           0        3.847869    3.335291    0.241356
     19          1           0        2.316298    3.453553   -0.637965
     20          1           0        3.851500    3.568669   -1.515013
     21          6           0       -2.724311   -0.717827   -0.541152
     22          6           0       -1.508684   -1.644898   -0.513265
     23          6           0       -1.753255   -2.962730   -1.248994
     24          1           0       -3.582971   -1.235956   -0.092609
     25          1           0       -2.994981   -0.510867   -1.585806
     26          1           0       -1.239541   -1.848937    0.531026
     27          1           0       -0.652769   -1.124433   -0.961754
     28          1           0       -1.999890   -2.777466   -2.299447
     29          1           0       -2.589997   -3.506086   -0.798185
     30          1           0       -0.871463   -3.610231   -1.216643
     31          6           0       -2.495289    0.603665    0.190240
     32          6           0       -3.710916    1.530735    0.162353
     33          6           0       -3.466345    2.848568    0.898082
     34          1           0       -2.224619    0.396704    1.234893
     35          1           0       -1.636630    1.121793   -0.258303
     36          1           0       -4.566831    1.010270    0.610842
     37          1           0       -3.980060    1.734774   -0.881939
     38          1           0       -2.629604    3.391923    0.447273
     39          1           0       -3.219709    2.663303    1.948535
     40          1           0       -4.348136    3.496068    0.865731
 ---------------------------------------------------------------------

 SCF Done:  E(RHF) =  -470.732422412     A.U. after   11 cycles
 E2 =    -0.1584825470D+01 EUMP2 =    -0.47231724788184D+03

 The electronic state is 1-A.
 Alpha  occ. eigenvalues --  -11.21664 -11.21651 -11.21592 -11.21487 -11.21453
 Alpha  occ. eigenvalues --  -11.21423 -11.21363 -11.21300 -11.21128 -11.21116
 Alpha  occ. eigenvalues --  -11.21069 -11.21010  -1.08528  -1.08366  -1.03642
 Alpha  occ. eigenvalues --   -1.03442  -0.96062  -0.95926  -0.87077  -0.86944
 Alpha  occ. eigenvalues --   -0.79726  -0.79507  -0.78376  -0.78160  -0.65152
 Alpha  occ. eigenvalues --   -0.65025  -0.61058  -0.60947  -0.59345  -0.59302
 Alpha  occ. eigenvalues --   -0.57662  -0.57549  -0.55344  -0.55186  -0.52754
 Alpha  occ. eigenvalues --   -0.52627  -0.52508  -0.52330  -0.49997  -0.49888
 Alpha  occ. eigenvalues --   -0.48092  -0.47795  -0.46821  -0.46522  -0.46081
 Alpha  occ. eigenvalues --   -0.45835  -0.45618  -0.45301  -0.43850  -0.43735
 Alpha virt. eigenvalues --    0.20084   0.22461   0.23366   0.24699   0.25393
 Alpha virt. eigenvalues --    0.25670   0.26480   0.27573   0.29065   0.29925
 Alpha virt. eigenvalues --    0.30280   0.31132   0.31340   0.31839   0.32334

 Mulliken charges:
               1
     1  C   -0.299655
     2  C   -0.303775
     3  C   -0.479634
     4  H    0.149999
     5  H    0.149384
     6  H    0.158390
     7  H    0.151018
     8  H    0.154926
     9  H    0.159055
    10  H    0.159231
    11  C   -0.300102
    12  C   -0.299502
    13  C   -0.475557
    14  H    0.150842
    15  H    0.149798
    16  H    0.151270
    17  H    0.152022
    18  H    0.155345
    19  H    0.154792
    20  H    0.160157
    21  C   -0.298063
    22  C   -0.306011
    23  C   -0.478416
    24  H    0.150003
    25  H    0.149568
    26  H    0.157213
    27  H    0.154570
    28  H    0.155171
    29  H    0.155706
    30  H    0.162647
    31  C   -0.300146
    32  C   -0.299609
    33  C   -0.475755
    34  H    0.149803
    35  H    0.149751
    36  H    0.152305
    37  H    0.152180
    38  H    0.155069
    39  H    0.155462
    40  H    0.160545
 Sum of Mulliken charges =  -0.00000

 Dipole moment (field-independent basis, Debye):
    X=             -0.0595    Y=             -0.0060    Z=              0.0040  Tot=              0.0599
 Quadrupole moment (field-independent basis, Debye-Ang):
   XX=            -83.9080   YY=            -86.8501   ZZ=            -84.0507
   XY=              0.0172   XZ=              0.0925   YZ=             -0.8530

 Normal termination of Gaussian 16 at Wed May  5 22:52:47 2021.
