 Gaussian 16, Revision A.03,
 Gaussian 16:  EM64L-G16RevA.03 25-Dec-2016

 -------------
 #p 6-31g* mp2
 -------------

 ------------------------------------------------------
 Input file generated by CHIRIPA (05-May-2021 14:57:21)
 ------------------------------------------------------
 Symbolic Z-matrix:
 Charge =  0 Multiplicity = 1

                         Standard orientation:
 ---------------------------------------------------------------------
 Center     Atomic      Atomic             Coordinates (Angstroms)
 Number     Number       Type             X           Y           Z
 ---------------------------------------------------------------------
      1          6           0       -3.791484    1.543478    1.462249
      2          6           0       -3.729454    0.210440    1.881395
      3          6           0       -3.159656   -0.766484    1.059509
      4          6           0       -2.659306   -0.373473   -0.180846
      5          6           0       -2.706428    0.946492   -0.626673
      6          6           0       -3.280673    1.906610    0.211757
      7          1           0       -4.235844    2.295849    2.107136
      8          1           0       -4.125363   -0.074459    2.852031
      9          1           0       -3.098682   -1.805690    1.359096
     10          1           0       -2.303402    1.200073   -1.599650
     11          1           0       -3.327488    2.941108   -0.116367
     12          7           0       -2.053733   -1.398803   -1.059698
     13          8           0       -1.619986   -1.026875   -2.147894
     14          8           0       -2.024297   -2.554968   -0.643704
     15          6           0        3.321694   -2.045683    1.029060
     16          6           0        2.442736   -1.959226   -0.055596
     17          6           0        2.123855   -0.717771   -0.613853
     18          6           0        2.704724    0.422024   -0.060004
     19          6           0        3.583933    0.368544    1.020469
     20          6           0        3.888487   -0.883570    1.562690
     21          1           0        3.563844   -3.014215    1.456499
     22          1           0        2.001062   -2.860069   -0.472072
     23          1           0        1.446467   -0.622022   -1.453731
     24          1           0        4.008468    1.284136    1.414016
     25          1           0        4.571420   -0.947693    2.405030
     26          7           0        2.374722    1.741940   -0.642518
     27          8           0        2.899763    2.731252   -0.136326
     28          8           0        1.597273    1.762184   -1.594253
 ---------------------------------------------------------------------

 SCF Done:  E(RHF) =  -868.340473699     A.U. after   16 cycles
 E2 =    -0.2598974022D+01 EUMP2 =    -0.87093944772025D+03

 The electronic state is 1-A.
 Alpha  occ. eigenvalues --  -20.61067 -20.61048 -20.60477 -20.60470 -15.86073
 Alpha  occ. eigenvalues --  -15.85519 -11.31121 -11.30700 -11.27723 -11.27579
 Alpha  occ. eigenvalues --  -11.27383 -11.27314 -11.27092 -11.26982 -11.26669
 Alpha  occ. eigenvalues --  -11.26553 -11.26312 -11.26112  -1.60132  -1.59559
 Alpha  occ. eigenvalues --   -1.39686  -1.39112  -1.19280  -1.18861  -1.08743
 Alpha  occ. eigenvalues --   -1.08301  -1.04627  -1.04213  -0.95621  -0.95159
 Alpha  occ. eigenvalues --   -0.86044  -0.85626  -0.82456  -0.81979  -0.77532
 Alpha  occ. eigenvalues --   -0.77038  -0.72299  -0.71748  -0.71443  -0.70881
 Alpha  occ. eigenvalues --   -0.70387  -0.69955  -0.64934  -0.64630  -0.64504
 Alpha  occ. eigenvalues --   -0.64195  -0.61966  -0.61528  -0.55164  -0.54749
 Alpha  occ. eigenvalues --   -0.52986  -0.52712  -0.52593  -0.52278  -0.49073
 Alpha  occ. eigenvalues --   -0.49042  -0.48503  -0.48486  -0.45148  -0.44560
 Alpha  occ. eigenvalues --   -0.37264  -0.36866  -0.36211  -0.35823
 Alpha virt. eigenvalues --    0.04933   0.05439   0.11437   0.11823   0.16464
 Alpha virt. eigenvalues --    0.16969   0.21570   0.22082   0.27543   0.27961
 Alpha virt. eigenvalues --    0.28421   0.28988   0.31144   0.31587   0.32548

 Mulliken charges:
               1
     1  C   -0.169936
     2  C   -0.219244
     3  C   -0.171353
     4  C    0.155354
     5  C   -0.167784
     6  C   -0.218592
     7  H    0.226200
     8  H    0.222268
     9  H    0.272796
    10  H    0.283711
    11  H    0.227779
    12  N    0.486856
    13  O   -0.460077
    14  O   -0.464936
    15  C   -0.171491
    16  C   -0.220418
    17  C   -0.180656
    18  C    0.156949
    19  C   -0.172447
    20  C   -0.219383
    21  H    0.224699
    22  H    0.233857
    23  H    0.289781
    24  H    0.272587
    25  H    0.220774
    26  N    0.487556
    27  O   -0.464095
    28  O   -0.460754
 Sum of Mulliken charges =  -0.00000

 Dipole moment (field-independent basis, Debye):
    X=             -1.1592    Y=             -1.0091    Z=              5.0064  Tot=              5.2370
 Quadrupole moment (field-independent basis, Debye-Ang):
   XX=            -86.9010   YY=           -108.7283   ZZ=           -102.3775
   XY=            -19.7374   XZ=             -1.0093   YZ=             -1.7070

 Normal termination of Gaussian 16 at Thu May  6 09:39:07 2021.
