 Gaussian 16, Revision A.03,
 Gaussian 16:  EM64L-G16RevA.03 25-Dec-2016

 -------------
 #p 6-31g* mp2
 -------------

 ------------------------------------------------------
 Input file generated by CHIRIPA (05-May-2021 14:53:11)
 ------------------------------------------------------
 Symbolic Z-matrix:
 Charge =  0 Multiplicity = 1

                         Standard orientation:
 ---------------------------------------------------------------------
 Center     Atomic      Atomic             Coordinates (Angstroms)
 Number     Number       Type             X           Y           Z
 ---------------------------------------------------------------------
      1          6           0        2.736379    1.025467   -0.067609
      2          6           0        2.810802    1.824462    1.233948
      3          6           0        2.544048    3.315864    1.028140
      4          1           0        3.462920    1.434024   -0.783265
      5          1           0        1.743361    1.162609   -0.517613
      6          1           0        3.802912    1.684744    1.682070
      7          1           0        2.084133    1.413833    1.946656
      8          1           0        1.547504    3.473933    0.603269
      9          1           0        3.276049    3.746384    0.337179
     10          1           0        2.602213    3.868007    1.971334
     11          6           0        3.000809   -0.467151    0.121855
     12          6           0        2.926385   -1.266147   -1.179703
     13          6           0        3.193140   -2.757548   -0.973895
     14          1           0        3.993826   -0.604293    0.571858
     15          1           0        2.274267   -0.875709    0.837511
     16          1           0        3.653054   -0.855517   -1.892410
     17          1           0        1.934275   -1.126429   -1.627824
     18          1           0        2.461138   -3.188069   -0.282934
     19          1           0        4.189683   -2.915618   -0.549023
     20          1           0        3.134974   -3.309691   -1.917089
     21          6           0       -1.478727   -2.286965    1.205387
     22          6           0       -2.745680   -1.750582    1.457660
     23          6           0       -3.178552   -0.604622    0.783905
     24          6           0       -2.314791   -0.018081   -0.139770
     25          6           0       -1.046746   -0.528673   -0.412987
     26          6           0       -0.634791   -1.675377    0.272512
     27          1           0       -1.150585   -3.177464    1.733337
     28          1           0       -3.403212   -2.223441    2.181609
     29          1           0       -4.154313   -0.168353    0.959910
     30          1           0       -0.413629   -0.035084   -1.140278
     31          1           0        0.349674   -2.089737    0.074571
     32          7           0       -2.761981    1.195490   -0.859262
     33          8           0       -1.982143    1.693474   -1.668273
     34          8           0       -3.883861    1.625722   -0.600564
 ---------------------------------------------------------------------

 SCF Done:  E(RHF) =  -669.534024437     A.U. after   15 cycles
 E2 =    -0.2094648461D+01 EUMP2 =    -0.67162867289853D+03

 The electronic state is 1-A.
 Alpha  occ. eigenvalues --  -20.60796 -20.60790 -15.85846 -11.31205 -11.27770
 Alpha  occ. eigenvalues --  -11.27752 -11.27497 -11.26786 -11.26707 -11.22579
 Alpha  occ. eigenvalues --  -11.22134 -11.22114 -11.21853 -11.21793 -11.21052
 Alpha  occ. eigenvalues --   -1.59870  -1.39424  -1.19375  -1.09087  -1.08763
 Alpha  occ. eigenvalues --   -1.04785  -1.04108  -0.96546  -0.95607  -0.87561
 Alpha  occ. eigenvalues --   -0.86182  -0.82448  -0.80214  -0.78802  -0.77515
 Alpha  occ. eigenvalues --   -0.72064  -0.71193  -0.70500  -0.66014  -0.65008
 Alpha  occ. eigenvalues --   -0.64730  -0.62241  -0.61235  -0.59952  -0.58125
 Alpha  occ. eigenvalues --   -0.55886  -0.55264  -0.53242  -0.53113  -0.52959
 Alpha  occ. eigenvalues --   -0.52815  -0.50521  -0.48829  -0.48823  -0.48474
 Alpha  occ. eigenvalues --   -0.47291  -0.46313  -0.46206  -0.44829  -0.44343
 Alpha  occ. eigenvalues --   -0.37349  -0.36351
 Alpha virt. eigenvalues --    0.05006   0.11180   0.16426   0.19046   0.23096
 Alpha virt. eigenvalues --    0.23633   0.24427   0.25932   0.27438   0.28615
 Alpha virt. eigenvalues --    0.29855   0.30964   0.31065   0.31372   0.32125

 Mulliken charges:
               1
     1  C   -0.301859
     2  C   -0.300108
     3  C   -0.477635
     4  H    0.153376
     5  H    0.152177
     6  H    0.151494
     7  H    0.152226
     8  H    0.162612
     9  H    0.155855
    10  H    0.160709
    11  C   -0.303178
    12  C   -0.309478
    13  C   -0.477635
    14  H    0.153820
    15  H    0.145579
    16  H    0.162021
    17  H    0.146251
    18  H    0.145191
    19  H    0.161641
    20  H    0.165842
    21  C   -0.174190
    22  C   -0.218409
    23  C   -0.170825
    24  C    0.159670
    25  C   -0.180181
    26  C   -0.225658
    27  H    0.225957
    28  H    0.223560
    29  H    0.275623
    30  H    0.280218
    31  H    0.238404
    32  N    0.488253
    33  O   -0.461112
    34  O   -0.460211
 Sum of Mulliken charges =  -0.00000

 Dipole moment (field-independent basis, Debye):
    X=              1.7266    Y=             -4.1704    Z=              2.5100  Tot=              5.1646
 Quadrupole moment (field-independent basis, Debye-Ang):
   XX=            -96.6866   YY=            -96.1965   ZZ=            -94.7978
   XY=             10.4636   XZ=             -9.0700   YZ=              0.4409

 Normal termination of Gaussian 16 at Wed May  5 18:28:32 2021.
