 Gaussian 16, Revision A.03,
 Gaussian 16:  EM64L-G16RevA.03 25-Dec-2016

 -------------
 #p 6-31g* mp2
 -------------

 ------------------------------------------------------
 Input file generated by CHIRIPA (05-May-2021 14:57:23)
 ------------------------------------------------------
 Symbolic Z-matrix:
 Charge =  0 Multiplicity = 1

                         Standard orientation:
 ---------------------------------------------------------------------
 Center     Atomic      Atomic             Coordinates (Angstroms)
 Number     Number       Type             X           Y           Z
 ---------------------------------------------------------------------
      1          6           0       -1.799544    2.200893   -0.375781
      2          6           0       -3.176381    2.412349   -0.248783
      3          6           0       -4.049970    1.331117   -0.099365
      4          6           0       -3.510085    0.046018   -0.081072
      5          6           0       -2.143057   -0.197078   -0.205288
      6          6           0       -1.288178    0.899149   -0.353667
      7          1           0       -1.128186    3.046644   -0.491449
      8          1           0       -3.576326    3.422203   -0.265611
      9          1           0       -5.120061    1.466216    0.000996
     10          1           0       -1.773998   -1.215310   -0.184868
     11          1           0       -0.219348    0.731931   -0.452081
     12          7           0       -4.425011   -1.106572    0.076560
     13          8           0       -3.924360   -2.228987    0.089599
     14          8           0       -5.625457   -0.865732    0.184090
     15          6           0        3.924015    2.218241    0.261393
     16          6           0        2.765867    1.726656    0.872588
     17          6           0        2.443040    0.368685    0.793551
     18          6           0        3.304699   -0.473243    0.092130
     19          6           0        4.465831   -0.013687   -0.527441
     20          6           0        4.768810    1.348034   -0.435443
     21          1           0        4.167085    3.274602    0.327825
     22          1           0        2.107940    2.400150    1.414421
     23          1           0        1.552832   -0.038551    1.257345
     24          1           0        5.102226   -0.709502   -1.060604
     25          1           0        5.668913    1.727011   -0.911088
     26          7           0        2.973443   -1.912852    0.001597
     27          8           0        3.748994   -2.633957   -0.622234
     28          8           0        1.944524   -2.292853    0.556182
 ---------------------------------------------------------------------

 SCF Done:  E(RHF) =  -868.337218663     A.U. after   16 cycles
 E2 =    -0.2600776734D+01 EUMP2 =    -0.87093799539723D+03

 The electronic state is 1-A.
 Alpha  occ. eigenvalues --  -20.61502 -20.61475 -20.60615 -20.60590 -15.86549
 Alpha  occ. eigenvalues --  -15.85662 -11.32072 -11.31145 -11.28669 -11.28585
 Alpha  occ. eigenvalues --  -11.28366 -11.27776 -11.27729 -11.27672 -11.27621
 Alpha  occ. eigenvalues --  -11.27603 -11.26832 -11.26760  -1.60563  -1.59681
 Alpha  occ. eigenvalues --   -1.40113  -1.39228  -1.20249  -1.19355  -1.09600
 Alpha  occ. eigenvalues --   -1.08748  -1.05675  -1.04766  -0.96413  -0.95549
 Alpha  occ. eigenvalues --   -0.87053  -0.86173  -0.83239  -0.82372  -0.78283
 Alpha  occ. eigenvalues --   -0.77374  -0.72752  -0.71896  -0.71878  -0.71329
 Alpha  occ. eigenvalues --   -0.71008  -0.70488  -0.65889  -0.65666  -0.65007
 Alpha  occ. eigenvalues --   -0.64799  -0.63017  -0.62055  -0.56127  -0.55333
 Alpha  occ. eigenvalues --   -0.54022  -0.53749  -0.53108  -0.52792  -0.49523
 Alpha  occ. eigenvalues --   -0.49506  -0.48654  -0.48620  -0.45484  -0.44606
 Alpha  occ. eigenvalues --   -0.38214  -0.37415  -0.37256  -0.36372
 Alpha virt. eigenvalues --    0.04206   0.05136   0.10274   0.11222   0.15668
 Alpha virt. eigenvalues --    0.16524   0.20143   0.21815   0.26112   0.26763
 Alpha virt. eigenvalues --    0.28057   0.28499   0.30178   0.30951   0.31995

 Mulliken charges:
               1
     1  C   -0.173941
     2  C   -0.218634
     3  C   -0.170628
     4  C    0.158688
     5  C   -0.173114
     6  C   -0.228711
     7  H    0.220576
     8  H    0.222185
     9  H    0.275832
    10  H    0.286894
    11  H    0.226781
    12  N    0.487670
    13  O   -0.455820
    14  O   -0.461751
    15  C   -0.170723
    16  C   -0.222345
    17  C   -0.182094
    18  C    0.159805
    19  C   -0.169985
    20  C   -0.217323
    21  H    0.227719
    22  H    0.224021
    23  H    0.277479
    24  H    0.278909
    25  H    0.226946
    26  N    0.488289
    27  O   -0.455537
    28  O   -0.461186
 Sum of Mulliken charges =  -0.00000

 Dipole moment (field-independent basis, Debye):
    X=              4.6359    Y=              8.9345    Z=             -0.2703  Tot=             10.0692
 Quadrupole moment (field-independent basis, Debye-Ang):
   XX=           -112.3108   YY=           -108.0474   ZZ=           -104.6649
   XY=             -1.0326   XZ=             -0.0465   YZ=              0.6569

 Normal termination of Gaussian 16 at Fri May  7 00:18:19 2021.
