 Gaussian 16, Revision A.03,
 Gaussian 16:  EM64L-G16RevA.03 25-Dec-2016

 -------------
 #p 6-31g* mp2
 -------------

 ------------------------------------------------------
 Input file generated by CHIRIPA (05-May-2021 14:57:21)
 ------------------------------------------------------
 Symbolic Z-matrix:
 Charge =  0 Multiplicity = 1

                         Standard orientation:
 ---------------------------------------------------------------------
 Center     Atomic      Atomic             Coordinates (Angstroms)
 Number     Number       Type             X           Y           Z
 ---------------------------------------------------------------------
      1          6           0        5.218722    1.959908    0.316544
      2          6           0        5.744816    0.688303    0.066013
      3          6           0        4.896965   -0.391279   -0.198940
      4          6           0        3.521870   -0.162451   -0.205542
      5          6           0        2.967299    1.092657    0.040313
      6          6           0        3.834084    2.157678    0.302918
      7          1           0        5.884707    2.792898    0.521453
      8          1           0        6.819732    0.531772    0.075949
      9          1           0        5.277415   -1.386147   -0.396205
     10          1           0        1.891428    1.217718    0.023613
     11          1           0        3.422700    3.144130    0.497137
     12          7           0        2.614266   -1.297649   -0.484793
     13          8           0        1.406472   -1.069899   -0.484872
     14          8           0        3.127866   -2.393672   -0.698303
     15          6           0       -5.333770    1.108089   -1.363488
     16          6           0       -5.434452    1.265039    0.022784
     17          6           0       -4.518955    0.642078    0.876209
     18          6           0       -3.510748   -0.134151    0.306757
     19          6           0       -3.384074   -0.309688   -1.070353
     20          6           0       -4.310707    0.322611   -1.904678
     21          1           0       -6.049275    1.595647   -2.019031
     22          1           0       -6.227950    1.874462    0.445877
     23          1           0       -4.573639    0.746674    1.953004
     24          1           0       -2.582262   -0.923391   -1.462631
     25          1           0       -4.230078    0.198950   -2.980899
     26          7           0       -2.535659   -0.798595    1.200129
     27          8           0       -1.656556   -1.477221    0.673551
     28          8           0       -2.668948   -0.628180    2.410018
 ---------------------------------------------------------------------

 SCF Done:  E(RHF) =  -868.335956143     A.U. after   16 cycles
 E2 =    -0.2600059238D+01 EUMP2 =    -0.87093601538019D+03

 The electronic state is 1-A.
 Alpha  occ. eigenvalues --  -20.60027 -20.59976 -20.59945 -20.59834 -15.85039
 Alpha  occ. eigenvalues --  -15.84945 -11.30650 -11.30586 -11.27256 -11.27244
 Alpha  occ. eigenvalues --  -11.27231 -11.27125 -11.27051 -11.27013 -11.26330
 Alpha  occ. eigenvalues --  -11.26320 -11.26299 -11.26246  -1.59061  -1.58989
 Alpha  occ. eigenvalues --   -1.38609  -1.38521  -1.18849  -1.18795  -1.08203
 Alpha  occ. eigenvalues --   -1.08147  -1.04290  -1.04231  -0.95004  -0.94917
 Alpha  occ. eigenvalues --   -0.85678  -0.85616  -0.81853  -0.81714  -0.76850
 Alpha  occ. eigenvalues --   -0.76725  -0.71375  -0.71021  -0.70403  -0.70312
 Alpha  occ. eigenvalues --   -0.69961  -0.69893  -0.64504  -0.64425  -0.64301
 Alpha  occ. eigenvalues --   -0.64237  -0.61637  -0.61561  -0.54793  -0.54739
 Alpha  occ. eigenvalues --   -0.52605  -0.52562  -0.52390  -0.52321  -0.48072
 Alpha  occ. eigenvalues --   -0.48008  -0.47933  -0.47891  -0.44029  -0.43774
 Alpha  occ. eigenvalues --   -0.36848  -0.36808  -0.35904  -0.35853
 Alpha virt. eigenvalues --    0.05664   0.05826   0.11747   0.11797   0.17103
 Alpha virt. eigenvalues --    0.17259   0.21823   0.21921   0.27722   0.27810
 Alpha virt. eigenvalues --    0.28712   0.28887   0.31332   0.31462   0.32958

 Mulliken charges:
               1
     1  C   -0.171598
     2  C   -0.218565
     3  C   -0.171292
     4  C    0.159229
     5  C   -0.170182
     6  C   -0.218504
     7  H    0.223559
     8  H    0.221737
     9  H    0.274998
    10  H    0.275883
    11  H    0.221441
    12  N    0.488151
    13  O   -0.451034
    14  O   -0.463950
    15  C   -0.171950
    16  C   -0.219110
    17  C   -0.172391
    18  C    0.157045
    19  C   -0.172263
    20  C   -0.219477
    21  H    0.223119
    22  H    0.220798
    23  H    0.273777
    24  H    0.284059
    25  H    0.222518
    26  N    0.485708
    27  O   -0.443348
    28  O   -0.468357
 Sum of Mulliken charges =  -0.00000

 Dipole moment (field-independent basis, Debye):
    X=             -0.1777    Y=              6.1358    Z=             -2.2224  Tot=              6.5283
 Quadrupole moment (field-independent basis, Debye-Ang):
   XX=            -56.8895   YY=           -105.3603   ZZ=           -105.3991
   XY=              2.2616   XZ=             10.7252   YZ=              2.3350

 Normal termination of Gaussian 16 at Thu May  6 03:19:25 2021.
