 Gaussian 16, Revision A.03,
 Gaussian 16:  EM64L-G16RevA.03 25-Dec-2016

 -------------
 #p 6-31g* mp2
 -------------

 ------------------------------------------------------
 Input file generated by CHIRIPA (05-May-2021 14:53:12)
 ------------------------------------------------------
 Symbolic Z-matrix:
 Charge =  0 Multiplicity = 1

                         Standard orientation:
 ---------------------------------------------------------------------
 Center     Atomic      Atomic             Coordinates (Angstroms)
 Number     Number       Type             X           Y           Z
 ---------------------------------------------------------------------
      1          6           0       -3.531718   -0.171130   -0.269639
      2          6           0       -4.260613   -1.170700    0.629002
      3          6           0       -4.913183   -2.307201   -0.158597
      4          1           0       -4.242779    0.245425   -0.996152
      5          1           0       -2.765695   -0.702400   -0.851324
      6          1           0       -5.024101   -0.637467    1.209833
      7          1           0       -3.547777   -1.584780    1.353583
      8          1           0       -4.160621   -2.864652   -0.725606
      9          1           0       -5.645333   -1.911957   -0.870173
     10          1           0       -5.428639   -3.010060    0.503335
     11          6           0       -2.874180    0.970868    0.503157
     12          6           0       -2.145284    1.970438   -0.395484
     13          6           0       -1.492715    3.106939    0.392115
     14          1           0       -3.640202    1.502138    1.084841
     15          1           0       -2.163119    0.554313    1.229669
     16          1           0       -2.858121    2.384518   -1.120065
     17          1           0       -1.381796    1.437205   -0.976315
     18          1           0       -0.760564    2.711695    1.103690
     19          1           0       -2.245277    3.664390    0.959123
     20          1           0       -0.977258    3.809798   -0.269817
     21          6           0        2.541990   -2.832186    0.031305
     22          6           0        1.475392   -2.178499   -0.594460
     23          6           0        1.442943   -0.782771   -0.668212
     24          6           0        2.498467   -0.068794   -0.103063
     25          6           0        3.575038   -0.691072    0.527061
     26          6           0        3.586567   -2.087700    0.589085
     27          1           0        2.559072   -3.916771    0.084042
     28          1           0        0.662792   -2.754110   -1.028510
     29          1           0        0.629476   -0.251114   -1.146783
     30          1           0        4.370667   -0.090208    0.950564
     31          1           0        4.416186   -2.592679    1.075678
     32          7           0        2.475187    1.409276   -0.174933
     33          8           0        3.417272    2.015441    0.330714
     34          8           0        1.515296    1.933638   -0.735551
 ---------------------------------------------------------------------

 SCF Done:  E(RHF) =  -669.535536775     A.U. after   15 cycles
 E2 =    -0.2092658204D+01 EUMP2 =    -0.67162819497862D+03

 The electronic state is 1-A.
 Alpha  occ. eigenvalues --  -20.60933 -20.60917 -15.85954 -11.31294 -11.27859
 Alpha  occ. eigenvalues --  -11.27853 -11.27592 -11.26868 -11.26858 -11.21699
 Alpha  occ. eigenvalues --  -11.21416 -11.21268 -11.21079 -11.20905 -11.19910
 Alpha  occ. eigenvalues --   -1.59989  -1.39545  -1.19463  -1.08864  -1.08234
 Alpha  occ. eigenvalues --   -1.04861  -1.03176  -0.95736  -0.95584  -0.86636
 Alpha  occ. eigenvalues --   -0.86260  -0.82537  -0.79312  -0.78004  -0.77578
 Alpha  occ. eigenvalues --   -0.72193  -0.71308  -0.70573  -0.65132  -0.64949
 Alpha  occ. eigenvalues --   -0.64795  -0.62218  -0.60554  -0.59062  -0.57191
 Alpha  occ. eigenvalues --   -0.55363  -0.54921  -0.53190  -0.52958  -0.52254
 Alpha  occ. eigenvalues --   -0.52044  -0.49613  -0.48965  -0.48916  -0.47586
 Alpha  occ. eigenvalues --   -0.46386  -0.45529  -0.45412  -0.44888  -0.43441
 Alpha  occ. eigenvalues --   -0.37440  -0.36461
 Alpha virt. eigenvalues --    0.04913   0.11168   0.16398   0.19919   0.22973
 Alpha virt. eigenvalues --    0.24195   0.25558   0.27266   0.27683   0.28355
 Alpha virt. eigenvalues --    0.29732   0.30034   0.31561   0.31862   0.32777

 Mulliken charges:
               1
     1  C   -0.295114
     2  C   -0.299436
     3  C   -0.474710
     4  H    0.151265
     5  H    0.138181
     6  H    0.153983
     7  H    0.150098
     8  H    0.150290
     9  H    0.156552
    10  H    0.160195
    11  C   -0.299073
    12  C   -0.304866
    13  C   -0.466472
    14  H    0.149923
    15  H    0.147088
    16  H    0.148684
    17  H    0.156535
    18  H    0.155975
    19  H    0.145403
    20  H    0.171529
    21  C   -0.170349
    22  C   -0.220624
    23  C   -0.172985
    24  C    0.156019
    25  C   -0.170228
    26  C   -0.218756
    27  H    0.226110
    28  H    0.224236
    29  H    0.282103
    30  H    0.275889
    31  H    0.223873
    32  N    0.489663
    33  O   -0.459116
    34  O   -0.461865
 Sum of Mulliken charges =  -0.00000

 Dipole moment (field-independent basis, Debye):
    X=              0.2747    Y=             -5.0701    Z=              0.2488  Tot=              5.0836
 Quadrupole moment (field-independent basis, Debye-Ang):
   XX=            -90.4848   YY=            -94.8140   ZZ=            -94.5922
   XY=            -13.9577   XZ=              3.0080   YZ=              0.0179

 Normal termination of Gaussian 16 at Wed May  5 17:01:16 2021.
