 Gaussian 16, Revision A.03,
 Gaussian 16:  EM64L-G16RevA.03 25-Dec-2016

 -------------
 #p 6-31g* mp2
 -------------

 ------------------------------------------------------
 Input file generated by CHIRIPA (05-May-2021 14:53:17)
 ------------------------------------------------------
 Symbolic Z-matrix:
 Charge =  0 Multiplicity = 1

                         Standard orientation:
 ---------------------------------------------------------------------
 Center     Atomic      Atomic             Coordinates (Angstroms)
 Number     Number       Type             X           Y           Z
 ---------------------------------------------------------------------
      1          6           0       -4.708746   -0.072772    0.467342
      2          6           0       -5.629035   -0.745550   -0.551688
      3          6           0       -6.596627   -1.739545    0.091379
      4          1           0       -4.140587   -0.844558    1.004451
      5          1           0       -5.321274    0.444281    1.218914
      6          1           0       -5.014933   -1.260022   -1.301896
      7          1           0       -6.194929    0.027938   -1.086567
      8          1           0       -7.233643   -1.236656    0.826167
      9          1           0       -6.046942   -2.531934    0.609614
     10          1           0       -7.245047   -2.208813   -0.655079
     11          6           0       -3.735665    0.923674   -0.160302
     12          6           0       -2.815375    1.596453    0.858728
     13          6           0       -1.847784    2.590448    0.215661
     14          1           0       -3.123137    0.406622   -0.911874
     15          1           0       -4.303824    1.695461   -0.697411
     16          1           0       -2.249481    0.822964    1.393607
     17          1           0       -3.429478    2.110924    1.608936
     18          1           0       -2.397468    3.382837   -0.302574
     19          1           0       -1.210767    2.087559   -0.519127
     20          1           0       -1.199364    3.059716    0.962119
     21          6           0        0.880597   -0.870766   -0.598834
     22          6           0        1.405737    0.373881   -0.961603
     23          6           0        2.744071    0.683044   -0.701165
     24          6           0        3.532361   -0.280335   -0.073640
     25          6           0        3.038375   -1.529221    0.299926
     26          6           0        1.697152   -1.816677    0.029665
     27          1           0       -0.160175   -1.102500   -0.804963
     28          1           0        0.773926    1.110426   -1.449828
     29          1           0        3.176402    1.638832   -0.971309
     30          1           0        3.692816   -2.243033    0.785309
     31          1           0        1.292025   -2.784101    0.312519
     32          7           0        4.950724    0.035471    0.207273
     33          8           0        5.624421   -0.830500    0.761226
     34          8           0        5.361883    1.142993   -0.131817
 ---------------------------------------------------------------------

 SCF Done:  E(RHF) =  -669.535289853     A.U. after   15 cycles
 E2 =    -0.2091453917D+01 EUMP2 =    -0.67162674376946D+03

 The electronic state is 1-A.
 Alpha  occ. eigenvalues --  -20.60762 -20.60757 -15.85816 -11.31191 -11.27760
 Alpha  occ. eigenvalues --  -11.27749 -11.27513 -11.26783 -11.26758 -11.22453
 Alpha  occ. eigenvalues --  -11.22297 -11.22287 -11.22139 -11.22006 -11.21656
 Alpha  occ. eigenvalues --   -1.59838  -1.39391  -1.19364  -1.09245  -1.08760
 Alpha  occ. eigenvalues --   -1.04769  -1.04307  -0.96766  -0.95592  -0.87785
 Alpha  occ. eigenvalues --   -0.86168  -0.82423  -0.80372  -0.79050  -0.77469
 Alpha  occ. eigenvalues --   -0.72035  -0.71160  -0.70478  -0.65905  -0.65017
 Alpha  occ. eigenvalues --   -0.64795  -0.62179  -0.61653  -0.60120  -0.58362
 Alpha  occ. eigenvalues --   -0.56093  -0.55267  -0.53437  -0.53239  -0.53081
 Alpha  occ. eigenvalues --   -0.52822  -0.50694  -0.48804  -0.48788  -0.48669
 Alpha  occ. eigenvalues --   -0.47406  -0.46588  -0.46524  -0.44794  -0.44567
 Alpha  occ. eigenvalues --   -0.37342  -0.36360
 Alpha virt. eigenvalues --    0.05061   0.11202   0.16529   0.18909   0.22495
 Alpha virt. eigenvalues --    0.23838   0.25330   0.25508   0.26638   0.28223
 Alpha virt. eigenvalues --    0.28982   0.30270   0.30994   0.31418   0.31608

 Mulliken charges:
               1
     1  C   -0.298516
     2  C   -0.299760
     3  C   -0.475989
     4  H    0.147899
     5  H    0.152793
     6  H    0.149584
     7  H    0.153863
     8  H    0.156979
     9  H    0.154809
    10  H    0.162030
    11  C   -0.297881
    12  C   -0.301073
    13  C   -0.476424
    14  H    0.140741
    15  H    0.153064
    16  H    0.151916
    17  H    0.156551
    18  H    0.158423
    19  H    0.144297
    20  H    0.165932
    21  C   -0.172763
    22  C   -0.219045
    23  C   -0.171814
    24  C    0.158685
    25  C   -0.170969
    26  C   -0.218657
    27  H    0.226085
    28  H    0.226968
    29  H    0.276011
    30  H    0.275612
    31  H    0.223345
    32  N    0.488016
    33  O   -0.460445
    34  O   -0.460266
 Sum of Mulliken charges =  -0.00000

 Dipole moment (field-independent basis, Debye):
    X=             -5.1591    Y=             -1.0493    Z=             -0.9056  Tot=              5.3421
 Quadrupole moment (field-independent basis, Debye-Ang):
   XX=           -129.9383   YY=            -89.9143   ZZ=            -94.5916
   XY=             -4.4202   XZ=             -2.9116   YZ=             -1.3537

 Normal termination of Gaussian 16 at Wed May  5 17:14:14 2021.
