 Gaussian 16, Revision A.03,
 Gaussian 16:  EM64L-G16RevA.03 25-Dec-2016

 -------------
 #p 6-31g* mp2
 -------------

 ------------------------------------------------------
 Input file generated by CHIRIPA (05-May-2021 14:55:22)
 ------------------------------------------------------
 Symbolic Z-matrix:
 Charge =  0 Multiplicity = 1

                         Standard orientation:
 ---------------------------------------------------------------------
 Center     Atomic      Atomic             Coordinates (Angstroms)
 Number     Number       Type             X           Y           Z
 ---------------------------------------------------------------------
      1          6           0       -4.628988    0.825851   -0.334036
      2          6           0       -4.095232    0.713725    0.954006
      3          6           0       -2.952515   -0.058092    1.184324
      4          6           0       -2.366503   -0.707179    0.098707
      5          6           0       -2.874529   -0.614961   -1.196166
      6          6           0       -4.018011    0.162320   -1.403126
      7          1           0       -5.516975    1.427539   -0.503880
      8          1           0       -4.567623    1.227922    1.786168
      9          1           0       -2.518326   -0.162098    2.171279
     10          1           0       -2.381484   -1.139237   -2.005770
     11          1           0       -4.430335    0.247595   -2.404506
     12          7           0       -1.156355   -1.527159    0.330170
     13          8           0       -0.658771   -2.089129   -0.643091
     14          8           0       -0.728340   -1.592363    1.480469
     15          6           0        2.951747    1.386187    0.134788
     16          6           0        1.498549    1.504709   -0.325814
     17          6           0        0.846651    2.818443    0.106536
     18          1           0        2.991168    1.473985    1.229175
     19          1           0        3.526725    2.231724   -0.267532
     20          1           0        0.926783    0.658451    0.076115
     21          1           0        1.462560    1.416426   -1.419216
     22          1           0        1.391926    3.673278   -0.306422
     23          1           0        0.853104    2.910995    1.197404
     24          1           0       -0.191791    2.882207   -0.233216
     25          6           0        3.617086    0.078227   -0.289819
     26          6           0        5.070282   -0.040295    0.170784
     27          6           0        5.722180   -1.354029   -0.261566
     28          1           0        3.042107   -0.767310    0.112503
     29          1           0        3.577663   -0.009571   -1.384205
     30          1           0        5.106271    0.047988    1.264186
     31          1           0        5.642047    0.805964   -0.231145
     32          1           0        5.715728   -1.446581   -1.352434
     33          1           0        5.176906   -2.208864    0.151393
     34          1           0        6.760622   -1.417793    0.078187
 ---------------------------------------------------------------------

 SCF Done:  E(RHF) =  -669.536040817     A.U. after   15 cycles
 E2 =    -0.2091681155D+01 EUMP2 =    -0.67162772197196D+03

 The electronic state is 1-A.
 Alpha  occ. eigenvalues --  -20.60889 -20.60878 -15.85921 -11.31252 -11.27818
 Alpha  occ. eigenvalues --  -11.27813 -11.27555 -11.26823 -11.26814 -11.21028
 Alpha  occ. eigenvalues --  -11.20856 -11.20743 -11.20710 -11.20458 -11.20334
 Alpha  occ. eigenvalues --   -1.59961  -1.39512  -1.19421  -1.08826  -1.07710
 Alpha  occ. eigenvalues --   -1.04817  -1.02903  -0.95667  -0.95353  -0.86373
 Alpha  occ. eigenvalues --   -0.86217  -0.82499  -0.78971  -0.77552  -0.77494
 Alpha  occ. eigenvalues --   -0.72144  -0.71294  -0.70530  -0.65075  -0.64820
 Alpha  occ. eigenvalues --   -0.64327  -0.62164  -0.60295  -0.58739  -0.56963
 Alpha  occ. eigenvalues --   -0.55323  -0.54634  -0.53149  -0.52909  -0.52088
 Alpha  occ. eigenvalues --   -0.51776  -0.49287  -0.48910  -0.48903  -0.47285
 Alpha  occ. eigenvalues --   -0.45992  -0.45061  -0.44954  -0.44874  -0.43127
 Alpha  occ. eigenvalues --   -0.37399  -0.36416
 Alpha virt. eigenvalues --    0.04967   0.11235   0.16450   0.21365   0.23522
 Alpha virt. eigenvalues --    0.24814   0.27235   0.27310   0.27960   0.28366
 Alpha virt. eigenvalues --    0.28598   0.30899   0.31927   0.32177   0.32506

 Mulliken charges:
               1
     1  C   -0.170620
     2  C   -0.218595
     3  C   -0.170705
     4  C    0.157094
     5  C   -0.170601
     6  C   -0.218780
     7  H    0.225898
     8  H    0.223780
     9  H    0.275761
    10  H    0.275942
    11  H    0.223693
    12  N    0.488515
    13  O   -0.458514
    14  O   -0.460885
    15  C   -0.297179
    16  C   -0.302276
    17  C   -0.475877
    18  H    0.149949
    19  H    0.145631
    20  H    0.157967
    21  H    0.150493
    22  H    0.153569
    23  H    0.154514
    24  H    0.155570
    25  C   -0.301598
    26  C   -0.299305
    27  C   -0.475721
    28  H    0.164542
    29  H    0.147872
    30  H    0.151336
    31  H    0.148133
    32  H    0.153944
    33  H    0.159317
    34  H    0.157137
 Sum of Mulliken charges =  -0.00000

 Dipole moment (field-independent basis, Debye):
    X=             -4.3720    Y=              2.7326    Z=             -0.7968  Tot=              5.2170
 Quadrupole moment (field-independent basis, Debye-Ang):
   XX=            -75.9309   YY=           -100.3295   ZZ=            -89.5136
   XY=             -3.6958   XZ=              1.3744   YZ=              1.6016

 Normal termination of Gaussian 16 at Wed May  5 20:39:19 2021.
