 Gaussian 16, Revision A.03,
 Gaussian 16:  EM64L-G16RevA.03 25-Dec-2016

 -------------
 #p 6-31g* mp2
 -------------

 ------------------------------------------------------
 Input file generated by CHIRIPA (05-May-2021 14:57:24)
 ------------------------------------------------------
 Symbolic Z-matrix:
 Charge =  0 Multiplicity = 1

                         Standard orientation:
 ---------------------------------------------------------------------
 Center     Atomic      Atomic             Coordinates (Angstroms)
 Number     Number       Type             X           Y           Z
 ---------------------------------------------------------------------
      1          6           0        4.382161    1.516579    0.329475
      2          6           0        4.527441    0.299022    1.002506
      3          6           0        3.620179   -0.742991    0.788890
      4          6           0        2.574638   -0.532116   -0.108700
      5          6           0        2.403137    0.669417   -0.794408
      6          6           0        3.322341    1.697571   -0.565256
      7          1           0        5.091583    2.320656    0.501451
      8          1           0        5.349551    0.155636    1.697934
      9          1           0        3.709042   -1.695772    1.296560
     10          1           0        1.573497    0.782581   -1.481655
     11          1           0        3.207040    2.642073   -1.089342
     12          7           0        1.607839   -1.627913   -0.343069
     13          8           0        0.695261   -1.416999   -1.138904
     14          8           0        1.780946   -2.676963    0.273506
     15          6           0       -3.283949   -2.109355    0.157093
     16          6           0       -3.462291   -1.311664    1.292173
     17          6           0       -3.160840    0.053006    1.255443
     18          6           0       -2.680809    0.589424    0.061660
     19          6           0       -2.492430   -0.179170   -1.085975
     20          6           0       -2.800440   -1.541562   -1.026272
     21          1           0       -3.520670   -3.168578    0.194548
     22          1           0       -3.837632   -1.749910    2.212555
     23          1           0       -3.289473    0.693639    2.119424
     24          1           0       -2.116614    0.286239   -1.989067
     25          1           0       -2.660948   -2.158639   -1.909336
     26          7           0       -2.358205    2.032934    0.010615
     27          8           0       -1.936697    2.481420   -1.053258
     28          8           0       -2.532964    2.688538    1.035448
 ---------------------------------------------------------------------

 SCF Done:  E(RHF) =  -868.339874150     A.U. after   16 cycles
 E2 =    -0.2599883430D+01 EUMP2 =    -0.87093975757993D+03

 The electronic state is 1-A.
 Alpha  occ. eigenvalues --  -20.61000 -20.60984 -20.60341 -20.60314 -15.86017
 Alpha  occ. eigenvalues --  -15.85364 -11.31116 -11.30297 -11.27682 -11.27604
 Alpha  occ. eigenvalues --  -11.27350 -11.26872 -11.26772 -11.26647 -11.26554
 Alpha  occ. eigenvalues --  -11.26470 -11.25823 -11.25647  -1.60057  -1.59411
 Alpha  occ. eigenvalues --   -1.39622  -1.38977  -1.19264  -1.18428  -1.08713
 Alpha  occ. eigenvalues --   -1.07908  -1.04619  -1.03760  -0.95595  -0.94816
 Alpha  occ. eigenvalues --   -0.86036  -0.85199  -0.82443  -0.81665  -0.77514
 Alpha  occ. eigenvalues --   -0.76761  -0.72279  -0.71600  -0.71363  -0.70723
 Alpha  occ. eigenvalues --   -0.70374  -0.69561  -0.64922  -0.64618  -0.64089
 Alpha  occ. eigenvalues --   -0.63787  -0.61966  -0.61143  -0.55142  -0.54308
 Alpha  occ. eigenvalues --   -0.52975  -0.52706  -0.52104  -0.51878  -0.49027
 Alpha  occ. eigenvalues --   -0.48984  -0.48370  -0.48312  -0.45084  -0.44477
 Alpha  occ. eigenvalues --   -0.37242  -0.36384  -0.36207  -0.35235
 Alpha virt. eigenvalues --    0.04947   0.05790   0.11441   0.12335   0.16526
 Alpha virt. eigenvalues --    0.17378   0.21525   0.22374   0.27288   0.27951
 Alpha virt. eigenvalues --    0.28587   0.29314   0.31077   0.31810   0.32399

 Mulliken charges:
               1
     1  C   -0.170093
     2  C   -0.218667
     3  C   -0.171367
     4  C    0.157436
     5  C   -0.170432
     6  C   -0.217688
     7  H    0.226570
     8  H    0.222916
     9  H    0.273784
    10  H    0.278131
    11  H    0.228606
    12  N    0.490481
    13  O   -0.466698
    14  O   -0.462127
    15  C   -0.169352
    16  C   -0.218884
    17  C   -0.173860
    18  C    0.152878
    19  C   -0.158806
    20  C   -0.202574
    21  H    0.224842
    22  H    0.219806
    23  H    0.270768
    24  H    0.271281
    25  H    0.226132
    26  N    0.488240
    27  O   -0.467935
    28  O   -0.463389
 Sum of Mulliken charges =  -0.00000

 Dipole moment (field-independent basis, Debye):
    X=              2.4358    Y=             -1.3679    Z=              0.8474  Tot=              2.9193
 Quadrupole moment (field-independent basis, Debye-Ang):
   XX=            -81.0799   YY=           -114.3120   ZZ=            -98.9500
   XY=             20.6315   XZ=              1.9946   YZ=             -2.5890

 Normal termination of Gaussian 16 at Thu May  6 00:19:06 2021.
