 Gaussian 16, Revision A.03,
 Gaussian 16:  EM64L-G16RevA.03 25-Dec-2016

 -------------
 #p 6-31g* mp2
 -------------

 ------------------------------------------------------
 Input file generated by CHIRIPA (05-May-2021 14:53:11)
 ------------------------------------------------------
 Symbolic Z-matrix:
 Charge =  0 Multiplicity = 1

                         Standard orientation:
 ---------------------------------------------------------------------
 Center     Atomic      Atomic             Coordinates (Angstroms)
 Number     Number       Type             X           Y           Z
 ---------------------------------------------------------------------
      1          6           0       -3.677528   -0.074770    0.623712
      2          6           0       -4.973386   -0.836735    0.344164
      3          6           0       -5.301235   -1.863357    1.428764
      4          1           0       -2.850154   -0.791888    0.713929
      5          1           0       -3.760159    0.431023    1.595690
      6          1           0       -4.888861   -1.339811   -0.627631
      7          1           0       -5.797738   -0.117706    0.254412
      8          1           0       -5.412490   -1.373745    2.401649
      9          1           0       -4.498449   -2.602795    1.514594
     10          1           0       -6.231453   -2.396480    1.208911
     11          6           0       -3.336310    0.955167   -0.451707
     12          6           0       -2.040452    1.717133   -0.172160
     13          6           0       -1.712602    2.743754   -1.256760
     14          1           0       -3.253679    0.449375   -1.423685
     15          1           0       -4.163684    1.672285   -0.541924
     16          1           0       -1.216100    0.998103   -0.082408
     17          1           0       -2.124977    2.220209    0.799636
     18          1           0       -2.515389    3.483192   -1.342589
     19          1           0       -1.601348    2.254143   -2.229644
     20          1           0       -0.782385    3.276877   -1.036906
     21          6           0        4.284451    0.951890    1.449660
     22          6           0        4.621829   -0.345391    1.049961
     23          6           0        3.773540   -1.072664    0.209707
     24          6           0        2.590447   -0.469178   -0.213833
     25          6           0        2.226501    0.821475    0.167020
     26          6           0        3.089969    1.530163    1.007693
     27          1           0        4.949317    1.509635    2.102553
     28          1           0        5.548831   -0.797014    1.391645
     29          1           0        4.010189   -2.078618   -0.115060
     30          1           0        1.295598    1.245032   -0.189963
     31          1           0        2.825384    2.537476    1.316497
     32          7           0        1.684367   -1.229272   -1.103594
     33          8           0        0.647820   -0.675106   -1.462907
     34          8           0        2.027885   -2.364808   -1.424827
 ---------------------------------------------------------------------

 SCF Done:  E(RHF) =  -669.536041066     A.U. after   15 cycles
 E2 =    -0.2091966304D+01 EUMP2 =    -0.67162800736929D+03

 The electronic state is 1-A.
 Alpha  occ. eigenvalues --  -20.60940 -20.60924 -15.85967 -11.31256 -11.27823
 Alpha  occ. eigenvalues --  -11.27795 -11.27557 -11.26826 -11.26810 -11.21125
 Alpha  occ. eigenvalues --  -11.21086 -11.20840 -11.20794 -11.20778 -11.20628
 Alpha  occ. eigenvalues --   -1.59999  -1.39556  -1.19426  -1.08837  -1.07903
 Alpha  occ. eigenvalues --   -1.04817  -1.03081  -0.95689  -0.95536  -0.86556
 Alpha  occ. eigenvalues --   -0.86222  -0.82519  -0.79158  -0.77770  -0.77529
 Alpha  occ. eigenvalues --   -0.72199  -0.71310  -0.70539  -0.65091  -0.64848
 Alpha  occ. eigenvalues --   -0.64476  -0.62190  -0.60427  -0.58935  -0.57175
 Alpha  occ. eigenvalues --   -0.55325  -0.54791  -0.53151  -0.52907  -0.52275
 Alpha  occ. eigenvalues --   -0.51978  -0.49457  -0.48966  -0.48942  -0.47472
 Alpha  occ. eigenvalues --   -0.46141  -0.45312  -0.45194  -0.44835  -0.43327
 Alpha  occ. eigenvalues --   -0.37407  -0.36415
 Alpha virt. eigenvalues --    0.04921   0.11208   0.16430   0.20518   0.23336
 Alpha virt. eigenvalues --    0.24042   0.26602   0.27291   0.27798   0.28197
 Alpha virt. eigenvalues --    0.29424   0.30906   0.31585   0.31893   0.32231

 Mulliken charges:
               1
     1  C   -0.299462
     2  C   -0.299768
     3  C   -0.475706
     4  H    0.155423
     5  H    0.145046
     6  H    0.155063
     7  H    0.149703
     8  H    0.152814
     9  H    0.156602
    10  H    0.159139
    11  C   -0.297032
    12  C   -0.311257
    13  C   -0.475705
    14  H    0.157935
    15  H    0.145974
    16  H    0.167138
    17  H    0.144360
    18  H    0.154015
    19  H    0.165688
    20  H    0.147179
    21  C   -0.170233
    22  C   -0.218899
    23  C   -0.170248
    24  C    0.155918
    25  C   -0.174865
    26  C   -0.220840
    27  H    0.225904
    28  H    0.223662
    29  H    0.275589
    30  H    0.286181
    31  H    0.224248
    32  N    0.489443
    33  O   -0.463944
    34  O   -0.459065
 Sum of Mulliken charges =  -0.00000

 Dipole moment (field-independent basis, Debye):
    X=              3.2907    Y=              2.5103    Z=              3.0177  Tot=              5.1222
 Quadrupole moment (field-independent basis, Debye-Ang):
   XX=            -76.6648   YY=            -95.1809   ZZ=            -97.0811
   XY=              2.2877   XZ=              8.1730   YZ=             -1.1484

 Normal termination of Gaussian 16 at Wed May  5 16:57:21 2021.
