 Gaussian 16, Revision A.03,
 Gaussian 16:  EM64L-G16RevA.03 25-Dec-2016

 -------------
 #p 6-31g* mp2
 -------------

 ------------------------------------------------------
 Input file generated by CHIRIPA (05-May-2021 14:55:23)
 ------------------------------------------------------
 Symbolic Z-matrix:
 Charge =  0 Multiplicity = 1

                         Standard orientation:
 ---------------------------------------------------------------------
 Center     Atomic      Atomic             Coordinates (Angstroms)
 Number     Number       Type             X           Y           Z
 ---------------------------------------------------------------------
      1          6           0        1.130976   -2.243834    0.477340
      2          6           0        0.720401   -0.966720    0.873483
      3          6           0        1.550467    0.140132    0.672446
      4          6           0        2.790175   -0.067339    0.069644
      5          6           0        3.227567   -1.327267   -0.336014
      6          6           0        2.381045   -2.419721   -0.125082
      7          1           0        0.479769   -3.098071    0.637354
      8          1           0       -0.249886   -0.827142    1.341571
      9          1           0        1.257607    1.139853    0.969445
     10          1           0        4.200417   -1.434995   -0.800100
     11          1           0        2.702523   -3.410389   -0.433746
     12          7           0        3.677640    1.096815   -0.148423
     13          8           0        4.765079    0.887514   -0.681626
     14          8           0        3.268991    2.196536    0.217989
     15          6           0       -2.944514    0.950322   -0.221826
     16          6           0       -3.666135    2.257980    0.105711
     17          6           0       -2.773449    3.486461   -0.072448
     18          1           0       -2.057981    0.857371    0.420329
     19          1           0       -2.577849    0.991286   -1.256849
     20          1           0       -4.032535    2.214008    1.139361
     21          1           0       -4.551161    2.347736   -0.537166
     22          1           0       -2.418441    3.558128   -1.105615
     23          1           0       -1.896868    3.423640    0.580438
     24          1           0       -3.309310    4.410244    0.167003
     25          6           0       -3.823895   -0.286757   -0.048469
     26          6           0       -3.102275   -1.594415   -0.376005
     27          6           0       -3.994961   -2.822896   -0.197846
     28          1           0       -4.190561   -0.327721    0.986554
     29          1           0       -4.710430   -0.193806   -0.690624
     30          1           0       -2.217250   -1.684171    0.266872
     31          1           0       -2.735876   -1.550443   -1.409656
     32          1           0       -4.871542   -2.760074   -0.850732
     33          1           0       -4.349970   -2.894563    0.835320
     34          1           0       -3.459100   -3.746679   -0.437299
 ---------------------------------------------------------------------

 SCF Done:  E(RHF) =  -669.534900357     A.U. after   15 cycles
 E2 =    -0.2092464030D+01 EUMP2 =    -0.67162736438779D+03

 The electronic state is 1-A.
 Alpha  occ. eigenvalues --  -20.60739 -20.60734 -15.85793 -11.31159 -11.27730
 Alpha  occ. eigenvalues --  -11.27723 -11.27466 -11.26745 -11.26715 -11.22516
 Alpha  occ. eigenvalues --  -11.22147 -11.22098 -11.22046 -11.21894 -11.21379
 Alpha  occ. eigenvalues --   -1.59815  -1.39368  -1.19332  -1.09148  -1.08725
 Alpha  occ. eigenvalues --   -1.04738  -1.04186  -0.96615  -0.95561  -0.87627
 Alpha  occ. eigenvalues --   -0.86143  -0.82397  -0.80267  -0.78961  -0.77435
 Alpha  occ. eigenvalues --   -0.72012  -0.71138  -0.70439  -0.65871  -0.64988
 Alpha  occ. eigenvalues --   -0.64706  -0.62102  -0.61569  -0.60002  -0.58227
 Alpha  occ. eigenvalues --   -0.55899  -0.55233  -0.53317  -0.53056  -0.53030
 Alpha  occ. eigenvalues --   -0.52842  -0.50563  -0.48785  -0.48766  -0.48555
 Alpha  occ. eigenvalues --   -0.47309  -0.46465  -0.46381  -0.44774  -0.44449
 Alpha  occ. eigenvalues --   -0.37296  -0.36316
 Alpha virt. eigenvalues --    0.05080   0.11225   0.16506   0.19241   0.22850
 Alpha virt. eigenvalues --    0.23132   0.24968   0.26488   0.26773   0.27375
 Alpha virt. eigenvalues --    0.30052   0.30558   0.31031   0.31365   0.31885

 Mulliken charges:
               1
     1  C   -0.171010
     2  C   -0.217792
     3  C   -0.171758
     4  C    0.158295
     5  C   -0.171007
     6  C   -0.218806
     7  H    0.225926
     8  H    0.225932
     9  H    0.275194
    10  H    0.275515
    11  H    0.223314
    12  N    0.488062
    13  O   -0.460572
    14  O   -0.460362
    15  C   -0.298599
    16  C   -0.300613
    17  C   -0.475678
    18  H    0.140376
    19  H    0.154322
    20  H    0.151819
    21  H    0.154143
    22  H    0.158405
    23  H    0.154266
    24  H    0.162942
    25  C   -0.299425
    26  C   -0.301417
    27  C   -0.475936
    28  H    0.149391
    29  H    0.153724
    30  H    0.141184
    31  H    0.156750
    32  H    0.159493
    33  H    0.155762
    34  H    0.158160
 Sum of Mulliken charges =  -0.00000

 Dipole moment (field-independent basis, Debye):
    X=             -3.2730    Y=             -4.0251    Z=              0.6564  Tot=              5.2293
 Quadrupole moment (field-independent basis, Debye-Ang):
   XX=           -109.8309   YY=            -93.4844   ZZ=            -93.5464
   XY=            -14.4246   XZ=              0.9292   YZ=              1.0914

 Normal termination of Gaussian 16 at Thu May  6 12:36:23 2021.
