 Gaussian 16, Revision A.03,
 Gaussian 16:  EM64L-G16RevA.03 25-Dec-2016

 -------------
 #p 6-31g* mp2
 -------------

 ------------------------------------------------------
 Input file generated by CHIRIPA (05-May-2021 14:55:22)
 ------------------------------------------------------
 Symbolic Z-matrix:
 Charge =  0 Multiplicity = 1

                         Standard orientation:
 ---------------------------------------------------------------------
 Center     Atomic      Atomic             Coordinates (Angstroms)
 Number     Number       Type             X           Y           Z
 ---------------------------------------------------------------------
      1          6           0        0.997167    0.429788    0.712132
      2          6           0        1.921269    0.043933    1.688693
      3          6           0        3.240893   -0.256557    1.338197
      4          6           0        3.603849   -0.160320   -0.004297
      5          6           0        2.706327    0.221268   -1.000358
      6          6           0        1.391949    0.517070   -0.626916
      7          1           0       -0.025911    0.661395    0.993319
      8          1           0        1.617486   -0.024710    2.729390
      9          1           0        3.976760   -0.557787    2.073845
     10          1           0        3.038757    0.280654   -2.029620
     11          1           0        0.676423    0.816466   -1.387461
     12          7           0        4.998099   -0.475954   -0.387498
     13          8           0        5.292870   -0.383536   -1.577122
     14          8           0        5.769739   -0.809789    0.509029
     15          6           0       -4.352534   -0.594258    0.137213
     16          6           0       -5.546501   -1.343210   -0.455662
     17          6           0       -5.600307   -2.808198   -0.021256
     18          1           0       -3.424765   -1.101108   -0.161601
     19          1           0       -4.400600   -0.651062    1.233506
     20          1           0       -5.496949   -1.283831   -1.550484
     21          1           0       -6.471527   -0.834406   -0.155560
     22          1           0       -5.674063   -2.884444    1.068399
     23          1           0       -4.693947   -3.336421   -0.334451
     24          1           0       -6.461505   -3.324646   -0.456549
     25          6           0       -4.285058    0.871505   -0.287892
     26          6           0       -3.091091    1.620456    0.304984
     27          6           0       -3.037285    3.085445   -0.129422
     28          1           0       -4.236992    0.928309   -1.384185
     29          1           0       -5.212828    1.378355    0.010923
     30          1           0       -2.166065    1.111653    0.004881
     31          1           0       -3.140644    1.561078    1.399806
     32          1           0       -3.943646    3.613668    0.183773
     33          1           0       -2.963529    3.161690   -1.219077
     34          1           0       -2.176087    3.601892    0.305871
 ---------------------------------------------------------------------

 SCF Done:  E(RHF) =  -669.535546136     A.U. after   15 cycles
 E2 =    -0.2091123766D+01 EUMP2 =    -0.67162666990201D+03

 The electronic state is 1-A.
 Alpha  occ. eigenvalues --  -20.60726 -20.60721 -15.85780 -11.31134 -11.27711
 Alpha  occ. eigenvalues --  -11.27704 -11.27394 -11.26714 -11.26701 -11.22888
 Alpha  occ. eigenvalues --  -11.22343 -11.22266 -11.22194 -11.22115 -11.21617
 Alpha  occ. eigenvalues --   -1.59802  -1.39356  -1.19306  -1.09352  -1.08698
 Alpha  occ. eigenvalues --   -1.04712  -1.04423  -0.96828  -0.95536  -0.87846
 Alpha  occ. eigenvalues --   -0.86107  -0.82376  -0.80533  -0.79146  -0.77423
 Alpha  occ. eigenvalues --   -0.71998  -0.71125  -0.70420  -0.65985  -0.64956
 Alpha  occ. eigenvalues --   -0.64718  -0.62070  -0.61810  -0.60233  -0.58452
 Alpha  occ. eigenvalues --   -0.56102  -0.55207  -0.53530  -0.53242  -0.53038
 Alpha  occ. eigenvalues --   -0.52802  -0.50770  -0.48824  -0.48753  -0.48742
 Alpha  occ. eigenvalues --   -0.47569  -0.46674  -0.46581  -0.44764  -0.44664
 Alpha  occ. eigenvalues --   -0.37278  -0.36321
 Alpha virt. eigenvalues --    0.05114   0.11332   0.16602   0.19422   0.22416
 Alpha virt. eigenvalues --    0.23742   0.25260   0.25913   0.27131   0.27311
 Alpha virt. eigenvalues --    0.29018   0.29993   0.30781   0.31299   0.32019

 Mulliken charges:
               1
     1  C   -0.176739
     2  C   -0.219387
     3  C   -0.170711
     4  C    0.158109
     5  C   -0.170889
     6  C   -0.221053
     7  H    0.235033
     8  H    0.223642
     9  H    0.275350
    10  H    0.275336
    11  H    0.222726
    12  N    0.488069
    13  O   -0.460657
    14  O   -0.460561
    15  C   -0.299204
    16  C   -0.300262
    17  C   -0.476304
    18  H    0.147970
    19  H    0.149806
    20  H    0.153174
    21  H    0.153552
    22  H    0.155653
    23  H    0.155923
    24  H    0.162628
    25  C   -0.297735
    26  C   -0.305635
    27  C   -0.476536
    28  H    0.151392
    29  H    0.153745
    30  H    0.142697
    31  H    0.152913
    32  H    0.160516
    33  H    0.156981
    34  H    0.160458
 Sum of Mulliken charges =  -0.00000

 Dipole moment (field-independent basis, Debye):
    X=             -5.1857    Y=              1.1357    Z=              1.3430  Tot=              5.4759
 Quadrupole moment (field-independent basis, Debye-Ang):
   XX=           -129.2732   YY=            -96.5158   ZZ=            -89.6031
   XY=              4.1068   XZ=              5.7727   YZ=             -0.8572

 Normal termination of Gaussian 16 at Wed May  5 22:18:23 2021.
