 Gaussian 16, Revision A.03,
 Gaussian 16:  EM64L-G16RevA.03 25-Dec-2016

 -------------
 #p 6-31g* mp2
 -------------

 ------------------------------------------------------
 Input file generated by CHIRIPA (05-May-2021 14:55:24)
 ------------------------------------------------------
 Symbolic Z-matrix:
 Charge =  0 Multiplicity = 1

                         Standard orientation:
 ---------------------------------------------------------------------
 Center     Atomic      Atomic             Coordinates (Angstroms)
 Number     Number       Type             X           Y           Z
 ---------------------------------------------------------------------
      1          6           0        1.503663   -0.892325    0.905406
      2          6           0        2.594089   -1.759279    1.031436
      3          6           0        3.849166   -1.398825    0.532033
      4          6           0        3.978675   -0.158249   -0.090453
      5          6           0        2.911377    0.727360   -0.231385
      6          6           0        1.665502    0.346044    0.275508
      7          1           0        0.532263   -1.180438    1.296264
      8          1           0        2.471338   -2.721638    1.520151
      9          1           0        4.710208   -2.050719    0.616043
     10          1           0        3.064669    1.680100   -0.723528
     11          1           0        0.820431    1.021351    0.176211
     12          7           0        5.302498    0.234390   -0.623113
     13          8           0        5.390485    1.332899   -1.167331
     14          8           0        6.227057   -0.563804   -0.486309
     15          6           0       -4.070569    0.445503   -0.073739
     16          6           0       -3.542998    1.404806    0.993681
     17          6           0       -2.055336    1.715505    0.825984
     18          1           0       -3.492999   -0.488278   -0.036163
     19          1           0       -3.895783    0.881379   -1.067146
     20          1           0       -3.719976    0.967874    1.984835
     21          1           0       -4.122016    2.336339    0.953687
     22          1           0       -1.865222    2.174425   -0.149644
     23          1           0       -1.460897    0.798185    0.887362
     24          1           0       -1.699109    2.403002    1.599490
     25          6           0       -5.556293    0.125277    0.080560
     26          6           0       -6.083865   -0.834027   -0.986861
     27          6           0       -7.571527   -1.144725   -0.819164
     28          1           0       -5.731079   -0.310599    1.073966
     29          1           0       -6.133864    1.059058    0.042983
     30          1           0       -5.504845   -1.765559   -0.946867
     31          1           0       -5.906887   -0.397093   -1.978014
     32          1           0       -8.165965   -0.227404   -0.880543
     33          1           0       -7.761640   -1.603645    0.156464
     34          1           0       -7.927753   -1.832222   -1.592670
 ---------------------------------------------------------------------

 SCF Done:  E(RHF) =  -669.535304341     A.U. after   15 cycles
 E2 =    -0.2091239539D+01 EUMP2 =    -0.67162654388019D+03

 The electronic state is 1-A.
 Alpha  occ. eigenvalues --  -20.60697 -20.60692 -15.85748 -11.31098 -11.27664
 Alpha  occ. eigenvalues --  -11.27638 -11.27402 -11.26693 -11.26591 -11.22592
 Alpha  occ. eigenvalues --  -11.22413 -11.22225 -11.22160 -11.22032 -11.21533
 Alpha  occ. eigenvalues --   -1.59773  -1.39327  -1.19263  -1.09216  -1.08666
 Alpha  occ. eigenvalues --   -1.04662  -1.04347  -0.96829  -0.95505  -0.87865
 Alpha  occ. eigenvalues --   -0.86058  -0.82334  -0.80435  -0.78987  -0.77380
 Alpha  occ. eigenvalues --   -0.71968  -0.71095  -0.70392  -0.65851  -0.64916
 Alpha  occ. eigenvalues --   -0.64685  -0.62057  -0.61710  -0.60197  -0.58398
 Alpha  occ. eigenvalues --   -0.56126  -0.55177  -0.53556  -0.53316  -0.52995
 Alpha  occ. eigenvalues --   -0.52640  -0.50771  -0.48789  -0.48724  -0.48655
 Alpha  occ. eigenvalues --   -0.47442  -0.46538  -0.46434  -0.44736  -0.44578
 Alpha  occ. eigenvalues --   -0.37251  -0.36261
 Alpha virt. eigenvalues --    0.05144   0.11386   0.16644   0.19914   0.22243
 Alpha virt. eigenvalues --    0.23678   0.25302   0.25632   0.26770   0.27436
 Alpha virt. eigenvalues --    0.28745   0.29793   0.30810   0.31532   0.31903

 Mulliken charges:
               1
     1  C   -0.174514
     2  C   -0.218354
     3  C   -0.171538
     4  C    0.158908
     5  C   -0.172522
     6  C   -0.224962
     7  H    0.225059
     8  H    0.222867
     9  H    0.275178
    10  H    0.275590
    11  H    0.236109
    12  N    0.487996
    13  O   -0.460572
    14  O   -0.460739
    15  C   -0.298539
    16  C   -0.300523
    17  C   -0.481815
    18  H    0.146641
    19  H    0.151568
    20  H    0.153806
    21  H    0.156769
    22  H    0.157698
    23  H    0.145260
    24  H    0.165659
    25  C   -0.298922
    26  C   -0.300090
    27  C   -0.476124
    28  H    0.150060
    29  H    0.151610
    30  H    0.151605
    31  H    0.153160
    32  H    0.156250
    33  H    0.155536
    34  H    0.161884
 Sum of Mulliken charges =  -0.00000

 Dipole moment (field-independent basis, Debye):
    X=             -4.9510    Y=             -1.3113    Z=              1.8703  Tot=              5.4525
 Quadrupole moment (field-independent basis, Debye-Ang):
   XX=           -131.9304   YY=            -90.0141   ZZ=            -95.0074
   XY=             -7.4200   XZ=              8.7545   YZ=             -2.2148

 Normal termination of Gaussian 16 at Thu May  6 01:35:45 2021.
