 Gaussian 16, Revision A.03,
 Gaussian 16:  EM64L-G16RevA.03 25-Dec-2016

 -------------
 #p 6-31g* mp2
 -------------

 ------------------------------------------------------
 Input file generated by CHIRIPA (05-May-2021 14:57:23)
 ------------------------------------------------------
 Symbolic Z-matrix:
 Charge =  0 Multiplicity = 1

                         Standard orientation:
 ---------------------------------------------------------------------
 Center     Atomic      Atomic             Coordinates (Angstroms)
 Number     Number       Type             X           Y           Z
 ---------------------------------------------------------------------
      1          6           0       -2.244344    1.750373    1.541583
      2          6           0       -3.592854    1.919841    1.210945
      3          6           0       -4.270820    0.945154    0.472774
      4          6           0       -3.566322   -0.191742    0.079785
      5          6           0       -2.222574   -0.389516    0.393658
      6          6           0       -1.564706    0.598266    1.132605
      7          1           0       -1.725490    2.512620    2.115313
      8          1           0       -4.123201    2.813567    1.527223
      9          1           0       -5.314620    1.050824    0.203085
     10          1           0       -1.720559   -1.291124    0.064259
     11          1           0       -0.517417    0.463980    1.387944
     12          7           0       -4.273415   -1.230532   -0.702094
     13          8           0       -3.630242   -2.223107   -1.036399
     14          8           0       -5.457419   -1.032490   -0.965821
     15          6           0        4.766441   -1.747547    1.018632
     16          6           0        5.426226   -0.656332    0.443779
     17          6           0        4.706843    0.329290   -0.238561
     18          6           0        3.322495    0.191469   -0.327298
     19          6           0        2.636375   -0.883974    0.234799
     20          6           0        3.376073   -1.857691    0.912494
     21          1           0        5.333166   -2.508577    1.546885
     22          1           0        6.505920   -0.568195    0.524634
     23          1           0        5.192250    1.184449   -0.692985
     24          1           0        1.559197   -0.944467    0.137620
     25          1           0        2.861016   -2.704055    1.357948
     26          7           0        2.550163    1.228601   -1.047202
     27          8           0        1.331299    1.084076   -1.111382
     28          8           0        3.178298    2.166391   -1.533651
 ---------------------------------------------------------------------

 SCF Done:  E(RHF) =  -868.337824268     A.U. after   16 cycles
 E2 =    -0.2599930986D+01 EUMP2 =    -0.87093775525404D+03

 The electronic state is 1-A.
 Alpha  occ. eigenvalues --  -20.61459 -20.61433 -20.60383 -20.60376 -15.86486
 Alpha  occ. eigenvalues --  -15.85432 -11.31846 -11.30692 -11.28470 -11.28345
 Alpha  occ. eigenvalues --  -11.28069 -11.27402 -11.27353 -11.27272 -11.27233
 Alpha  occ. eigenvalues --  -11.26935 -11.26245 -11.26233  -1.60517  -1.59457
 Alpha  occ. eigenvalues --   -1.40074  -1.39015  -1.19994  -1.18839  -1.09379
 Alpha  occ. eigenvalues --   -1.08250  -1.05396  -1.04240  -0.96225  -0.95113
 Alpha  occ. eigenvalues --   -0.86791  -0.85643  -0.83057  -0.81961  -0.78133
 Alpha  occ. eigenvalues --   -0.77023  -0.72699  -0.71841  -0.71658  -0.71093
 Alpha  occ. eigenvalues --   -0.70772  -0.69965  -0.65643  -0.65392  -0.64505
 Alpha  occ. eigenvalues --   -0.64259  -0.62768  -0.61601  -0.55863  -0.54740
 Alpha  occ. eigenvalues --   -0.53716  -0.53483  -0.52537  -0.52355  -0.49469
 Alpha  occ. eigenvalues --   -0.49451  -0.48417  -0.48402  -0.45473  -0.44445
 Alpha  occ. eigenvalues --   -0.37947  -0.36996  -0.36782  -0.35795
 Alpha virt. eigenvalues --    0.04380   0.05520   0.10595   0.11854   0.15925
 Alpha virt. eigenvalues --    0.17035   0.19397   0.21984   0.25033   0.27211
 Alpha virt. eigenvalues --    0.28533   0.29052   0.30793   0.31106   0.32448

 Mulliken charges:
               1
     1  C   -0.169968
     2  C   -0.218016
     3  C   -0.171427
     4  C    0.158480
     5  C   -0.168706
     6  C   -0.205169
     7  H    0.225379
     8  H    0.222162
     9  H    0.274089
    10  H    0.267971
    11  H    0.219361
    12  N    0.488502
    13  O   -0.463004
    14  O   -0.461279
    15  C   -0.170433
    16  C   -0.217808
    17  C   -0.170516
    18  C    0.158887
    19  C   -0.175514
    20  C   -0.217985
    21  H    0.228305
    22  H    0.225919
    23  H    0.277224
    24  H    0.270388
    25  H    0.225805
    26  N    0.488133
    27  O   -0.464006
    28  O   -0.456774
 Sum of Mulliken charges =  -0.00000

 Dipole moment (field-independent basis, Debye):
    X=              5.5278    Y=              0.1029    Z=              5.2665  Tot=              7.6356
 Quadrupole moment (field-independent basis, Debye-Ang):
   XX=            -96.9483   YY=           -105.7380   ZZ=           -107.4628
   XY=            -26.0052   XZ=             -3.0447   YZ=              0.8765

 Normal termination of Gaussian 16 at Thu May  6 03:23:52 2021.
