 Gaussian 16, Revision A.03,
 Gaussian 16:  EM64L-G16RevA.03 25-Dec-2016

 -------------
 #p 6-31g* mp2
 -------------

 ------------------------------------------------------
 Input file generated by CHIRIPA (05-May-2021 14:55:25)
 ------------------------------------------------------
 Symbolic Z-matrix:
 Charge =  0 Multiplicity = 1

                         Standard orientation:
 ---------------------------------------------------------------------
 Center     Atomic      Atomic             Coordinates (Angstroms)
 Number     Number       Type             X           Y           Z
 ---------------------------------------------------------------------
      1          6           0       -5.381262    0.448086    1.271905
      2          6           0       -4.154228    1.072136    1.519832
      3          6           0       -3.008083    0.689294    0.816744
      4          6           0       -3.125623   -0.325735   -0.131512
      5          6           0       -4.333891   -0.966578   -0.401138
      6          6           0       -5.467027   -0.567489    0.313900
      7          1           0       -6.266562    0.751797    1.822722
      8          1           0       -4.084654    1.861140    2.263255
      9          1           0       -2.045574    1.155572    0.988731
     10          1           0       -4.371971   -1.749991   -1.148287
     11          1           0       -6.418639   -1.053900    0.119265
     12          7           0       -1.919136   -0.739633   -0.882165
     13          8           0       -2.049093   -1.636496   -1.712456
     14          8           0       -0.866381   -0.159344   -0.626022
     15          6           0        4.994892    0.188832    0.138967
     16          6           0        5.245235   -1.151080    0.831749
     17          6           0        6.729546   -1.418452    1.082993
     18          1           0        5.539085    0.208364   -0.815192
     19          1           0        5.414732    0.996197    0.754833
     20          1           0        4.823827   -1.955557    0.215430
     21          1           0        4.700228   -1.167500    1.784279
     22          1           0        7.159933   -0.636471    1.716928
     23          1           0        7.284234   -1.429006    0.139165
     24          1           0        6.885658   -2.381483    1.579038
     25          6           0        3.515741    0.470418   -0.119011
     26          6           0        3.265398    1.810330   -0.811792
     27          6           0        1.781087    2.077702   -1.063036
     28          1           0        3.095902   -0.336947   -0.734876
     29          1           0        2.971549    0.450886    0.835148
     30          1           0        3.810406    1.826749   -1.764323
     31          1           0        3.686806    2.614808   -0.195474
     32          1           0        1.226399    2.088256   -0.119208
     33          1           0        1.350700    1.295721   -1.696972
     34          1           0        1.624975    3.040733   -1.559081
 ---------------------------------------------------------------------

 SCF Done:  E(RHF) =  -669.535665118     A.U. after   15 cycles
 E2 =    -0.2091112307D+01 EUMP2 =    -0.67162677742466D+03

 The electronic state is 1-A.
 Alpha  occ. eigenvalues --  -20.60876 -20.60862 -15.85904 -11.31251 -11.27818
 Alpha  occ. eigenvalues --  -11.27815 -11.27560 -11.26831 -11.26821 -11.20910
 Alpha  occ. eigenvalues --  -11.20581 -11.20551 -11.20518 -11.20307 -11.19665
 Alpha  occ. eigenvalues --   -1.59940  -1.39494  -1.19423  -1.08824  -1.07523
 Alpha  occ. eigenvalues --   -1.04822  -1.02610  -0.95667  -0.95037  -0.86223
 Alpha  occ. eigenvalues --   -0.86053  -0.82496  -0.78699  -0.77554  -0.77279
 Alpha  occ. eigenvalues --   -0.72131  -0.71254  -0.70532  -0.65078  -0.64827
 Alpha  occ. eigenvalues --   -0.64164  -0.62170  -0.60016  -0.58451  -0.56637
 Alpha  occ. eigenvalues --   -0.55327  -0.54324  -0.53153  -0.52915  -0.51772
 Alpha  occ. eigenvalues --   -0.51432  -0.49090  -0.48889  -0.48775  -0.46971
 Alpha  occ. eigenvalues --   -0.45738  -0.44939  -0.44819  -0.44698  -0.42877
 Alpha  occ. eigenvalues --   -0.37403  -0.36425
 Alpha virt. eigenvalues --    0.04978   0.11230   0.16465   0.21222   0.23696
 Alpha virt. eigenvalues --    0.25019   0.26759   0.27574   0.27805   0.28463
 Alpha virt. eigenvalues --    0.29235   0.30737   0.31737   0.32541   0.32788

 Mulliken charges:
               1
     1  C   -0.170638
     2  C   -0.218650
     3  C   -0.170771
     4  C    0.157862
     5  C   -0.170687
     6  C   -0.218610
     7  H    0.225822
     8  H    0.223709
     9  H    0.276085
    10  H    0.275711
    11  H    0.223635
    12  N    0.491617
    13  O   -0.460278
    14  O   -0.461945
    15  C   -0.297835
    16  C   -0.298979
    17  C   -0.475165
    18  H    0.148129
    19  H    0.145970
    20  H    0.153786
    21  H    0.150415
    22  H    0.153318
    23  H    0.154502
    24  H    0.158402
    25  C   -0.297027
    26  C   -0.300291
    27  C   -0.475000
    28  H    0.158302
    29  H    0.147868
    30  H    0.148729
    31  H    0.145084
    32  H    0.150759
    33  H    0.176477
    34  H    0.149697
 Sum of Mulliken charges =  -0.00000

 Dipole moment (field-independent basis, Debye):
    X=             -4.5299    Y=              1.3233    Z=              2.5717  Tot=              5.3745
 Quadrupole moment (field-independent basis, Debye-Ang):
   XX=            -69.3930   YY=            -94.3903   ZZ=            -94.0511
   XY=             -1.1934   XZ=             -6.9102   YZ=              1.6475

 Normal termination of Gaussian 16 at Wed May  5 17:39:45 2021.
