 Gaussian 16, Revision A.03,
 Gaussian 16:  EM64L-G16RevA.03 25-Dec-2016

 -------------
 #p 6-31g* mp2
 -------------

 ------------------------------------------------------
 Input file generated by CHIRIPA (05-May-2021 14:53:16)
 ------------------------------------------------------
 Symbolic Z-matrix:
 Charge =  0 Multiplicity = 1

                         Standard orientation:
 ---------------------------------------------------------------------
 Center     Atomic      Atomic             Coordinates (Angstroms)
 Number     Number       Type             X           Y           Z
 ---------------------------------------------------------------------
      1          6           0       -3.775011   -0.171938   -0.384615
      2          6           0       -4.511821   -1.486973   -0.128144
      3          6           0       -4.998828   -2.152561   -1.415627
      4          1           0       -4.440952    0.514791   -0.924866
      5          1           0       -2.918863   -0.362460   -1.046512
      6          1           0       -5.365516   -1.294262    0.534188
      7          1           0       -3.844113   -2.170582    0.411728
      8          1           0       -4.155528   -2.373360   -2.077966
      9          1           0       -5.685575   -1.492061   -1.954810
     10          1           0       -5.522747   -3.091017   -1.209066
     11          6           0       -3.282042    0.505401    0.892851
     12          6           0       -2.545232    1.820437    0.636379
     13          6           0       -2.058225    2.486024    1.923862
     14          1           0       -4.138190    0.695923    1.554748
     15          1           0       -2.616101   -0.181327    1.433102
     16          1           0       -3.212940    2.504046    0.096508
     17          1           0       -1.691537    1.627726   -0.025952
     18          1           0       -1.371478    1.825524    2.463046
     19          1           0       -2.901525    2.706824    2.586202
     20          1           0       -1.534306    3.424481    1.717302
     21          6           0        3.671815   -2.089231    1.101796
     22          6           0        2.289484   -1.920605    0.970463
     23          6           0        1.771230   -0.838882    0.252245
     24          6           0        2.668188    0.059127   -0.324240
     25          6           0        4.050456   -0.081715   -0.211156
     26          6           0        4.546347   -1.170868    0.511608
     27          1           0        4.065721   -2.932424    1.661491
     28          1           0        1.607939   -2.632248    1.427745
     29          1           0        0.705503   -0.684369    0.134894
     30          1           0        4.704865    0.644233   -0.678238
     31          1           0        5.620347   -1.299312    0.611959
     32          7           0        2.131372    1.208231   -1.086992
     33          8           0        2.942690    1.985407   -1.585387
     34          8           0        0.909464    1.309963   -1.172000
 ---------------------------------------------------------------------

 SCF Done:  E(RHF) =  -669.536083875     A.U. after   15 cycles
 E2 =    -0.2091339114D+01 EUMP2 =    -0.67162742298922D+03

 The electronic state is 1-A.
 Alpha  occ. eigenvalues --  -20.60946 -20.60934 -15.85985 -11.31300 -11.27870
 Alpha  occ. eigenvalues --  -11.27859 -11.27598 -11.26872 -11.26861 -11.21455
 Alpha  occ. eigenvalues --  -11.21068 -11.21004 -11.20937 -11.20756 -11.20484
 Alpha  occ. eigenvalues --   -1.60006  -1.39563  -1.19469  -1.08872  -1.08052
 Alpha  occ. eigenvalues --   -1.04866  -1.03113  -0.95717  -0.95602  -0.86623
 Alpha  occ. eigenvalues --   -0.86266  -0.82554  -0.79185  -0.77844  -0.77588
 Alpha  occ. eigenvalues --   -0.72212  -0.71320  -0.70578  -0.65131  -0.64878
 Alpha  occ. eigenvalues --   -0.64683  -0.62215  -0.60509  -0.58971  -0.57183
 Alpha  occ. eigenvalues --   -0.55369  -0.54912  -0.53196  -0.52958  -0.52286
 Alpha  occ. eigenvalues --   -0.52019  -0.49574  -0.48972  -0.48956  -0.47494
 Alpha  occ. eigenvalues --   -0.46219  -0.45404  -0.45294  -0.44898  -0.43385
 Alpha  occ. eigenvalues --   -0.37446  -0.36467
 Alpha virt. eigenvalues --    0.04913   0.11183   0.16403   0.20281   0.22708
 Alpha virt. eigenvalues --    0.24463   0.26230   0.27478   0.27776   0.28227
 Alpha virt. eigenvalues --    0.29125   0.30976   0.31620   0.32100   0.32354

 Mulliken charges:
               1
     1  C   -0.299155
     2  C   -0.298444
     3  C   -0.475386
     4  H    0.151634
     5  H    0.152210
     6  H    0.151711
     7  H    0.146342
     8  H    0.154984
     9  H    0.156537
    10  H    0.158485
    11  C   -0.296552
    12  C   -0.313064
    13  C   -0.473672
    14  H    0.147678
    15  H    0.139542
    16  H    0.151226
    17  H    0.179300
    18  H    0.148386
    19  H    0.151067
    20  H    0.164336
    21  C   -0.170537
    22  C   -0.218698
    23  C   -0.171225
    24  C    0.158123
    25  C   -0.170773
    26  C   -0.218537
    27  H    0.226092
    28  H    0.223974
    29  H    0.276014
    30  H    0.275880
    31  H    0.223889
    32  N    0.494099
    33  O   -0.458834
    34  O   -0.466637
 Sum of Mulliken charges =  -0.00000

 Dipole moment (field-independent basis, Debye):
    X=              2.0682    Y=             -3.9490    Z=              2.5418  Tot=              5.1315
 Quadrupole moment (field-independent basis, Debye-Ang):
   XX=            -79.9191   YY=            -95.4611   ZZ=            -98.1180
   XY=            -10.1665   XZ=              5.6564   YZ=              0.3459

 Normal termination of Gaussian 16 at Thu May  6 12:11:44 2021.
