 Gaussian 16, Revision A.03,
 Gaussian 16:  EM64L-G16RevA.03 25-Dec-2016

 -------------
 #p 6-31g* mp2
 -------------

 ------------------------------------------------------
 Input file generated by CHIRIPA (05-May-2021 14:55:24)
 ------------------------------------------------------
 Symbolic Z-matrix:
 Charge =  0 Multiplicity = 1

                         Standard orientation:
 ---------------------------------------------------------------------
 Center     Atomic      Atomic             Coordinates (Angstroms)
 Number     Number       Type             X           Y           Z
 ---------------------------------------------------------------------
      1          6           0        0.734429    2.484460   -0.105756
      2          6           0        0.653548    1.622171    0.992624
      3          6           0        1.557706    0.565208    1.133607
      4          6           0        2.534506    0.399024    0.153029
      5          6           0        2.640868    1.241266   -0.952687
      6          6           0        1.726082    2.291595   -1.073200
      7          1           0        0.027929    3.302957   -0.207325
      8          1           0       -0.115546    1.769550    1.745497
      9          1           0        1.517837   -0.117240    1.973901
     10          1           0        3.418463    1.069039   -1.686922
     11          1           0        1.791279    2.959699   -1.927268
     12          7           0        3.497323   -0.716424    0.291447
     13          8           0        4.348663   -0.841462   -0.586177
     14          8           0        3.382408   -1.444552    1.274941
     15          6           0       -2.693149   -1.410560   -0.311052
     16          6           0       -1.169687   -1.296240   -0.374117
     17          6           0       -0.487984   -2.633855   -0.663708
     18          1           0       -2.968047   -2.139176    0.463864
     19          1           0       -3.063434   -1.813129   -1.264058
     20          1           0       -0.802505   -0.892708    0.578225
     21          1           0       -0.898391   -0.567669   -1.148841
     22          1           0       -0.826076   -3.038821   -1.623030
     23          1           0       -0.729645   -3.365707    0.113849
     24          1           0        0.600698   -2.529102   -0.704436
     25          6           0       -3.388955   -0.081572   -0.022302
     26          6           0       -4.912418   -0.195890    0.040765
     27          6           0       -5.594121    1.141724    0.330354
     28          1           0       -3.018670    0.320997    0.930706
     29          1           0       -3.114059    0.647045   -0.797217
     30          1           0       -5.183714   -0.924462    0.815489
     31          1           0       -5.279599   -0.599424   -0.911577
     32          1           0       -5.352459    1.873575   -0.447202
     33          1           0       -5.256030    1.546690    1.289676
     34          1           0       -6.682803    1.036972    0.371083
 ---------------------------------------------------------------------

 SCF Done:  E(RHF) =  -669.534085215     A.U. after   15 cycles
 E2 =    -0.2094278889D+01 EUMP2 =    -0.67162836410460D+03

 The electronic state is 1-A.
 Alpha  occ. eigenvalues --  -20.60813 -20.60805 -15.85862 -11.31208 -11.27775
 Alpha  occ. eigenvalues --  -11.27760 -11.27504 -11.26793 -11.26755 -11.22006
 Alpha  occ. eigenvalues --  -11.21855 -11.21635 -11.21572 -11.21539 -11.20958
 Alpha  occ. eigenvalues --   -1.59887  -1.39439  -1.19386  -1.08784  -1.08727
 Alpha  occ. eigenvalues --   -1.04802  -1.03756  -0.96220  -0.95617  -0.87226
 Alpha  occ. eigenvalues --   -0.86184  -0.82459  -0.79846  -0.78565  -0.77498
 Alpha  occ. eigenvalues --   -0.72077  -0.71215  -0.70492  -0.65381  -0.65034
 Alpha  occ. eigenvalues --   -0.64792  -0.62150  -0.61157  -0.59617  -0.57859
 Alpha  occ. eigenvalues --   -0.55518  -0.55281  -0.53211  -0.52883  -0.52793
 Alpha  occ. eigenvalues --   -0.52639  -0.50164  -0.48837  -0.48834  -0.48132
 Alpha  occ. eigenvalues --   -0.46904  -0.46080  -0.46022  -0.44841  -0.44025
 Alpha  occ. eigenvalues --   -0.37352  -0.36234
 Alpha virt. eigenvalues --    0.05017   0.11182   0.16417   0.20659   0.22770
 Alpha virt. eigenvalues --    0.23943   0.25433   0.26698   0.27339   0.28287
 Alpha virt. eigenvalues --    0.28718   0.30784   0.31214   0.31550   0.31703

 Mulliken charges:
               1
     1  C   -0.171072
     2  C   -0.213511
     3  C   -0.170544
     4  C    0.159385
     5  C   -0.171853
     6  C   -0.218947
     7  H    0.225955
     8  H    0.223731
     9  H    0.275455
    10  H    0.275633
    11  H    0.223427
    12  N    0.487860
    13  O   -0.460172
    14  O   -0.460329
    15  C   -0.298431
    16  C   -0.299299
    17  C   -0.476520
    18  H    0.150323
    19  H    0.150426
    20  H    0.147940
    21  H    0.151915
    22  H    0.154870
    23  H    0.156614
    24  H    0.163722
    25  C   -0.296342
    26  C   -0.299615
    27  C   -0.475609
    28  H    0.141918
    29  H    0.146982
    30  H    0.153535
    31  H    0.153830
    32  H    0.153542
    33  H    0.152885
    34  H    0.162298
 Sum of Mulliken charges =  -0.00000

 Dipole moment (field-independent basis, Debye):
    X=             -3.3576    Y=              3.8979    Z=             -0.5118  Tot=              5.1700
 Quadrupole moment (field-independent basis, Debye-Ang):
   XX=           -112.0899   YY=            -92.5218   ZZ=            -90.5568
   XY=             10.0042   XZ=             -3.7012   YZ=             -1.3624

 Normal termination of Gaussian 16 at Thu May  6 12:39:31 2021.
