 Gaussian 16, Revision A.03,
 Gaussian 16:  EM64L-G16RevA.03 25-Dec-2016

 -------------
 #p 6-31g* mp2
 -------------

 ------------------------------------------------------
 Input file generated by CHIRIPA (05-May-2021 14:55:22)
 ------------------------------------------------------
 Symbolic Z-matrix:
 Charge =  0 Multiplicity = 1

                         Standard orientation:
 ---------------------------------------------------------------------
 Center     Atomic      Atomic             Coordinates (Angstroms)
 Number     Number       Type             X           Y           Z
 ---------------------------------------------------------------------
      1          6           0       -2.389314    2.304870   -0.802972
      2          6           0       -3.710210    1.896197   -0.591448
      3          6           0       -3.992083    0.590216   -0.179735
      4          6           0       -2.923960   -0.284836    0.011808
      5          6           0       -1.597306    0.092381   -0.190641
      6          6           0       -1.338930    1.403247   -0.602247
      7          1           0       -2.179475    3.321285   -1.122759
      8          1           0       -4.527950    2.594258   -0.746552
      9          1           0       -5.005311    0.247404   -0.008658
     10          1           0       -0.803192   -0.626147   -0.027796
     11          1           0       -0.312123    1.717858   -0.765752
     12          7           0       -3.209929   -1.670005    0.447614
     13          8           0       -2.251140   -2.421791    0.609415
     14          8           0       -4.387446   -1.977688    0.619144
     15          6           0        3.909737    0.788858    0.212379
     16          6           0        2.759516    1.734719    0.559253
     17          6           0        3.230327    3.164415    0.827771
     18          1           0        4.636756    0.788404    1.036023
     19          1           0        4.438174    1.173826   -0.670768
     20          1           0        2.232554    1.347347    1.440654
     21          1           0        2.035057    1.732775   -0.265229
     22          1           0        3.737794    3.574416   -0.051419
     23          1           0        3.936413    3.186798    1.664158
     24          1           0        2.392003    3.823626    1.073770
     25          6           0        3.454945   -0.644107   -0.058733
     26          6           0        4.605166   -1.589969   -0.405607
     27          6           0        4.134356   -3.019665   -0.674125
     28          1           0        2.926509   -1.029076    0.824414
     29          1           0        2.727927   -0.643654   -0.882377
     30          1           0        5.329626   -1.588024    0.418876
     31          1           0        5.132130   -1.202596   -1.287009
     32          1           0        3.428269   -3.042048   -1.510511
     33          1           0        3.626888   -3.429666    0.205065
     34          1           0        4.972680   -3.678875   -0.920124
 ---------------------------------------------------------------------

 SCF Done:  E(RHF) =  -669.535615864     A.U. after   15 cycles
 E2 =    -0.2091256333D+01 EUMP2 =    -0.67162687219715D+03

 The electronic state is 1-A.
 Alpha  occ. eigenvalues --  -20.60714 -20.60709 -15.85767 -11.31119 -11.27692
 Alpha  occ. eigenvalues --  -11.27667 -11.27428 -11.26710 -11.26657 -11.22499
 Alpha  occ. eigenvalues --  -11.21987 -11.21902 -11.21841 -11.21817 -11.21167
 Alpha  occ. eigenvalues --   -1.59790  -1.39344  -1.19290  -1.08988  -1.08689
 Alpha  occ. eigenvalues --   -1.04689  -1.04044  -0.96459  -0.95526  -0.87477
 Alpha  occ. eigenvalues --   -0.86091  -0.82360  -0.80154  -0.78787  -0.77399
 Alpha  occ. eigenvalues --   -0.71985  -0.71113  -0.70401  -0.65636  -0.64941
 Alpha  occ. eigenvalues --   -0.64695  -0.62068  -0.61414  -0.59860  -0.58076
 Alpha  occ. eigenvalues --   -0.55728  -0.55198  -0.53171  -0.53023  -0.52915
 Alpha  occ. eigenvalues --   -0.52755  -0.50395  -0.48755  -0.48741  -0.48420
 Alpha  occ. eigenvalues --   -0.47182  -0.46317  -0.46211  -0.44752  -0.44299
 Alpha  occ. eigenvalues --   -0.37276  -0.36290
 Alpha virt. eigenvalues --    0.05124   0.11354   0.16610   0.19628   0.22758
 Alpha virt. eigenvalues --    0.23711   0.24912   0.26093   0.27189   0.28326
 Alpha virt. eigenvalues --    0.29576   0.30049   0.31161   0.31393   0.32274

 Mulliken charges:
               1
     1  C   -0.172597
     2  C   -0.218520
     3  C   -0.171250
     4  C    0.158653
     5  C   -0.174581
     6  C   -0.224223
     7  H    0.225742
     8  H    0.223048
     9  H    0.275296
    10  H    0.276745
    11  H    0.233167
    12  N    0.488096
    13  O   -0.460470
    14  O   -0.460795
    15  C   -0.297482
    16  C   -0.305640
    17  C   -0.475746
    18  H    0.153417
    19  H    0.150708
    20  H    0.155898
    21  H    0.142613
    22  H    0.156400
    23  H    0.159890
    24  H    0.158574
    25  C   -0.300095
    26  C   -0.300114
    27  C   -0.476611
    28  H    0.152763
    29  H    0.145281
    30  H    0.153352
    31  H    0.151930
    32  H    0.156082
    33  H    0.158998
    34  H    0.161470
 Sum of Mulliken charges =  -0.00000

 Dipole moment (field-independent basis, Debye):
    X=              1.2130    Y=              4.8282    Z=             -1.4650  Tot=              5.1894
 Quadrupole moment (field-independent basis, Debye-Ang):
   XX=            -95.1775   YY=            -98.8509   ZZ=            -94.6823
   XY=            -16.1715   XZ=              4.8320   YZ=              0.0825

 Normal termination of Gaussian 16 at Wed May  5 17:30:48 2021.
