 Gaussian 16, Revision A.03,
 Gaussian 16:  EM64L-G16RevA.03 25-Dec-2016

 -------------
 #p 6-31g* mp2
 -------------

 ------------------------------------------------------
 Input file generated by CHIRIPA (05-May-2021 14:57:26)
 ------------------------------------------------------
 Symbolic Z-matrix:
 Charge =  0 Multiplicity = 1

                         Standard orientation:
 ---------------------------------------------------------------------
 Center     Atomic      Atomic             Coordinates (Angstroms)
 Number     Number       Type             X           Y           Z
 ---------------------------------------------------------------------
      1          6           0       -1.567348   -0.616358    0.559721
      2          6           0       -2.038660   -0.527190   -0.754217
      3          6           0       -3.367283   -0.174908   -1.009574
      4          6           0       -4.200856    0.082616    0.077684
      5          6           0       -3.760979    0.002147    1.398033
      6          6           0       -2.428493   -0.351872    1.629767
      7          1           0       -0.533741   -0.890694    0.748913
      8          1           0       -1.372141   -0.732040   -1.587184
      9          1           0       -3.758367   -0.098490   -2.016863
     10          1           0       -4.449186    0.212190    2.207769
     11          1           0       -2.065213   -0.420347    2.651228
     12          7           0       -5.609454    0.456480   -0.180146
     13          8           0       -6.323749    0.678431    0.795126
     14          8           0       -5.972546    0.520485   -1.352624
     15          6           0        5.161706    2.184167    0.162504
     16          6           0        5.718915    1.014281    0.689196
     17          6           0        5.066691   -0.213099    0.538563
     18          6           0        3.853367   -0.234186   -0.147506
     19          6           0        3.272697    0.914137   -0.683667
     20          6           0        3.942524    2.130456   -0.521041
     21          1           0        5.675206    3.133329    0.284178
     22          1           0        6.665619    1.052994    1.220511
     23          1           0        5.475557   -1.134019    0.936245
     24          1           0        2.327634    0.843943   -1.208401
     25          1           0        3.507429    3.037409   -0.931131
     26          7           0        3.153569   -1.527704   -0.313322
     27          8           0        2.085760   -1.519601   -0.921892
     28          8           0        3.686125   -2.525172    0.168420
 ---------------------------------------------------------------------

 SCF Done:  E(RHF) =  -868.340051347     A.U. after   16 cycles
 E2 =    -0.2598480801D+01 EUMP2 =    -0.87093853214797D+03

 The electronic state is 1-A.
 Alpha  occ. eigenvalues --  -20.61974 -20.61897 -20.60350 -20.60344 -15.86959
 Alpha  occ. eigenvalues --  -15.85399 -11.32060 -11.30627 -11.28617 -11.28568
 Alpha  occ. eigenvalues --  -11.28257 -11.27537 -11.27518 -11.27208 -11.27163
 Alpha  occ. eigenvalues --  -11.26742 -11.26156 -11.26037  -1.60994  -1.59429
 Alpha  occ. eigenvalues --   -1.40558  -1.38986  -1.20202  -1.18772  -1.09639
 Alpha  occ. eigenvalues --   -1.08160  -1.05561  -1.04158  -0.96520  -0.95023
 Alpha  occ. eigenvalues --   -0.86971  -0.85537  -0.83363  -0.81869  -0.78449
 Alpha  occ. eigenvalues --   -0.76962  -0.73186  -0.72306  -0.71617  -0.71297
 Alpha  occ. eigenvalues --   -0.70753  -0.69786  -0.65853  -0.65550  -0.64403
 Alpha  occ. eigenvalues --   -0.64124  -0.62913  -0.61507  -0.56054  -0.54544
 Alpha  occ. eigenvalues --   -0.53906  -0.53643  -0.52499  -0.52223  -0.49956
 Alpha  occ. eigenvalues --   -0.49902  -0.48383  -0.48361  -0.46006  -0.44423
 Alpha  occ. eigenvalues --   -0.38158  -0.37153  -0.36709  -0.35784
 Alpha virt. eigenvalues --    0.04034   0.05568   0.10500   0.11879   0.15563
 Alpha virt. eigenvalues --    0.17111   0.20546   0.22132   0.26457   0.27134
 Alpha virt. eigenvalues --    0.28206   0.28941   0.30560   0.31795   0.31858

 Mulliken charges:
               1
     1  C   -0.174816
     2  C   -0.222715
     3  C   -0.172488
     4  C    0.157596
     5  C   -0.171964
     6  C   -0.219618
     7  H    0.237135
     8  H    0.231662
     9  H    0.273590
    10  H    0.273178
    11  H    0.221218
    12  N    0.488196
    13  O   -0.462364
    14  O   -0.461961
    15  C   -0.169841
    16  C   -0.218356
    17  C   -0.170648
    18  C    0.157183
    19  C   -0.171755
    20  C   -0.218124
    21  H    0.228844
    22  H    0.226289
    23  H    0.277012
    24  H    0.272264
    25  H    0.226446
    26  N    0.488656
    27  O   -0.470797
    28  O   -0.453823
 Sum of Mulliken charges =  -0.00000

 Dipole moment (field-independent basis, Debye):
    X=              7.9703    Y=              3.2442    Z=              1.4971  Tot=              8.7345
 Quadrupole moment (field-independent basis, Debye-Ang):
   XX=           -125.3099   YY=           -106.9964   ZZ=            -99.5074
   XY=             21.5870   XZ=              0.0225   YZ=             -1.8189

 Normal termination of Gaussian 16 at Wed May  5 18:00:50 2021.
