 Gaussian 16, Revision A.03,
 Gaussian 16:  EM64L-G16RevA.03 25-Dec-2016

 -------------
 #p 6-31g* mp2
 -------------

 ------------------------------------------------------
 Input file generated by CHIRIPA (05-May-2021 14:53:12)
 ------------------------------------------------------
 Symbolic Z-matrix:
 Charge =  0 Multiplicity = 1

                         Standard orientation:
 ---------------------------------------------------------------------
 Center     Atomic      Atomic             Coordinates (Angstroms)
 Number     Number       Type             X           Y           Z
 ---------------------------------------------------------------------
      1          6           0        3.731625   -0.287580    0.504545
      2          6           0        3.461776   -1.662493   -0.107649
      3          6           0        3.951572   -2.809729    0.776514
      4          1           0        4.809851   -0.178796    0.684935
      5          1           0        3.242883   -0.229028    1.486939
      6          1           0        3.949726   -1.717935   -1.089203
      7          1           0        2.384090   -1.767941   -0.286780
      8          1           0        3.455978   -2.782674    1.752350
      9          1           0        5.030510   -2.732384    0.945368
     10          1           0        3.748597   -3.783421    0.319804
     11          6           0        3.247656    0.869483   -0.367639
     12          6           0        3.517504    2.244396    0.244555
     13          6           0        3.027709    3.391632   -0.639608
     14          1           0        3.736398    0.810932   -1.350033
     15          1           0        2.169430    0.760700   -0.548029
     16          1           0        4.595191    2.349845    0.423686
     17          1           0        3.029555    2.299839    1.226109
     18          1           0        1.948771    3.314287   -0.808461
     19          1           0        3.523303    3.364577   -1.615444
     20          1           0        3.230683    4.365325   -0.182898
     21          6           0       -4.440866    1.527733    0.534705
     22          6           0       -3.088062    1.872367    0.447139
     23          6           0       -2.129345    0.908167    0.121984
     24          6           0       -2.560522   -0.396976   -0.110342
     25          6           0       -3.900951   -0.771415   -0.030752
     26          6           0       -4.842285    0.209266    0.295901
     27          1           0       -5.178869    2.283149    0.787876
     28          1           0       -2.773425    2.895523    0.632081
     29          1           0       -1.075516    1.147556    0.047440
     30          1           0       -4.184158   -1.799609   -0.220569
     31          1           0       -5.892207   -0.061256    0.363198
     32          7           0       -1.554772   -1.426457   -0.455362
     33          8           0       -1.960339   -2.569314   -0.655436
     34          8           0       -0.379943   -1.071012   -0.519183
 ---------------------------------------------------------------------

 SCF Done:  E(RHF) =  -669.536433475     A.U. after   15 cycles
 E2 =    -0.2091715585D+01 EUMP2 =    -0.67162814906075D+03

 The electronic state is 1-A.
 Alpha  occ. eigenvalues --  -20.61057 -20.61049 -15.86085 -11.31360 -11.27921
 Alpha  occ. eigenvalues --  -11.27912 -11.27643 -11.26913 -11.26903 -11.21185
 Alpha  occ. eigenvalues --  -11.20911 -11.20576 -11.20426 -11.20162 -11.19962
 Alpha  occ. eigenvalues --   -1.60110  -1.39669  -1.19522  -1.08934  -1.07590
 Alpha  occ. eigenvalues --   -1.04912  -1.02725  -0.95784  -0.95226  -0.86315
 Alpha  occ. eigenvalues --   -0.86255  -0.82623  -0.78818  -0.77698  -0.77292
 Alpha  occ. eigenvalues --   -0.72311  -0.71419  -0.70631  -0.65185  -0.64914
 Alpha  occ. eigenvalues --   -0.64211  -0.62261  -0.60120  -0.58639  -0.56796
 Alpha  occ. eigenvalues --   -0.55417  -0.54533  -0.53245  -0.53004  -0.51958
 Alpha  occ. eigenvalues --   -0.51645  -0.49272  -0.49056  -0.49026  -0.47119
 Alpha  occ. eigenvalues --   -0.45831  -0.45094  -0.44889  -0.44646  -0.42962
 Alpha  occ. eigenvalues --   -0.37498  -0.36511
 Alpha virt. eigenvalues --    0.04849   0.11145   0.16355   0.20422   0.22978
 Alpha virt. eigenvalues --    0.24906   0.26149   0.27450   0.27869   0.28609
 Alpha virt. eigenvalues --    0.29288   0.31152   0.31732   0.32244   0.32788

 Mulliken charges:
               1
     1  C   -0.295347
     2  C   -0.313332
     3  C   -0.474480
     4  H    0.144279
     5  H    0.146358
     6  H    0.146566
     7  H    0.184817
     8  H    0.152885
     9  H    0.148903
    10  H    0.160602
    11  C   -0.303912
    12  C   -0.299235
    13  C   -0.473323
    14  H    0.148073
    15  H    0.161258
    16  H    0.151394
    17  H    0.147864
    18  H    0.147527
    19  H    0.156745
    20  H    0.157484
    21  C   -0.170337
    22  C   -0.218897
    23  C   -0.171241
    24  C    0.157268
    25  C   -0.170216
    26  C   -0.218659
    27  H    0.226325
    28  H    0.224442
    29  H    0.276452
    30  H    0.276003
    31  H    0.224068
    32  N    0.495120
    33  O   -0.458007
    34  O   -0.467446
 Sum of Mulliken charges =  -0.00000

 Dipole moment (field-independent basis, Debye):
    X=             -3.8799    Y=              3.4879    Z=              1.1379  Tot=              5.3399
 Quadrupole moment (field-independent basis, Debye-Ang):
   XX=            -74.4173   YY=            -96.8947   ZZ=            -96.1117
   XY=             -4.9261   XZ=             -3.4466   YZ=              0.0241

 Normal termination of Gaussian 16 at Wed May  5 15:29:13 2021.
