 Gaussian 16, Revision A.03,
 Gaussian 16:  EM64L-G16RevA.03 25-Dec-2016

 -------------
 #p 6-31g* mp2
 -------------

 ------------------------------------------------------
 Input file generated by CHIRIPA (05-May-2021 14:53:12)
 ------------------------------------------------------
 Symbolic Z-matrix:
 Charge =  0 Multiplicity = 1

                         Standard orientation:
 ---------------------------------------------------------------------
 Center     Atomic      Atomic             Coordinates (Angstroms)
 Number     Number       Type             X           Y           Z
 ---------------------------------------------------------------------
      1          6           0        5.181068    0.106084    0.048125
      2          6           0        6.367808   -0.732816   -0.427143
      3          6           0        7.701925    0.002446   -0.295553
      4          1           0        5.145365    1.039739   -0.529767
      5          1           0        5.340592    0.393385    1.096650
      6          1           0        6.205438   -1.019610   -1.474043
      7          1           0        6.400577   -1.664667    0.151817
      8          1           0        7.890359    0.274885    0.747937
      9          1           0        7.694111    0.923608   -0.887161
     10          1           0        8.536647   -0.615482   -0.640900
     11          6           0        3.840343   -0.615359   -0.077189
     12          6           0        2.653603    0.223541    0.398078
     13          6           0        1.319486   -0.511720    0.266489
     14          1           0        3.680819   -0.902659   -1.125715
     15          1           0        3.876046   -1.549013    0.500703
     16          1           0        2.620834    1.155393   -0.180881
     17          1           0        2.815973    0.510336    1.444979
     18          1           0        1.327300   -1.432882    0.858097
     19          1           0        1.131051   -0.784160   -0.777001
     20          1           0        0.484764    0.106208    0.611836
     21          6           0       -1.782502    1.987241    0.378925
     22          6           0       -2.499417    1.944487   -0.821376
     23          6           0       -3.466666    0.958106   -1.035926
     24          6           0       -3.692349    0.026048   -0.024182
     25          6           0       -2.994513    0.042337    1.182486
     26          6           0       -2.031898    1.037703    1.375269
     27          1           0       -1.032919    2.756975    0.537138
     28          1           0       -2.307841    2.680616   -1.596913
     29          1           0       -4.036190    0.901794   -1.955649
     30          1           0       -3.207702   -0.705106    1.937003
     31          1           0       -1.476652    1.068474    2.308436
     32          7           0       -4.713880   -1.022945   -0.239795
     33          8           0       -4.893949   -1.832578    0.667237
     34          8           0       -5.315143   -1.015650   -1.311740
 ---------------------------------------------------------------------

 SCF Done:  E(RHF) =  -669.534626806     A.U. after   15 cycles
 E2 =    -0.2092252130D+01 EUMP2 =    -0.67162687893585D+03

 The electronic state is 1-A.
 Alpha  occ. eigenvalues --  -20.60786 -20.60781 -15.85840 -11.31230 -11.27800
 Alpha  occ. eigenvalues --  -11.27794 -11.27548 -11.26820 -11.26809 -11.22086
 Alpha  occ. eigenvalues --  -11.21880 -11.21760 -11.21697 -11.21344 -11.21326
 Alpha  occ. eigenvalues --   -1.59861  -1.39413  -1.19413  -1.08823  -1.08776
 Alpha  occ. eigenvalues --   -1.04821  -1.03880  -0.96316  -0.95631  -0.87333
 Alpha  occ. eigenvalues --   -0.86216  -0.82461  -0.79951  -0.78604  -0.77503
 Alpha  occ. eigenvalues --   -0.72060  -0.71183  -0.70518  -0.65421  -0.65068
 Alpha  occ. eigenvalues --   -0.64831  -0.62167  -0.61278  -0.59734  -0.57961
 Alpha  occ. eigenvalues --   -0.55591  -0.55317  -0.53595  -0.52912  -0.52807
 Alpha  occ. eigenvalues --   -0.52474  -0.50247  -0.48820  -0.48812  -0.48262
 Alpha  occ. eigenvalues --   -0.46992  -0.46142  -0.46070  -0.44814  -0.44150
 Alpha  occ. eigenvalues --   -0.37325  -0.36373
 Alpha virt. eigenvalues --    0.05020   0.11139   0.16483   0.21033   0.22600
 Alpha virt. eigenvalues --    0.24109   0.26270   0.26904   0.27114   0.27855
 Alpha virt. eigenvalues --    0.28586   0.30752   0.31101   0.31661   0.31946

 Mulliken charges:
               1
     1  C   -0.298239
     2  C   -0.299915
     3  C   -0.475823
     4  H    0.148665
     5  H    0.148995
     6  H    0.152615
     7  H    0.152779
     8  H    0.155130
     9  H    0.154920
    10  H    0.161295
    11  C   -0.298219
    12  C   -0.299476
    13  C   -0.482367
    14  H    0.150842
    15  H    0.151123
    16  H    0.147754
    17  H    0.148706
    18  H    0.155407
    19  H    0.157346
    20  H    0.162960
    21  C   -0.169387
    22  C   -0.217884
    23  C   -0.170737
    24  C    0.158763
    25  C   -0.169843
    26  C   -0.220283
    27  H    0.226753
    28  H    0.223701
    29  H    0.275840
    30  H    0.276062
    31  H    0.224924
    32  N    0.488078
    33  O   -0.460152
    34  O   -0.460333
 Sum of Mulliken charges =  -0.00000

 Dipole moment (field-independent basis, Debye):
    X=              3.5538    Y=              3.6817    Z=              0.7365  Tot=              5.1698
 Quadrupole moment (field-independent basis, Debye-Ang):
   XX=           -122.8416   YY=            -94.4822   ZZ=            -89.8943
   XY=            -14.6554   XZ=             -1.9004   YZ=             -2.4323

 Normal termination of Gaussian 16 at Thu May  6 13:39:26 2021.
