 Gaussian 16, Revision A.03,
 Gaussian 16:  EM64L-G16RevA.03 25-Dec-2016

 -------------
 #p 6-31g* mp2
 -------------

 ------------------------------------------------------
 Input file generated by CHIRIPA (05-May-2021 14:55:23)
 ------------------------------------------------------
 Symbolic Z-matrix:
 Charge =  0 Multiplicity = 1

                         Standard orientation:
 ---------------------------------------------------------------------
 Center     Atomic      Atomic             Coordinates (Angstroms)
 Number     Number       Type             X           Y           Z
 ---------------------------------------------------------------------
      1          6           0       -2.379274    2.360441   -0.162373
      2          6           0       -3.282216    1.585964   -0.898172
      3          6           0       -3.289490    0.193516   -0.773335
      4          6           0       -2.375945   -0.394046    0.100448
      5          6           0       -1.464010    0.350341    0.847141
      6          6           0       -1.474647    1.741250    0.706404
      7          1           0       -2.380580    3.441531   -0.265526
      8          1           0       -3.985894    2.064121   -1.573634
      9          1           0       -3.977655   -0.430098   -1.330966
     10          1           0       -0.774481   -0.154917    1.512485
     11          1           0       -0.772272    2.340200    1.279093
     12          7           0       -2.374165   -1.867354    0.241024
     13          8           0       -1.559257   -2.360845    1.017573
     14          8           0       -3.187711   -2.500744   -0.428002
     15          6           0        3.482806   -0.364036   -0.377899
     16          6           0        3.059873   -1.759524    0.082239
     17          6           0        3.952122   -2.864441   -0.484194
     18          1           0        3.464283   -0.325581   -1.475681
     19          1           0        4.524379   -0.186155   -0.076438
     20          1           0        2.018964   -1.934185   -0.218789
     21          1           0        3.079220   -1.794603    1.179058
     22          1           0        4.991442   -2.717856   -0.172862
     23          1           0        3.925162   -2.858231   -1.578651
     24          1           0        3.631933   -3.853692   -0.142551
     25          6           0        2.600366    0.751179    0.180065
     26          6           0        3.023298    2.146666   -0.280074
     27          6           0        2.131049    3.251582    0.286360
     28          1           0        1.558793    0.573297   -0.121396
     29          1           0        2.618888    0.712724    1.277846
     30          1           0        3.003951    2.181745   -1.376891
     31          1           0        4.064207    2.321328    0.020954
     32          1           0        2.158009    3.245373    1.380817
     33          1           0        1.091729    3.104998   -0.024972
     34          1           0        2.451238    4.240834   -0.055284
 ---------------------------------------------------------------------

 SCF Done:  E(RHF) =  -669.535356627     A.U. after   15 cycles
 E2 =    -0.2093074555D+01 EUMP2 =    -0.67162843118216D+03

 The electronic state is 1-A.
 Alpha  occ. eigenvalues --  -20.60813 -20.60808 -15.85861 -11.31229 -11.27794
 Alpha  occ. eigenvalues --  -11.27766 -11.27525 -11.26810 -11.26745 -11.22068
 Alpha  occ. eigenvalues --  -11.21820 -11.21701 -11.21452 -11.21371 -11.20813
 Alpha  occ. eigenvalues --   -1.59885  -1.39438  -1.19401  -1.08796  -1.08630
 Alpha  occ. eigenvalues --   -1.04799  -1.03711  -0.96207  -0.95625  -0.87240
 Alpha  occ. eigenvalues --   -0.86186  -0.82458  -0.79823  -0.78409  -0.77483
 Alpha  occ. eigenvalues --   -0.72077  -0.71208  -0.70494  -0.65275  -0.65046
 Alpha  occ. eigenvalues --   -0.64809  -0.62162  -0.61092  -0.59594  -0.57786
 Alpha  occ. eigenvalues --   -0.55526  -0.55285  -0.53154  -0.53043  -0.52862
 Alpha  occ. eigenvalues --   -0.52469  -0.50158  -0.48841  -0.48832  -0.48097
 Alpha  occ. eigenvalues --   -0.46837  -0.45948  -0.45822  -0.44830  -0.43957
 Alpha  occ. eigenvalues --   -0.37374  -0.36339
 Alpha virt. eigenvalues --    0.04988   0.11090   0.16422   0.20800   0.22889
 Alpha virt. eigenvalues --    0.24093   0.26020   0.26479   0.26579   0.28536
 Alpha virt. eigenvalues --    0.29359   0.30849   0.31218   0.31438   0.32316

 Mulliken charges:
               1
     1  C   -0.173148
     2  C   -0.218176
     3  C   -0.171096
     4  C    0.157242
     5  C   -0.172696
     6  C   -0.219441
     7  H    0.226417
     8  H    0.223630
     9  H    0.275680
    10  H    0.277881
    11  H    0.230023
    12  N    0.488064
    13  O   -0.460163
    14  O   -0.460212
    15  C   -0.298164
    16  C   -0.301637
    17  C   -0.476171
    18  H    0.150168
    19  H    0.149284
    20  H    0.159413
    21  H    0.151956
    22  H    0.153134
    23  H    0.154646
    24  H    0.164843
    25  C   -0.304967
    26  C   -0.297640
    27  C   -0.482756
    28  H    0.152461
    29  H    0.146128
    30  H    0.154156
    31  H    0.154293
    32  H    0.152178
    33  H    0.152097
    34  H    0.162573
 Sum of Mulliken charges =  -0.00000

 Dipole moment (field-independent basis, Debye):
    X=             -0.0089    Y=              5.0808    Z=             -0.5308  Tot=              5.1085
 Quadrupole moment (field-independent basis, Debye-Ang):
   XX=            -92.1250   YY=           -100.2423   ZZ=            -92.6152
   XY=            -11.8548   XZ=              4.6400   YZ=              0.6266

 Normal termination of Gaussian 16 at Thu May  6 06:19:42 2021.
