 Gaussian 16, Revision A.03,
 Gaussian 16:  EM64L-G16RevA.03 25-Dec-2016

 -------------
 #p 6-31g* mp2
 -------------

 ------------------------------------------------------
 Input file generated by CHIRIPA (05-May-2021 14:57:26)
 ------------------------------------------------------
 Symbolic Z-matrix:
 Charge =  0 Multiplicity = 1

                         Standard orientation:
 ---------------------------------------------------------------------
 Center     Atomic      Atomic             Coordinates (Angstroms)
 Number     Number       Type             X           Y           Z
 ---------------------------------------------------------------------
      1          6           0       -6.134644    0.533185    0.160486
      2          6           0       -5.160424    1.516778   -0.039413
      3          6           0       -3.814027    1.165412   -0.174710
      4          6           0       -3.475695   -0.185114   -0.104696
      5          6           0       -4.423114   -1.188302    0.093549
      6          6           0       -5.763534   -0.813841    0.226214
      7          1           0       -7.178236    0.815105    0.264566
      8          1           0       -5.445727    2.563677   -0.090877
      9          1           0       -3.039328    1.906397   -0.330278
     10          1           0       -4.108095   -2.223667    0.140436
     11          1           0       -6.517979   -1.579859    0.381373
     12          7           0       -2.053488   -0.569314   -0.246536
     13          8           0       -1.781264   -1.766082   -0.181128
     14          8           0       -1.237916    0.333592   -0.420433
     15          6           0        3.284004    2.608113    0.132167
     16          6           0        4.560632    2.122718   -0.169713
     17          6           0        4.808200    0.747110   -0.200738
     18          6           0        3.751283   -0.118575    0.076403
     19          6           0        2.468412    0.334247    0.380511
     20          6           0        2.243802    1.713905    0.405834
     21          1           0        3.100604    3.678291    0.154054
     22          1           0        5.370366    2.814837   -0.382661
     23          1           0        5.786874    0.344165   -0.431500
     24          1           0        1.681244   -0.380287    0.588419
     25          1           0        1.251344    2.088022    0.640587
     26          7           0        4.001221   -1.577014    0.046577
     27          8           0        3.053179   -2.318919    0.294428
     28          8           0        5.140430   -1.950617   -0.224087
 ---------------------------------------------------------------------

 SCF Done:  E(RHF) =  -868.339509089     A.U. after   15 cycles
 E2 =    -0.2599196060D+01 EUMP2 =    -0.87093870514814D+03

 The electronic state is 1-A.
 Alpha  occ. eigenvalues --  -20.61484 -20.61402 -20.59602 -20.59557 -15.86457
 Alpha  occ. eigenvalues --  -15.84629 -11.31653 -11.29899 -11.28237 -11.28162
 Alpha  occ. eigenvalues --  -11.27904 -11.27191 -11.27145 -11.26584 -11.26318
 Alpha  occ. eigenvalues --  -11.26281 -11.25621 -11.25380  -1.60493  -1.58663
 Alpha  occ. eigenvalues --   -1.40053  -1.38214  -1.19806  -1.18096  -1.09232
 Alpha  occ. eigenvalues --   -1.07539  -1.05184  -1.03455  -0.96096  -0.94369
 Alpha  occ. eigenvalues --   -0.86590  -0.84885  -0.82938  -0.81177  -0.78007
 Alpha  occ. eigenvalues --   -0.76214  -0.72677  -0.71795  -0.70913  -0.70851
 Alpha  occ. eigenvalues --   -0.69987  -0.69235  -0.65463  -0.65184  -0.63746
 Alpha  occ. eigenvalues --   -0.63472  -0.62535  -0.60771  -0.55687  -0.54059
 Alpha  occ. eigenvalues --   -0.53520  -0.53273  -0.51843  -0.51545  -0.49452
 Alpha  occ. eigenvalues --   -0.49399  -0.47624  -0.47590  -0.45491  -0.43638
 Alpha  occ. eigenvalues --   -0.37772  -0.36778  -0.36149  -0.35050
 Alpha virt. eigenvalues --    0.04504   0.06281   0.10879   0.12574   0.16020
 Alpha virt. eigenvalues --    0.17755   0.20994   0.22665   0.26922   0.27676
 Alpha virt. eigenvalues --    0.28740   0.29546   0.30694   0.31820   0.32459

 Mulliken charges:
               1
     1  C   -0.170078
     2  C   -0.218352
     3  C   -0.170745
     4  C    0.158190
     5  C   -0.170042
     6  C   -0.218467
     7  H    0.227233
     8  H    0.223841
     9  H    0.271821
    10  H    0.278480
    11  H    0.225721
    12  N    0.490269
    13  O   -0.450101
    14  O   -0.473694
    15  C   -0.172376
    16  C   -0.219792
    17  C   -0.172595
    18  C    0.155974
    19  C   -0.168559
    20  C   -0.219313
    21  H    0.219393
    22  H    0.217879
    23  H    0.271418
    24  H    0.290506
    25  H    0.228200
    26  N    0.487542
    27  O   -0.455534
    28  O   -0.466818
 Sum of Mulliken charges =  -0.00000

 Dipole moment (field-independent basis, Debye):
    X=             -6.5353    Y=              6.2228    Z=              0.6330  Tot=              9.0462
 Quadrupole moment (field-independent basis, Debye-Ang):
   XX=            -73.3606   YY=           -102.6779   ZZ=           -106.3362
   XY=             17.8078   XZ=             -2.3702   YZ=             -0.7067

 Normal termination of Gaussian 16 at Thu May  6 14:45:10 2021.
