 Gaussian 16, Revision A.03,
 Gaussian 16:  EM64L-G16RevA.03 25-Dec-2016

 -------------
 #p 6-31g* mp2
 -------------

 ------------------------------------------------------
 Input file generated by CHIRIPA (05-May-2021 14:51:11)
 ------------------------------------------------------
 Symbolic Z-matrix:
 Charge =  0 Multiplicity = 1

                         Standard orientation:
 ---------------------------------------------------------------------
 Center     Atomic      Atomic             Coordinates (Angstroms)
 Number     Number       Type             X           Y           Z
 ---------------------------------------------------------------------
      1          6           0        3.898106   -0.226516    0.447927
      2          6           0        2.727244   -1.007522   -0.149651
      3          6           0        1.421458   -0.793435    0.616432
      4          1           0        4.033141   -0.525700    1.496354
      5          1           0        3.648970    0.843637    0.457868
      6          1           0        2.979072   -2.075743   -0.159736
      7          1           0        2.595102   -0.706584   -1.196833
      8          1           0        1.143406    0.265474    0.615446
      9          1           0        1.529557   -1.111465    1.658436
     10          1           0        0.597730   -1.360907    0.172237
     11          6           0        5.210469   -0.430302   -0.306992
     12          6           0        6.381331    0.350703    0.290585
     13          6           0        7.687118    0.136616   -0.475497
     14          1           0        5.459605   -1.500455   -0.316933
     15          1           0        5.075434   -0.131119   -1.355419
     16          1           0        6.513473    0.049765    1.337768
     17          1           0        6.129503    1.418925    0.300671
     18          1           0        7.579018    0.454646   -1.517501
     19          1           0        7.965170   -0.922292   -0.474512
     20          1           0        8.510845    0.704088   -0.031302
     21          6           0       -3.810727    0.358980   -0.242560
     22          6           0       -3.145638    1.671610    0.172941
     23          6           0       -1.658189    1.717652   -0.178017
     24          1           0       -3.291581   -0.477914    0.244305
     25          1           0       -3.683899    0.218301   -1.324927
     26          1           0       -3.274883    1.810451    1.253976
     27          1           0       -3.666549    2.505491   -0.314819
     28          1           0       -1.513332    1.604308   -1.257262
     29          1           0       -1.119440    0.905319    0.320447
     30          1           0       -1.202666    2.664659    0.127820
     31          6           0       -5.297848    0.297838    0.101626
     32          6           0       -5.962938   -1.014792   -0.313877
     33          6           0       -7.450386   -1.060834    0.037082
     34          1           0       -5.424676    0.438517    1.183992
     35          1           0       -5.816994    1.134733   -0.385240
     36          1           0       -5.442027   -1.848672    0.173884
     37          1           0       -5.833692   -1.153633   -1.394911
     38          1           0       -7.989135   -0.248501   -0.461382
     39          1           0       -7.595244   -0.947490    1.116328
     40          1           0       -7.905910   -2.007841   -0.268755
 ---------------------------------------------------------------------

 SCF Done:  E(RHF) =  -470.732988435     A.U. after   11 cycles
 E2 =    -0.1582376725D+01 EUMP2 =    -0.47231536515946D+03

 The electronic state is 1-A.
 Alpha  occ. eigenvalues --  -11.21591 -11.21582 -11.21581 -11.21548 -11.21390
 Alpha  occ. eigenvalues --  -11.21374 -11.21331 -11.21314 -11.21062 -11.21056
 Alpha  occ. eigenvalues --  -11.21032 -11.20957  -1.08417  -1.08393  -1.03530
 Alpha  occ. eigenvalues --   -1.03476  -0.96011  -0.95902  -0.87063  -0.86890
 Alpha  occ. eigenvalues --   -0.79652  -0.79490  -0.78238  -0.78198  -0.65064
 Alpha  occ. eigenvalues --   -0.65010  -0.61009  -0.60810  -0.59362  -0.59286
 Alpha  occ. eigenvalues --   -0.57585  -0.57552  -0.55449  -0.55070  -0.52736
 Alpha  occ. eigenvalues --   -0.52642  -0.52436  -0.52259  -0.50109  -0.49671
 Alpha  occ. eigenvalues --   -0.47949  -0.47809  -0.46718  -0.46450  -0.45800
 Alpha  occ. eigenvalues --   -0.45737  -0.45694  -0.45611  -0.43765  -0.43744
 Alpha virt. eigenvalues --    0.22599   0.22935   0.23731   0.24672   0.26270
 Alpha virt. eigenvalues --    0.26632   0.27058   0.27436   0.27747   0.29031
 Alpha virt. eigenvalues --    0.30809   0.30942   0.31716   0.31800   0.32024

 Mulliken charges:
               1
     1  C   -0.298674
     2  C   -0.299432
     3  C   -0.480452
     4  H    0.149493
     5  H    0.149942
     6  H    0.151646
     7  H    0.152336
     8  H    0.161015
     9  H    0.154576
    10  H    0.160181
    11  C   -0.298309
    12  C   -0.299645
    13  C   -0.475698
    14  H    0.149474
    15  H    0.149707
    16  H    0.151886
    17  H    0.151963
    18  H    0.155187
    19  H    0.155151
    20  H    0.160218
    21  C   -0.298382
    22  C   -0.299388
    23  C   -0.482590
    24  H    0.149748
    25  H    0.149293
    26  H    0.151744
    27  H    0.151430
    28  H    0.154378
    29  H    0.164613
    30  H    0.158808
    31  C   -0.298245
    32  C   -0.299635
    33  C   -0.475684
    34  H    0.149523
    35  H    0.149588
    36  H    0.151913
    37  H    0.151836
    38  H    0.155140
    39  H    0.155175
    40  H    0.160171
 Sum of Mulliken charges =  -0.00000

 Dipole moment (field-independent basis, Debye):
    X=              0.0228    Y=             -0.0078    Z=              0.0073  Tot=              0.0252
 Quadrupole moment (field-independent basis, Debye-Ang):
   XX=            -87.0513   YY=            -84.1121   ZZ=            -83.8234
   XY=             -0.3503   XZ=              0.9802   YZ=             -0.8433

 Normal termination of Gaussian 16 at Thu May  6 03:51:02 2021.
