 Gaussian 16, Revision A.03,
 Gaussian 16:  EM64L-G16RevA.03 25-Dec-2016

 -------------
 #p 6-31g* mp2
 -------------

 ------------------------------------------------------
 Input file generated by CHIRIPA (05-May-2021 14:55:24)
 ------------------------------------------------------
 Symbolic Z-matrix:
 Charge =  0 Multiplicity = 1

                         Standard orientation:
 ---------------------------------------------------------------------
 Center     Atomic      Atomic             Coordinates (Angstroms)
 Number     Number       Type             X           Y           Z
 ---------------------------------------------------------------------
      1          6           0        4.665042    0.089905   -1.709477
      2          6           0        4.102907   -1.177500   -1.524518
      3          6           0        3.197974   -1.407887   -0.484054
      4          6           0        2.876096   -0.343383    0.356491
      5          6           0        3.419275    0.930641    0.198024
      6          6           0        4.322037    1.138082   -0.849132
      7          1           0        5.367173    0.259963   -2.520334
      8          1           0        4.367452   -1.993394   -2.191134
      9          1           0        2.747884   -2.379120   -0.318088
     10          1           0        3.136201    1.724298    0.878755
     11          1           0        4.757036    2.123409   -0.990386
     12          7           0        1.919233   -0.575138    1.461526
     13          8           0        1.652006    0.379295    2.188358
     14          8           0        1.454590   -1.706832    1.579897
     15          6           0       -4.640802    0.362758   -0.316935
     16          6           0       -5.192581   -1.062080   -0.374939
     17          6           0       -6.709475   -1.101392   -0.562773
     18          1           0       -5.127704    0.904517    0.505481
     19          1           0       -4.910459    0.890876   -1.242014
     20          1           0       -4.920776   -1.587788    0.549381
     21          1           0       -4.704170   -1.600568   -1.197192
     22          1           0       -6.995470   -0.601217   -1.493704
     23          1           0       -7.213305   -0.588365    0.262793
     24          1           0       -7.082695   -2.129529   -0.601535
     25          6           0       -3.125723    0.418520   -0.129447
     26          6           0       -2.573944    1.843357   -0.071443
     27          6           0       -1.057050    1.882671    0.116391
     28          1           0       -2.856066   -0.109598    0.795633
     29          1           0       -2.638821   -0.123239   -0.951863
     30          1           0       -3.062356    2.381846    0.750810
     31          1           0       -2.845750    2.369066   -0.995764
     32          1           0       -0.553219    1.369643   -0.709175
     33          1           0       -0.771056    1.382495    1.047322
     34          1           0       -0.683831    2.910807    0.155154
 ---------------------------------------------------------------------

 SCF Done:  E(RHF) =  -669.536312355     A.U. after   15 cycles
 E2 =    -0.2091233951D+01 EUMP2 =    -0.67162754630663D+03

 The electronic state is 1-A.
 Alpha  occ. eigenvalues --  -20.60873 -20.60864 -15.85893 -11.31219 -11.27785
 Alpha  occ. eigenvalues --  -11.27776 -11.27528 -11.26795 -11.26783 -11.21120
 Alpha  occ. eigenvalues --  -11.20958 -11.20858 -11.20706 -11.20680 -11.20255
 Alpha  occ. eigenvalues --   -1.59925  -1.39482  -1.19387  -1.08792  -1.07849
 Alpha  occ. eigenvalues --   -1.04785  -1.02952  -0.95637  -0.95395  -0.86416
 Alpha  occ. eigenvalues --   -0.86185  -0.82470  -0.79026  -0.77656  -0.77516
 Alpha  occ. eigenvalues --   -0.72123  -0.71233  -0.70499  -0.65045  -0.64791
 Alpha  occ. eigenvalues --   -0.64478  -0.62132  -0.60344  -0.58782  -0.57012
 Alpha  occ. eigenvalues --   -0.55294  -0.54675  -0.53113  -0.52879  -0.52109
 Alpha  occ. eigenvalues --   -0.51825  -0.49339  -0.48884  -0.48872  -0.47354
 Alpha  occ. eigenvalues --   -0.46076  -0.45246  -0.45145  -0.44715  -0.43212
 Alpha  occ. eigenvalues --   -0.37364  -0.36384
 Alpha virt. eigenvalues --    0.04983   0.11259   0.16459   0.21384   0.23442
 Alpha virt. eigenvalues --    0.24873   0.27246   0.27281   0.27975   0.28159
 Alpha virt. eigenvalues --    0.28673   0.30933   0.31975   0.32184   0.32512

 Mulliken charges:
               1
     1  C   -0.170640
     2  C   -0.218722
     3  C   -0.171062
     4  C    0.159042
     5  C   -0.169814
     6  C   -0.218736
     7  H    0.225688
     8  H    0.223482
     9  H    0.275615
    10  H    0.276338
    11  H    0.223628
    12  N    0.488542
    13  O   -0.459384
    14  O   -0.459516
    15  C   -0.297948
    16  C   -0.299472
    17  C   -0.475421
    18  H    0.149418
    19  H    0.146909
    20  H    0.154416
    21  H    0.150584
    22  H    0.153599
    23  H    0.154998
    24  H    0.159227
    25  C   -0.299248
    26  C   -0.298666
    27  C   -0.485227
    28  H    0.157308
    29  H    0.146907
    30  H    0.151891
    31  H    0.147114
    32  H    0.146409
    33  H    0.178536
    34  H    0.154206
 Sum of Mulliken charges =  -0.00000

 Dipole moment (field-independent basis, Debye):
    X=              3.5234    Y=              0.7416    Z=             -3.7450  Tot=              5.1951
 Quadrupole moment (field-independent basis, Debye-Ang):
   XX=            -77.6672   YY=            -91.0980   ZZ=            -96.7982
   XY=              1.6950   XZ=            -10.7364   YZ=              3.3178

 Normal termination of Gaussian 16 at Wed May  5 22:23:49 2021.
