 Gaussian 16, Revision A.03,
 Gaussian 16:  EM64L-G16RevA.03 25-Dec-2016

 -------------
 #p 6-31g* mp2
 -------------

 ------------------------------------------------------
 Input file generated by CHIRIPA (05-May-2021 14:57:22)
 ------------------------------------------------------
 Symbolic Z-matrix:
 Charge =  0 Multiplicity = 1

                         Standard orientation:
 ---------------------------------------------------------------------
 Center     Atomic      Atomic             Coordinates (Angstroms)
 Number     Number       Type             X           Y           Z
 ---------------------------------------------------------------------
      1          6           0       -4.119692    2.430153   -0.407354
      2          6           0       -2.812035    1.934320   -0.433866
      3          6           0       -2.564052    0.574245   -0.225905
      4          6           0       -3.652199   -0.265435    0.006828
      5          6           0       -4.966405    0.198354    0.039282
      6          6           0       -5.190815    1.562118   -0.171281
      7          1           0       -4.303175    3.488125   -0.569914
      8          1           0       -1.978248    2.606120   -0.616975
      9          1           0       -1.561726    0.163721   -0.241102
     10          1           0       -5.777138   -0.495855    0.224223
     11          1           0       -6.207410    1.944393   -0.150133
     12          7           0       -3.402149   -1.707238    0.228364
     13          8           0       -4.378053   -2.426290    0.431370
     14          8           0       -2.234990   -2.090970    0.194804
     15          6           0        6.209219    0.168453   -0.100121
     16          6           0        5.485456    1.166771    0.560219
     17          6           0        4.091229    1.099121    0.638328
     18          6           0        3.450191    0.014211    0.042232
     19          6           0        4.143299   -0.996114   -0.622699
     20          6           0        5.537015   -0.907906   -0.688435
     21          1           0        7.292091    0.228990   -0.155992
     22          1           0        6.004844    2.003843    1.018032
     23          1           0        3.506214    1.858154    1.143348
     24          1           0        3.597581   -1.818360   -1.069379
     25          1           0        6.096510   -1.684663   -1.201913
     26          7           0        1.974456   -0.068289    0.118373
     27          8           0        1.433311   -1.034387   -0.414970
     28          8           0        1.386861    0.834707    0.709954
 ---------------------------------------------------------------------

 SCF Done:  E(RHF) =  -868.339770346     A.U. after   16 cycles
 E2 =    -0.2599717933D+01 EUMP2 =    -0.87093948827887D+03

 The electronic state is 1-A.
 Alpha  occ. eigenvalues --  -20.61255 -20.61163 -20.59428 -20.59357 -15.86176
 Alpha  occ. eigenvalues --  -15.84443 -11.31411 -11.29802 -11.27980 -11.27926
 Alpha  occ. eigenvalues --  -11.27680 -11.26953 -11.26918 -11.26524 -11.26280
 Alpha  occ. eigenvalues --  -11.26159 -11.25560 -11.25367  -1.60239  -1.58484
 Alpha  occ. eigenvalues --   -1.39792  -1.38025  -1.19566  -1.18022  -1.08991
 Alpha  occ. eigenvalues --   -1.07449  -1.04944  -1.03404  -0.95845  -0.94257
 Alpha  occ. eigenvalues --   -0.86349  -0.84817  -0.82678  -0.81069  -0.77748
 Alpha  occ. eigenvalues --   -0.76081  -0.72376  -0.71533  -0.70674  -0.70659
 Alpha  occ. eigenvalues --   -0.69817  -0.69142  -0.65218  -0.64947  -0.63672
 Alpha  occ. eigenvalues --   -0.63423  -0.62289  -0.60707  -0.55457  -0.53989
 Alpha  occ. eigenvalues --   -0.53283  -0.53033  -0.51783  -0.51501  -0.49181
 Alpha  occ. eigenvalues --   -0.49116  -0.47458  -0.47384  -0.45221  -0.43434
 Alpha  occ. eigenvalues --   -0.37541  -0.36539  -0.36080  -0.35016
 Alpha virt. eigenvalues --    0.04777   0.06410   0.11117   0.12621   0.16297
 Alpha virt. eigenvalues --    0.17858   0.21260   0.22729   0.27192   0.28126
 Alpha virt. eigenvalues --    0.28656   0.29723   0.30857   0.32181   0.32407

 Mulliken charges:
               1
     1  C   -0.171639
     2  C   -0.222072
     3  C   -0.176237
     4  C    0.154673
     5  C   -0.172049
     6  C   -0.220327
     7  H    0.219988
     8  H    0.224401
     9  H    0.300009
    10  H    0.271288
    11  H    0.217828
    12  N    0.486177
    13  O   -0.469135
    14  O   -0.450306
    15  C   -0.170212
    16  C   -0.218656
    17  C   -0.170991
    18  C    0.158886
    19  C   -0.170227
    20  C   -0.218697
    21  H    0.226490
    22  H    0.223641
    23  H    0.274197
    24  H    0.278919
    25  H    0.225083
    26  N    0.488145
    27  O   -0.449571
    28  O   -0.469605
 Sum of Mulliken charges =  -0.00000

 Dipole moment (field-independent basis, Debye):
    X=              4.9859    Y=              5.1668    Z=             -1.0915  Tot=              7.2627
 Quadrupole moment (field-independent basis, Debye-Ang):
   XX=            -60.1495   YY=           -104.9531   ZZ=           -105.0398
   XY=            -16.6658   XZ=              1.3302   YZ=              2.8836

 Normal termination of Gaussian 16 at Thu May  6 21:07:23 2021.
