 Gaussian 16, Revision A.03,
 Gaussian 16:  EM64L-G16RevA.03 25-Dec-2016

 -------------
 #p 6-31g* mp2
 -------------

 ------------------------------------------------------
 Input file generated by CHIRIPA (05-May-2021 14:51:08)
 ------------------------------------------------------
 Symbolic Z-matrix:
 Charge =  0 Multiplicity = 1

                         Standard orientation:
 ---------------------------------------------------------------------
 Center     Atomic      Atomic             Coordinates (Angstroms)
 Number     Number       Type             X           Y           Z
 ---------------------------------------------------------------------
      1          6           0        3.698379    0.562143   -0.419991
      2          6           0        3.260280    1.825410    0.321770
      3          6           0        2.090909    2.535990   -0.360464
      4          1           0        3.978326    0.827152   -1.448749
      5          1           0        2.844300   -0.125041   -0.495631
      6          1           0        4.115298    2.509421    0.397203
      7          1           0        2.981526    1.557392    1.348940
      8          1           0        1.221031    1.874100   -0.422227
      9          1           0        2.361245    2.831537   -1.379371
     10          1           0        1.794000    3.436321    0.186445
     11          6           0        4.866500   -0.159338    0.249850
     12          6           0        5.304600   -1.422606   -0.491910
     13          6           0        6.473970   -2.133186    0.190324
     14          1           0        5.720579    0.527846    0.325491
     15          1           0        4.586553   -0.424348    1.278609
     16          1           0        5.583354   -1.154588   -1.519081
     17          1           0        4.449582   -2.106616   -0.567344
     18          1           0        6.203634   -2.428733    1.209231
     19          1           0        7.343848   -1.471296    0.252086
     20          1           0        6.770879   -3.033517   -0.356585
     21          6           0       -4.980089   -0.304939    0.378322
     22          6           0       -6.064365   -0.483616   -0.684883
     23          6           0       -7.454562   -0.689723   -0.082663
     24          1           0       -4.970084   -1.186077    1.034403
     25          1           0       -5.236831    0.554473    1.013058
     26          1           0       -5.804950   -1.341591   -1.318286
     27          1           0       -6.071664    0.397964   -1.338626
     28          1           0       -7.738605    0.169336    0.533729
     29          1           0       -7.470375   -1.580103    0.554185
     30          1           0       -8.214370   -0.815313   -0.860339
     31          6           0       -3.584790   -0.097865   -0.208182
     32          6           0       -2.500514    0.080811    0.855024
     33          6           0       -1.110318    0.286919    0.252803
     34          1           0       -3.328049   -0.957277   -0.842917
     35          1           0       -3.594796    0.783272   -0.864262
     36          1           0       -2.493216   -0.800769    1.508767
     37          1           0       -2.759930    0.938786    1.488426
     38          1           0       -1.094505    1.177298   -0.384045
     39          1           0       -0.826275   -0.572140   -0.363588
     40          1           0       -0.350510    0.412508    1.030480
 ---------------------------------------------------------------------

 SCF Done:  E(RHF) =  -470.732871509     A.U. after   11 cycles
 E2 =    -0.1582698136D+01 EUMP2 =    -0.47231556964572D+03

 The electronic state is 1-A.
 Alpha  occ. eigenvalues --  -11.21652 -11.21620 -11.21564 -11.21512 -11.21436
 Alpha  occ. eigenvalues --  -11.21376 -11.21343 -11.21278 -11.21151 -11.21085
 Alpha  occ. eigenvalues --  -11.21043 -11.20862  -1.08466  -1.08362  -1.03582
 Alpha  occ. eigenvalues --   -1.03446  -0.96057  -0.95876  -0.87102  -0.86874
 Alpha  occ. eigenvalues --   -0.79691  -0.79478  -0.78280  -0.78170  -0.65099
 Alpha  occ. eigenvalues --   -0.64994  -0.61028  -0.60830  -0.59393  -0.59265
 Alpha  occ. eigenvalues --   -0.57642  -0.57511  -0.55462  -0.55083  -0.52780
 Alpha  occ. eigenvalues --   -0.52594  -0.52489  -0.52243  -0.50113  -0.49671
 Alpha  occ. eigenvalues --   -0.47996  -0.47793  -0.46720  -0.46476  -0.45839
 Alpha  occ. eigenvalues --   -0.45742  -0.45701  -0.45606  -0.43797  -0.43710
 Alpha virt. eigenvalues --    0.21917   0.22939   0.23752   0.24776   0.26178
 Alpha virt. eigenvalues --    0.26522   0.27067   0.27619   0.27828   0.28978
 Alpha virt. eigenvalues --    0.30602   0.30961   0.31327   0.31820   0.32303

 Mulliken charges:
               1
     1  C   -0.298839
     2  C   -0.298871
     3  C   -0.485794
     4  H    0.149440
     5  H    0.150274
     6  H    0.151370
     7  H    0.150807
     8  H    0.168968
     9  H    0.153833
    10  H    0.158705
    11  C   -0.298193
    12  C   -0.299582
    13  C   -0.475656
    14  H    0.149391
    15  H    0.149373
    16  H    0.151869
    17  H    0.151812
    18  H    0.155073
    19  H    0.155135
    20  H    0.160085
    21  C   -0.298357
    22  C   -0.299674
    23  C   -0.475730
    24  H    0.149671
    25  H    0.149643
    26  H    0.151957
    27  H    0.152056
    28  H    0.155233
    29  H    0.155183
    30  H    0.160339
    31  C   -0.298721
    32  C   -0.299862
    33  C   -0.479443
    34  H    0.149562
    35  H    0.150087
    36  H    0.151928
    37  H    0.152485
    38  H    0.157675
    39  H    0.155380
    40  H    0.161389
 Sum of Mulliken charges =  -0.00000

 Dipole moment (field-independent basis, Debye):
    X=             -0.0710    Y=             -0.0176    Z=             -0.0059  Tot=              0.0734
 Quadrupole moment (field-independent basis, Debye-Ang):
   XX=            -86.3369   YY=            -83.9926   ZZ=            -84.7256
   XY=              0.4551   XZ=             -0.3894   YZ=             -0.0443

 Normal termination of Gaussian 16 at Thu May  6 09:59:49 2021.
