 Gaussian 16, Revision A.03,
 Gaussian 16:  EM64L-G16RevA.03 25-Dec-2016

 -------------
 #p 6-31g* mp2
 -------------

 ------------------------------------------------------
 Input file generated by CHIRIPA (05-May-2021 14:51:11)
 ------------------------------------------------------
 Symbolic Z-matrix:
 Charge =  0 Multiplicity = 1

                         Standard orientation:
 ---------------------------------------------------------------------
 Center     Atomic      Atomic             Coordinates (Angstroms)
 Number     Number       Type             X           Y           Z
 ---------------------------------------------------------------------
      1          6           0       -2.684554   -0.108538   -0.560123
      2          6           0       -4.034187   -0.702193   -0.965152
      3          6           0       -3.894363   -1.911560   -1.890179
      4          1           0       -2.132567    0.181705   -1.464564
      5          1           0       -2.085026   -0.883913   -0.063379
      6          1           0       -4.631527    0.074449   -1.459750
      7          1           0       -4.583106   -0.990881   -0.059634
      8          1           0       -3.320456   -2.705770   -1.401851
      9          1           0       -3.369153   -1.634386   -2.809923
     10          1           0       -4.871174   -2.320123   -2.167267
     11          6           0       -2.807832    1.101181    0.364599
     12          6           0       -1.458199    1.694836    0.769628
     13          6           0       -1.598023    2.904203    1.694655
     14          1           0       -3.407360    1.876556   -0.132145
     15          1           0       -3.359819    0.810938    1.269040
     16          1           0       -0.909280    1.983524   -0.135890
     17          1           0       -0.860859    0.918194    1.264226
     18          1           0       -2.123233    2.627029    2.614400
     19          1           0       -2.171930    3.698412    1.206328
     20          1           0       -0.621212    3.312766    1.971743
     21          6           0        2.818108    0.159455   -0.287228
     22          6           0        3.975197    0.152036   -1.286766
     23          6           0        4.106208    1.470863   -2.049211
     24          1           0        1.881668    0.370278   -0.821624
     25          1           0        2.963592    0.983134    0.425361
     26          1           0        3.828292   -0.672239   -1.996418
     27          1           0        4.908965   -0.058984   -0.749956
     28          1           0        4.277215    2.301078   -1.356317
     29          1           0        3.190401    1.684338   -2.609860
     30          1           0        4.939497    1.443608   -2.758256
     31          6           0        2.674278   -1.152098    0.482752
     32          6           0        1.517189   -1.144678    1.482290
     33          6           0        1.386178   -2.463506    2.244735
     34          1           0        2.528794   -1.975777   -0.229837
     35          1           0        3.610718   -1.362921    1.017148
     36          1           0        0.583421   -0.933658    0.945480
     37          1           0        1.664093   -0.320403    2.191942
     38          1           0        2.301984   -2.676981    2.805384
     39          1           0        1.215172   -3.293720    1.551841
     40          1           0        0.552888   -2.436250    2.953781
 ---------------------------------------------------------------------

 SCF Done:  E(RHF) =  -470.733071936     A.U. after   11 cycles
 E2 =    -0.1583537325D+01 EUMP2 =    -0.47231660926102D+03

 The electronic state is 1-A.
 Alpha  occ. eigenvalues --  -11.21629 -11.21594 -11.21593 -11.21509 -11.21430
 Alpha  occ. eigenvalues --  -11.21395 -11.21350 -11.21333 -11.21101 -11.21099
 Alpha  occ. eigenvalues --  -11.21070 -11.21033  -1.08458  -1.08405  -1.03554
 Alpha  occ. eigenvalues --   -1.03505  -0.95984  -0.95977  -0.87009  -0.86986
 Alpha  occ. eigenvalues --   -0.79699  -0.79519  -0.78396  -0.78085  -0.65137
 Alpha  occ. eigenvalues --   -0.64996  -0.60985  -0.60879  -0.59412  -0.59288
 Alpha  occ. eigenvalues --   -0.57598  -0.57585  -0.55279  -0.55259  -0.52701
 Alpha  occ. eigenvalues --   -0.52654  -0.52421  -0.52393  -0.49949  -0.49908
 Alpha  occ. eigenvalues --   -0.48144  -0.47804  -0.46778  -0.46555  -0.46127
 Alpha  occ. eigenvalues --   -0.45745  -0.45700  -0.45154  -0.43793  -0.43766
 Alpha virt. eigenvalues --    0.21188   0.23279   0.23822   0.24113   0.25161
 Alpha virt. eigenvalues --    0.26305   0.26720   0.27980   0.28101   0.29635
 Alpha virt. eigenvalues --    0.30678   0.31435   0.31782   0.31864   0.32030

 Mulliken charges:
               1
     1  C   -0.301270
     2  C   -0.299530
     3  C   -0.475769
     4  H    0.149085
     5  H    0.151378
     6  H    0.152258
     7  H    0.152151
     8  H    0.155109
     9  H    0.155031
    10  H    0.160446
    11  C   -0.297952
    12  C   -0.307566
    13  C   -0.475278
    14  H    0.149402
    15  H    0.149383
    16  H    0.151665
    17  H    0.161492
    18  H    0.154762
    19  H    0.154813
    20  H    0.160108
    21  C   -0.299290
    22  C   -0.299677
    23  C   -0.475605
    24  H    0.151339
    25  H    0.149351
    26  H    0.151905
    27  H    0.151883
    28  H    0.155164
    29  H    0.154952
    30  H    0.160228
    31  C   -0.297643
    32  C   -0.308064
    33  C   -0.475337
    34  H    0.149453
    35  H    0.149513
    36  H    0.160083
    37  H    0.151897
    38  H    0.155454
    39  H    0.155104
    40  H    0.159571
 Sum of Mulliken charges =  -0.00000

 Dipole moment (field-independent basis, Debye):
    X=              0.0056    Y=             -0.0091    Z=              0.0028  Tot=              0.0110
 Quadrupole moment (field-independent basis, Debye-Ang):
   XX=            -84.4777   YY=            -85.9349   ZZ=            -84.4634
   XY=             -0.0013   XZ=              0.5915   YZ=             -0.2747

 Normal termination of Gaussian 16 at Thu May  6 05:28:30 2021.
