 Gaussian 16, Revision A.03,
 Gaussian 16:  EM64L-G16RevA.03 25-Dec-2016

 -------------
 #p 6-31g* mp2
 -------------

 ------------------------------------------------------
 Input file generated by CHIRIPA (05-May-2021 14:55:24)
 ------------------------------------------------------
 Symbolic Z-matrix:
 Charge =  0 Multiplicity = 1

                         Standard orientation:
 ---------------------------------------------------------------------
 Center     Atomic      Atomic             Coordinates (Angstroms)
 Number     Number       Type             X           Y           Z
 ---------------------------------------------------------------------
      1          6           0        4.951668    1.185687    0.400443
      2          6           0        5.205133   -0.185112    0.285609
      3          6           0        4.159693   -1.083281    0.051312
      4          6           0        2.867160   -0.573864   -0.063342
      5          6           0        2.582605    0.786394    0.046271
      6          6           0        3.643520    1.666218    0.280618
      7          1           0        5.769802    1.876280    0.582470
      8          1           0        6.220059   -0.561134    0.378229
      9          1           0        4.327661   -2.149363   -0.041823
     10          1           0        1.560343    1.131359   -0.050667
     11          1           0        3.443714    2.730289    0.369356
     12          7           0        1.752209   -1.515005   -0.311408
     13          8           0        0.622380   -1.040988   -0.408525
     14          8           0        2.029250   -2.708867   -0.404029
     15          6           0       -4.143075   -0.121740    0.335680
     16          6           0       -5.555545   -0.516754   -0.096612
     17          6           0       -6.017340   -1.834806    0.525705
     18          1           0       -3.444443   -0.923587    0.060181
     19          1           0       -4.111204   -0.042102    1.431142
     20          1           0       -5.585090   -0.594272   -1.191023
     21          1           0       -6.250866    0.286212    0.179776
     22          1           0       -6.016351   -1.766145    1.618355
     23          1           0       -5.346793   -2.651632    0.239767
     24          1           0       -7.029533   -2.098136    0.203239
     25          6           0       -3.667275    1.193747   -0.278189
     26          6           0       -2.254805    1.588761    0.154103
     27          6           0       -1.793009    2.906812   -0.468214
     28          1           0       -3.699146    1.114110   -1.373652
     29          1           0       -4.365907    1.995595   -0.002690
     30          1           0       -1.559484    0.785796   -0.122286
     31          1           0       -2.225260    1.666280    1.248513
     32          1           0       -2.463557    3.723640   -0.182278
     33          1           0       -1.793999    2.838153   -1.560865
     34          1           0       -0.780817    3.170144   -0.145750
 ---------------------------------------------------------------------

 SCF Done:  E(RHF) =  -669.536199499     A.U. after   15 cycles
 E2 =    -0.2091284314D+01 EUMP2 =    -0.67162748381340D+03

 The electronic state is 1-A.
 Alpha  occ. eigenvalues --  -20.60918 -20.60908 -15.85962 -11.31260 -11.27825
 Alpha  occ. eigenvalues --  -11.27815 -11.27562 -11.26830 -11.26818 -11.20967
 Alpha  occ. eigenvalues --  -11.20919 -11.20862 -11.20748 -11.20596 -11.20461
 Alpha  occ. eigenvalues --   -1.59982  -1.39539  -1.19429  -1.08838  -1.07774
 Alpha  occ. eigenvalues --   -1.04823  -1.02971  -0.95684  -0.95457  -0.86472
 Alpha  occ. eigenvalues --   -0.86224  -0.82521  -0.79015  -0.77639  -0.77491
 Alpha  occ. eigenvalues --   -0.72191  -0.71296  -0.70540  -0.65090  -0.64829
 Alpha  occ. eigenvalues --   -0.64384  -0.62176  -0.60350  -0.58846  -0.57066
 Alpha  occ. eigenvalues --   -0.55330  -0.54736  -0.53157  -0.52916  -0.52194
 Alpha  occ. eigenvalues --   -0.51879  -0.49384  -0.48945  -0.48931  -0.47332
 Alpha  occ. eigenvalues --   -0.45989  -0.45130  -0.45012  -0.44914  -0.43213
 Alpha  occ. eigenvalues --   -0.37410  -0.36424
 Alpha virt. eigenvalues --    0.04961   0.11231   0.16463   0.20269   0.23231
 Alpha virt. eigenvalues --    0.24065   0.26590   0.27296   0.27689   0.28397
 Alpha virt. eigenvalues --    0.29308   0.30762   0.31527   0.31924   0.32466

 Mulliken charges:
               1
     1  C   -0.170432
     2  C   -0.218784
     3  C   -0.170605
     4  C    0.157389
     5  C   -0.173063
     6  C   -0.219506
     7  H    0.225915
     8  H    0.223680
     9  H    0.275649
    10  H    0.280600
    11  H    0.224000
    12  N    0.495403
    13  O   -0.468772
    14  O   -0.459367
    15  C   -0.300804
    16  C   -0.299277
    17  C   -0.475749
    18  H    0.161453
    19  H    0.147155
    20  H    0.151616
    21  H    0.148892
    22  H    0.153848
    23  H    0.158258
    24  H    0.157882
    25  C   -0.297017
    26  C   -0.314637
    27  C   -0.474307
    28  H    0.149526
    29  H    0.145355
    30  H    0.180514
    31  H    0.147783
    32  H    0.154217
    33  H    0.156436
    34  H    0.146746
 Sum of Mulliken charges =  -0.00000

 Dipole moment (field-independent basis, Debye):
    X=              4.0702    Y=              3.1211    Z=              0.8348  Tot=              5.1966
 Quadrupole moment (field-independent basis, Debye-Ang):
   XX=            -71.0525   YY=            -97.0335   ZZ=            -95.3588
   XY=              4.2645   XZ=              2.3636   YZ=              0.0533

 Normal termination of Gaussian 16 at Thu May  6 12:39:46 2021.
