 Gaussian 16, Revision A.03,
 Gaussian 16:  EM64L-G16RevA.03 25-Dec-2016

 -------------
 #p 6-31g* mp2
 -------------

 ------------------------------------------------------
 Input file generated by CHIRIPA (05-May-2021 14:55:21)
 ------------------------------------------------------
 Symbolic Z-matrix:
 Charge =  0 Multiplicity = 1

                         Standard orientation:
 ---------------------------------------------------------------------
 Center     Atomic      Atomic             Coordinates (Angstroms)
 Number     Number       Type             X           Y           Z
 ---------------------------------------------------------------------
      1          6           0        5.066095   -0.245039   -0.809987
      2          6           0        4.472426   -1.339979   -0.173445
      3          6           0        3.189235   -1.234521    0.371392
      4          6           0        2.525368   -0.013689    0.261216
      5          6           0        3.090085    1.095273   -0.366947
      6          6           0        4.374249    0.966956   -0.904540
      7          1           0        6.063286   -0.335840   -1.230415
      8          1           0        5.007370   -2.282459   -0.098536
      9          1           0        2.706016   -2.066264    0.869511
     10          1           0        2.532038    2.021830   -0.426055
     11          1           0        4.832824    1.818969   -1.398328
     12          7           0        1.166396    0.110055    0.834175
     13          8           0        0.602457    1.196546    0.723969
     14          8           0        0.690905   -0.881790    1.382618
     15          6           0       -3.813914   -0.567382   -0.564512
     16          6           0       -3.463897   -1.888341    0.121446
     17          6           0       -4.060752   -3.101521   -0.592524
     18          1           0       -4.906670   -0.465078   -0.613111
     19          1           0       -3.456115   -0.595492   -1.603062
     20          1           0       -3.821026   -1.857211    1.158801
     21          1           0       -2.371845   -1.987423    0.168589
     22          1           0       -3.695233   -3.160524   -1.622822
     23          1           0       -5.152648   -3.029572   -0.626984
     24          1           0       -3.798114   -4.035163   -0.085380
     25          6           0       -3.224405    0.654635    0.137543
     26          6           0       -3.574422    1.975594   -0.548415
     27          6           0       -2.977566    3.188774    0.165553
     28          1           0       -3.582204    0.682745    1.176092
     29          1           0       -2.131648    0.552331    0.186142
     30          1           0       -4.666473    2.074676   -0.595559
     31          1           0       -3.217293    1.944464   -1.585770
     32          1           0       -1.885670    3.116825    0.200015
     33          1           0       -3.343086    3.247777    1.195853
     34          1           0       -3.240203    4.122417   -0.341590
 ---------------------------------------------------------------------

 SCF Done:  E(RHF) =  -669.536896875     A.U. after   15 cycles
 E2 =    -0.2092015453D+01 EUMP2 =    -0.67162891232789D+03

 The electronic state is 1-A.
 Alpha  occ. eigenvalues --  -20.61173 -20.61167 -15.86170 -11.31423 -11.27973
 Alpha  occ. eigenvalues --  -11.27969 -11.27697 -11.26961 -11.26951 -11.20311
 Alpha  occ. eigenvalues --  -11.20264 -11.20131 -11.20091 -11.19665 -11.19628
 Alpha  occ. eigenvalues --   -1.60206  -1.39765  -1.19580  -1.08997  -1.07035
 Alpha  occ. eigenvalues --   -1.04964  -1.02244  -0.95849  -0.94699  -0.86368
 Alpha  occ. eigenvalues --   -0.85717  -0.82687  -0.78306  -0.77750  -0.76793
 Alpha  occ. eigenvalues --   -0.72378  -0.71512  -0.70687  -0.65236  -0.64966
 Alpha  occ. eigenvalues --   -0.63674  -0.62310  -0.59651  -0.58076  -0.56301
 Alpha  occ. eigenvalues --   -0.55471  -0.53990  -0.53299  -0.53053  -0.51453
 Alpha  occ. eigenvalues --   -0.51114  -0.49212  -0.49143  -0.48611  -0.46622
 Alpha  occ. eigenvalues --   -0.45425  -0.45100  -0.44378  -0.44104  -0.42464
 Alpha  occ. eigenvalues --   -0.37553  -0.36560
 Alpha virt. eigenvalues --    0.04734   0.11096   0.16236   0.21220   0.24210
 Alpha virt. eigenvalues --    0.25513   0.27165   0.27820   0.28216   0.29068
 Alpha virt. eigenvalues --    0.29210   0.30868   0.32141   0.32684   0.32898

 Mulliken charges:
               1
     1  C   -0.170273
     2  C   -0.218621
     3  C   -0.170546
     4  C    0.158414
     5  C   -0.170512
     6  C   -0.218581
     7  H    0.226519
     8  H    0.224324
     9  H    0.276180
    10  H    0.275942
    11  H    0.224345
    12  N    0.490175
    13  O   -0.460961
    14  O   -0.458120
    15  C   -0.297381
    16  C   -0.301014
    17  C   -0.474836
    18  H    0.143724
    19  H    0.143545
    20  H    0.151313
    21  H    0.162269
    22  H    0.151141
    23  H    0.152002
    24  H    0.157083
    25  C   -0.307955
    26  C   -0.297066
    27  C   -0.479233
    28  H    0.146722
    29  H    0.176396
    30  H    0.145289
    31  H    0.145780
    32  H    0.170170
    33  H    0.152736
    34  H    0.151029
 Sum of Mulliken charges =  -0.00000

 Dipole moment (field-independent basis, Debye):
    X=              5.3174    Y=             -0.4535    Z=             -1.8598  Tot=              5.6515
 Quadrupole moment (field-independent basis, Debye-Ang):
   XX=            -72.1637   YY=            -92.0050   ZZ=            -96.1383
   XY=             -1.7489   XZ=             -5.1550   YZ=             -2.1578

 Normal termination of Gaussian 16 at Thu May  6 19:10:29 2021.
