 Gaussian 16, Revision A.03,
 Gaussian 16:  EM64L-G16RevA.03 25-Dec-2016

 -------------
 #p 6-31g* mp2
 -------------

 ------------------------------------------------------
 Input file generated by CHIRIPA (05-May-2021 14:53:14)
 ------------------------------------------------------
 Symbolic Z-matrix:
 Charge =  0 Multiplicity = 1

                         Standard orientation:
 ---------------------------------------------------------------------
 Center     Atomic      Atomic             Coordinates (Angstroms)
 Number     Number       Type             X           Y           Z
 ---------------------------------------------------------------------
      1          6           0       -2.864185   -0.439847   -0.045657
      2          6           0       -3.760555   -1.572940   -0.546262
      3          6           0       -3.252165   -2.954839   -0.134328
      4          1           0       -1.846511   -0.587924   -0.432125
      5          1           0       -2.793601   -0.494123    1.049545
      6          1           0       -3.830543   -1.515709   -1.640082
      7          1           0       -4.776258   -1.422044   -0.158714
      8          1           0       -3.199154   -3.036516    0.956140
      9          1           0       -2.248066   -3.130712   -0.533645
     10          1           0       -3.907822   -3.750033   -0.502624
     11          6           0       -3.359321    0.947772   -0.449492
     12          6           0       -2.462951    2.080866    0.051113
     13          6           0       -2.971340    3.462764   -0.360821
     14          1           0       -3.429905    1.002048   -1.544694
     15          1           0       -4.376995    1.095849   -0.063024
     16          1           0       -1.447248    1.929969   -0.336435
     17          1           0       -2.392962    2.023634    1.144933
     18          1           0       -3.975440    3.638637    0.038496
     19          1           0       -3.024352    3.544441   -1.451289
     20          1           0       -2.315684    4.257958    0.007475
     21          6           0        4.651852    0.522553   -0.762724
     22          6           0        4.156672   -0.757793   -1.031114
     23          6           0        2.927361   -1.167972   -0.506618
     24          6           0        2.216358   -0.268108    0.285854
     25          6           0        2.683055    1.014084    0.571280
     26          6           0        3.914762    1.402853    0.036208
     27          1           0        5.607742    0.832874   -1.174273
     28          1           0        4.726943   -1.443554   -1.651250
     29          1           0        2.520481   -2.153390   -0.698495
     30          1           0        2.091796    1.675466    1.192895
     31          1           0        4.296860    2.397792    0.246310
     32          7           0        0.913673   -0.691013    0.846712
     33          8           0        0.306515    0.120526    1.541983
     34          8           0        0.524453   -1.826017    0.580423
 ---------------------------------------------------------------------

 SCF Done:  E(RHF) =  -669.535868384     A.U. after   15 cycles
 E2 =    -0.2093321462D+01 EUMP2 =    -0.67162918984640D+03

 The electronic state is 1-A.
 Alpha  occ. eigenvalues --  -20.61057 -20.61030 -15.86022 -11.31349 -11.27907
 Alpha  occ. eigenvalues --  -11.27900 -11.27638 -11.26907 -11.26897 -11.20435
 Alpha  occ. eigenvalues --  -11.20277 -11.20209 -11.20144 -11.19634 -11.19544
 Alpha  occ. eigenvalues --   -1.60078  -1.39635  -1.19512  -1.08919  -1.07066
 Alpha  occ. eigenvalues --   -1.04904  -1.02270  -0.95762  -0.94721  -0.86305
 Alpha  occ. eigenvalues --   -0.85732  -0.82601  -0.78340  -0.77651  -0.76810
 Alpha  occ. eigenvalues --   -0.72254  -0.71382  -0.70618  -0.65167  -0.64905
 Alpha  occ. eigenvalues --   -0.63720  -0.62250  -0.59691  -0.58116  -0.56312
 Alpha  occ. eigenvalues --   -0.55408  -0.54021  -0.53239  -0.52994  -0.51482
 Alpha  occ. eigenvalues --   -0.51123  -0.49082  -0.49025  -0.48649  -0.46670
 Alpha  occ. eigenvalues --   -0.45464  -0.44946  -0.44250  -0.44201  -0.42489
 Alpha  occ. eigenvalues --   -0.37483  -0.36504
 Alpha virt. eigenvalues --    0.04829   0.11143   0.16307   0.21263   0.24076
 Alpha virt. eigenvalues --    0.25489   0.27171   0.27677   0.28128   0.29009
 Alpha virt. eigenvalues --    0.29139   0.31040   0.32037   0.32648   0.32786

 Mulliken charges:
               1
     1  C   -0.293591
     2  C   -0.300216
     3  C   -0.473871
     4  H    0.153886
     5  H    0.160694
     6  H    0.144246
     7  H    0.145832
     8  H    0.157484
     9  H    0.164094
    10  H    0.150324
    11  C   -0.299734
    12  C   -0.294249
    13  C   -0.475224
    14  H    0.142380
    15  H    0.144897
    16  H    0.146850
    17  H    0.159689
    18  H    0.153371
    19  H    0.151005
    20  H    0.154579
    21  C   -0.170487
    22  C   -0.218556
    23  C   -0.170975
    24  C    0.158968
    25  C   -0.171082
    26  C   -0.218537
    27  H    0.226232
    28  H    0.224028
    29  H    0.275757
    30  H    0.276382
    31  H    0.224125
    32  N    0.486462
    33  O   -0.455878
    34  O   -0.458885
 Sum of Mulliken charges =  -0.00000

 Dipole moment (field-independent basis, Debye):
    X=              4.9727    Y=              1.3713    Z=             -1.7419  Tot=              5.4445
 Quadrupole moment (field-independent basis, Debye-Ang):
   XX=            -76.0053   YY=            -93.7078   ZZ=            -94.9711
   XY=              1.9626   XZ=             -4.7344   YZ=              3.5990

 Normal termination of Gaussian 16 at Thu May  6 10:32:25 2021.
