 Gaussian 16, Revision A.03,
 Gaussian 16:  EM64L-G16RevA.03 25-Dec-2016

 -------------
 #p 6-31g* mp2
 -------------

 ------------------------------------------------------
 Input file generated by CHIRIPA (05-May-2021 14:55:18)
 ------------------------------------------------------
 Symbolic Z-matrix:
 Charge =  0 Multiplicity = 1

                         Standard orientation:
 ---------------------------------------------------------------------
 Center     Atomic      Atomic             Coordinates (Angstroms)
 Number     Number       Type             X           Y           Z
 ---------------------------------------------------------------------
      1          6           0        5.568387   -1.461101    0.058992
      2          6           0        5.855517   -0.112566    0.294643
      3          6           0        4.841030    0.848214    0.247017
      4          6           0        3.544786    0.423430   -0.040386
      5          6           0        3.227067   -0.912631   -0.279734
      6          6           0        4.257390   -1.856133   -0.226940
      7          1           0        6.362615   -2.200746    0.097997
      8          1           0        6.872735    0.197107    0.516935
      9          1           0        5.035394    1.898838    0.425423
     10          1           0        2.203371   -1.190918   -0.498868
     11          1           0        4.031474   -2.902727   -0.410371
     12          7           0        2.462413    1.431418   -0.093541
     13          8           0        1.328595    1.031509   -0.348819
     14          8           0        2.768361    2.602303    0.121079
     15          6           0       -5.462716   -0.319367    0.352653
     16          6           0       -6.476144    0.494588   -0.452597
     17          6           0       -7.865970    0.505082    0.184638
     18          1           0       -5.828451   -1.350230    0.455146
     19          1           0       -5.397752    0.091802    1.369567
     20          1           0       -6.538155    0.082865   -1.468104
     21          1           0       -6.107862    1.523583   -0.553349
     22          1           0       -7.825342    0.935424    1.190499
     23          1           0       -8.258081   -0.513480    0.270546
     24          1           0       -8.574629    1.092616   -0.407365
     25          6           0       -4.068612   -0.339324   -0.271691
     26          6           0       -3.055183   -1.153278    0.533558
     27          6           0       -1.665357   -1.163773   -0.103676
     28          1           0       -4.133576   -0.750493   -1.288606
     29          1           0       -3.702875    0.691539   -0.374185
     30          1           0       -3.423466   -2.182274    0.634310
     31          1           0       -2.993171   -0.741556    1.549065
     32          1           0       -1.273247   -0.145210   -0.189585
     33          1           0       -1.705986   -1.594115   -1.109537
     34          1           0       -0.956699   -1.751306    0.488327
 ---------------------------------------------------------------------

 SCF Done:  E(RHF) =  -669.536004059     A.U. after   15 cycles
 E2 =    -0.2090776709D+01 EUMP2 =    -0.67162678076744D+03

 The electronic state is 1-A.
 Alpha  occ. eigenvalues --  -20.60841 -20.60836 -15.85889 -11.31217 -11.27788
 Alpha  occ. eigenvalues --  -11.27769 -11.27530 -11.26798 -11.26785 -11.21144
 Alpha  occ. eigenvalues --  -11.20932 -11.20872 -11.20730 -11.20691 -11.20166
 Alpha  occ. eigenvalues --   -1.59912  -1.39466  -1.19389  -1.08793  -1.07854
 Alpha  occ. eigenvalues --   -1.04787  -1.02937  -0.95639  -0.95372  -0.86394
 Alpha  occ. eigenvalues --   -0.86186  -0.82467  -0.79012  -0.77671  -0.77499
 Alpha  occ. eigenvalues --   -0.72118  -0.71229  -0.70498  -0.65047  -0.64791
 Alpha  occ. eigenvalues --   -0.64480  -0.62132  -0.60321  -0.58778  -0.56996
 Alpha  occ. eigenvalues --   -0.55294  -0.54638  -0.53120  -0.52881  -0.52096
 Alpha  occ. eigenvalues --   -0.51790  -0.49312  -0.48867  -0.48837  -0.47313
 Alpha  occ. eigenvalues --   -0.46032  -0.45199  -0.45124  -0.44860  -0.43212
 Alpha  occ. eigenvalues --   -0.37373  -0.36390
 Alpha virt. eigenvalues --    0.05012   0.11262   0.16505   0.21198   0.23438
 Alpha virt. eigenvalues --    0.24726   0.26565   0.27238   0.27674   0.28084
 Alpha virt. eigenvalues --    0.29149   0.30603   0.31640   0.32060   0.32407

 Mulliken charges:
               1
     1  C   -0.170590
     2  C   -0.218713
     3  C   -0.170727
     4  C    0.157514
     5  C   -0.172289
     6  C   -0.218939
     7  H    0.225687
     8  H    0.223492
     9  H    0.275575
    10  H    0.278884
    11  H    0.223780
    12  N    0.493956
    13  O   -0.465807
    14  O   -0.460045
    15  C   -0.297906
    16  C   -0.299484
    17  C   -0.475425
    18  H    0.147452
    19  H    0.149370
    20  H    0.151009
    21  H    0.153312
    22  H    0.154973
    23  H    0.153917
    24  H    0.159306
    25  C   -0.298734
    26  C   -0.299158
    27  C   -0.482909
    28  H    0.147666
    29  H    0.154663
    30  H    0.146679
    31  H    0.151829
    32  H    0.183711
    33  H    0.148559
    34  H    0.149395
 Sum of Mulliken charges =  -0.00000

 Dipole moment (field-independent basis, Debye):
    X=              3.9782    Y=             -3.4065    Z=              0.1679  Tot=              5.2401
 Quadrupole moment (field-independent basis, Debye-Ang):
   XX=            -67.5990   YY=            -95.0717   ZZ=            -95.3500
   XY=             -8.5208   XZ=              1.8960   YZ=              1.5803

 Normal termination of Gaussian 16 at Wed May  5 17:19:13 2021.
