 Gaussian 16, Revision A.03,
 Gaussian 16:  EM64L-G16RevA.03 25-Dec-2016

 -------------
 #p 6-31g* mp2
 -------------

 ------------------------------------------------------
 Input file generated by CHIRIPA (05-May-2021 14:53:15)
 ------------------------------------------------------
 Symbolic Z-matrix:
 Charge =  0 Multiplicity = 1

                         Standard orientation:
 ---------------------------------------------------------------------
 Center     Atomic      Atomic             Coordinates (Angstroms)
 Number     Number       Type             X           Y           Z
 ---------------------------------------------------------------------
      1          6           0       -3.732660    0.533231   -0.304947
      2          6           0       -3.326361    1.817907    0.417904
      3          6           0       -1.874805    2.214756    0.147186
      4          1           0       -3.064296   -0.281606    0.005333
      5          1           0       -3.583220    0.665789   -1.385452
      6          1           0       -3.477831    1.683445    1.496604
      7          1           0       -3.995892    2.629737    0.106013
      8          1           0       -1.712808    2.376082   -0.923483
      9          1           0       -1.191804    1.424413    0.475009
     10          1           0       -1.605543    3.135754    0.673608
     11          6           0       -5.181057    0.123520   -0.044158
     12          6           0       -5.587357   -1.161155   -0.767009
     13          6           0       -7.038913   -1.558004   -0.496291
     14          1           0       -5.330498   -0.009038    1.036347
     15          1           0       -5.849422    0.938358   -0.354437
     16          1           0       -4.917826   -1.972986   -0.455118
     17          1           0       -5.435887   -1.026694   -1.845709
     18          1           0       -7.721914   -0.767661   -0.824114
     19          1           0       -7.200910   -1.719330    0.574378
     20          1           0       -7.308175   -2.479002   -1.022713
     21          6           0        5.569014    0.132583   -1.226915
     22          6           0        5.242592   -1.158722   -0.799713
     23          6           0        4.088667   -1.386056   -0.043853
     24          6           0        3.280148   -0.294162    0.268166
     25          6           0        3.578425    1.004087   -0.142770
     26          6           0        4.737357    1.207970   -0.897660
     27          1           0        6.467356    0.300074   -1.813709
     28          1           0        5.886611   -1.995773   -1.053935
     29          1           0        3.812184   -2.375426    0.299838
     30          1           0        2.916863    1.818562    0.126267
     31          1           0        4.988369    2.211895   -1.228072
     32          7           0        2.055890   -0.522419    1.067848
     33          8           0        1.360109    0.456374    1.329551
     34          8           0        1.815280   -1.675797    1.417794
 ---------------------------------------------------------------------

 SCF Done:  E(RHF) =  -669.536257753     A.U. after   15 cycles
 E2 =    -0.2090671744D+01 EUMP2 =    -0.67162692949758D+03

 The electronic state is 1-A.
 Alpha  occ. eigenvalues --  -20.60941 -20.60936 -15.85970 -11.31274 -11.27839
 Alpha  occ. eigenvalues --  -11.27829 -11.27577 -11.26844 -11.26832 -11.20999
 Alpha  occ. eigenvalues --  -11.20679 -11.20636 -11.20567 -11.20499 -11.19814
 Alpha  occ. eigenvalues --   -1.60002  -1.39557  -1.19443  -1.08852  -1.07640
 Alpha  occ. eigenvalues --   -1.04837  -1.02710  -0.95697  -0.95149  -0.86239
 Alpha  occ. eigenvalues --   -0.86167  -0.82529  -0.78795  -0.77586  -0.77438
 Alpha  occ. eigenvalues --   -0.72196  -0.71313  -0.70553  -0.65100  -0.64841
 Alpha  occ. eigenvalues --   -0.64266  -0.62183  -0.60096  -0.58557  -0.56767
 Alpha  occ. eigenvalues --   -0.55345  -0.54419  -0.53170  -0.52929  -0.51858
 Alpha  occ. eigenvalues --   -0.51576  -0.49152  -0.48954  -0.48875  -0.47107
 Alpha  occ. eigenvalues --   -0.45840  -0.45071  -0.44951  -0.44764  -0.42980
 Alpha  occ. eigenvalues --   -0.37423  -0.36437
 Alpha virt. eigenvalues --    0.04915   0.11218   0.16392   0.21340   0.23651
 Alpha virt. eigenvalues --    0.25181   0.27260   0.27445   0.28070   0.28320
 Alpha virt. eigenvalues --    0.28969   0.30892   0.32173   0.32385   0.32678

 Mulliken charges:
               1
     1  C   -0.299141
     2  C   -0.298248
     3  C   -0.485924
     4  H    0.155744
     5  H    0.145697
     6  H    0.152994
     7  H    0.146313
     8  H    0.145674
     9  H    0.182264
    10  H    0.155115
    11  C   -0.297771
    12  C   -0.299407
    13  C   -0.475305
    14  H    0.149977
    15  H    0.147137
    16  H    0.153454
    17  H    0.149994
    18  H    0.153748
    19  H    0.155217
    20  H    0.158512
    21  C   -0.170554
    22  C   -0.218629
    23  C   -0.170687
    24  C    0.157874
    25  C   -0.170636
    26  C   -0.218624
    27  H    0.225933
    28  H    0.223717
    29  H    0.275718
    30  H    0.276609
    31  H    0.223898
    32  N    0.490140
    33  O   -0.461445
    34  O   -0.459358
 Sum of Mulliken charges =  -0.00000

 Dipole moment (field-independent basis, Debye):
    X=              4.6002    Y=              0.7033    Z=             -2.7268  Tot=              5.3937
 Quadrupole moment (field-independent basis, Debye-Ang):
   XX=            -68.7088   YY=            -90.7606   ZZ=            -96.5223
   XY=             -0.0795   XZ=             -8.2661   YZ=              0.4513

 Normal termination of Gaussian 16 at Thu May  6 12:08:57 2021.
