 Gaussian 16, Revision A.03,
 Gaussian 16:  EM64L-G16RevA.03 25-Dec-2016

 -------------
 #p 6-31g* mp2
 -------------

 ------------------------------------------------------
 Input file generated by CHIRIPA (05-May-2021 14:51:14)
 ------------------------------------------------------
 Symbolic Z-matrix:
 Charge =  0 Multiplicity = 1

                         Standard orientation:
 ---------------------------------------------------------------------
 Center     Atomic      Atomic             Coordinates (Angstroms)
 Number     Number       Type             X           Y           Z
 ---------------------------------------------------------------------
      1          6           0        1.891127   -0.816316    0.761342
      2          6           0        1.322322   -2.197352    0.433953
      3          6           0        0.369428   -2.714925    1.511871
      4          1           0        2.415918   -0.862058    1.725421
      5          1           0        1.061845   -0.107038    0.890225
      6          1           0        2.152481   -2.903510    0.304364
      7          1           0        0.798989   -2.148362   -0.529550
      8          1           0       -0.477831   -2.032909    1.636801
      9          1           0        0.883351   -2.792348    2.475453
     10          1           0       -0.025449   -3.703495    1.257585
     11          6           0        2.845480   -0.285412   -0.306871
     12          6           0        3.414285    1.095624    0.020518
     13          6           0        4.367179    1.613197   -1.057400
     14          1           0        3.674762   -0.994690   -0.435754
     15          1           0        2.320689   -0.239670   -1.270950
     16          1           0        3.937618    1.046634    0.984021
     17          1           0        2.584126    1.801782    0.150108
     18          1           0        3.853256    1.690620   -2.020982
     19          1           0        5.214438    0.931181   -1.182330
     20          1           0        4.762056    2.601767   -0.803114
     21          6           0       -2.140514   -0.033518   -0.663173
     22          6           0       -2.947021   -1.312042   -0.433149
     23          6           0       -2.479463   -2.472177   -1.312507
     24          1           0       -2.214152    0.253539   -1.721058
     25          1           0       -1.078687   -0.238001   -0.467969
     26          1           0       -4.007191   -1.104854   -0.627388
     27          1           0       -2.871611   -1.595984    0.624351
     28          1           0       -1.428891   -2.707333   -1.113503
     29          1           0       -2.570922   -2.213413   -2.372355
     30          1           0       -3.069556   -3.376059   -1.131819
     31          6           0       -2.596092    1.135247    0.208702
     32          6           0       -1.789587    2.413770   -0.021322
     33          6           0       -2.257145    3.573905    0.858035
     34          1           0       -3.657920    1.339729    0.013499
     35          1           0       -2.522454    0.848189    1.266586
     36          1           0       -1.864995    2.697712   -1.078823
     37          1           0       -0.729417    2.206582    0.172918
     38          1           0       -2.165684    3.315141    1.917883
     39          1           0       -3.307715    3.809061    0.659031
     40          1           0       -1.667052    4.477787    0.677348
 ---------------------------------------------------------------------

 SCF Done:  E(RHF) =  -470.732300378     A.U. after   11 cycles
 E2 =    -0.1585767435D+01 EUMP2 =    -0.47231806781230D+03

 The electronic state is 1-A.
 Alpha  occ. eigenvalues --  -11.21669 -11.21668 -11.21639 -11.21601 -11.21468
 Alpha  occ. eigenvalues --  -11.21446 -11.21401 -11.21379 -11.21132 -11.21110
 Alpha  occ. eigenvalues --  -11.21089 -11.21024  -1.08554  -1.08419  -1.03656
 Alpha  occ. eigenvalues --   -1.03495  -0.96079  -0.95962  -0.87057  -0.87017
 Alpha  occ. eigenvalues --   -0.79706  -0.79578  -0.78315  -0.78290  -0.65618
 Alpha  occ. eigenvalues --   -0.64711  -0.61410  -0.60537  -0.59420  -0.59356
 Alpha  occ. eigenvalues --   -0.57712  -0.57570  -0.55534  -0.55055  -0.52728
 Alpha  occ. eigenvalues --   -0.52685  -0.52465  -0.52427  -0.50028  -0.49938
 Alpha  occ. eigenvalues --   -0.48096  -0.47824  -0.46904  -0.46498  -0.46146
 Alpha  occ. eigenvalues --   -0.45773  -0.45702  -0.45380  -0.43840  -0.43809
 Alpha virt. eigenvalues --    0.18888   0.21767   0.23324   0.25086   0.25759
 Alpha virt. eigenvalues --    0.25962   0.26546   0.27401   0.28699   0.30381
 Alpha virt. eigenvalues --    0.31040   0.31306   0.31332   0.32103   0.32280

 Mulliken charges:
               1
     1  C   -0.302914
     2  C   -0.306918
     3  C   -0.479977
     4  H    0.150495
     5  H    0.152256
     6  H    0.153402
     7  H    0.156413
     8  H    0.158575
     9  H    0.155920
    10  H    0.161370
    11  C   -0.298579
    12  C   -0.300683
    13  C   -0.475765
    14  H    0.149944
    15  H    0.150470
    16  H    0.152035
    17  H    0.152522
    18  H    0.155540
    19  H    0.155252
    20  H    0.160391
    21  C   -0.307710
    22  C   -0.300570
    23  C   -0.482881
    24  H    0.149783
    25  H    0.157792
    26  H    0.152249
    27  H    0.153328
    28  H    0.163539
    29  H    0.154521
    30  H    0.160228
    31  C   -0.297938
    32  C   -0.302328
    33  C   -0.475673
    34  H    0.150200
    35  H    0.149260
    36  H    0.152268
    37  H    0.152803
    38  H    0.155488
    39  H    0.155473
    40  H    0.160418
 Sum of Mulliken charges =  -0.00000

 Dipole moment (field-independent basis, Debye):
    X=              0.0220    Y=             -0.0118    Z=              0.0038  Tot=              0.0252
 Quadrupole moment (field-independent basis, Debye-Ang):
   XX=            -84.2569   YY=            -85.5690   ZZ=            -84.8170
   XY=             -0.7410   XZ=              1.4350   YZ=             -0.6304

 Normal termination of Gaussian 16 at Thu May  6 02:26:33 2021.
