 Gaussian 16, Revision A.03,
 Gaussian 16:  EM64L-G16RevA.03 25-Dec-2016

 -------------
 #p 6-31g* mp2
 -------------

 ------------------------------------------------------
 Input file generated by CHIRIPA (05-May-2021 14:51:07)
 ------------------------------------------------------
 Symbolic Z-matrix:
 Charge =  0 Multiplicity = 1

                         Standard orientation:
 ---------------------------------------------------------------------
 Center     Atomic      Atomic             Coordinates (Angstroms)
 Number     Number       Type             X           Y           Z
 ---------------------------------------------------------------------
      1          6           0        3.242233   -0.519206   -0.226818
      2          6           0        2.780454   -1.570382    0.783021
      3          6           0        2.587588   -2.950336    0.153478
      4          1           0        2.506599   -0.453208   -1.040102
      5          1           0        4.185101   -0.849591   -0.684246
      6          1           0        1.839453   -1.237458    1.239415
      7          1           0        3.517177   -1.633748    1.594094
      8          1           0        3.524499   -3.307631   -0.285996
      9          1           0        1.837243   -2.909089   -0.642690
     10          1           0        2.257367   -3.686414    0.893074
     11          6           0        3.439449    0.865521    0.387484
     12          6           0        3.901229    1.916696   -0.622354
     13          6           0        4.094095    3.296650    0.007189
     14          1           0        2.496581    1.195906    0.844913
     15          1           0        4.175083    0.799523    1.200769
     16          1           0        3.164506    1.980063   -1.433427
     17          1           0        4.842229    1.583773   -1.078749
     18          1           0        4.844440    3.255404    0.803357
     19          1           0        3.157183    3.653945    0.446663
     20          1           0        4.424316    4.032728   -0.732408
     21          6           0       -3.181020   -0.913516    0.018449
     22          6           0       -1.813448   -1.317512   -0.533384
     23          6           0       -1.508136   -2.801593   -0.328248
     24          1           0       -3.222384   -1.153165    1.089804
     25          1           0       -3.958300   -1.519317   -0.467592
     26          1           0       -1.039100   -0.710165   -0.047452
     27          1           0       -1.775266   -1.076697   -1.603508
     28          1           0       -2.259223   -3.422047   -0.827753
     29          1           0       -1.518875   -3.053432    0.737145
     30          1           0       -0.525763   -3.068652   -0.730100
     31          6           0       -3.500663    0.567202   -0.179115
     32          6           0       -4.868234    0.971197    0.372718
     33          6           0       -5.173547    2.455279    0.167582
     34          1           0       -2.723382    1.173002    0.306925
     35          1           0       -3.459299    0.806851   -1.250471
     36          1           0       -4.906417    0.730382    1.442842
     37          1           0       -5.642583    0.363850   -0.113215
     38          1           0       -5.162808    2.707117   -0.897811
     39          1           0       -4.422459    3.075731    0.667086
     40          1           0       -6.155919    2.722338    0.569433
 ---------------------------------------------------------------------

 SCF Done:  E(RHF) =  -470.733197698     A.U. after   11 cycles
 E2 =    -0.1582775660D+01 EUMP2 =    -0.47231597335797D+03

 The electronic state is 1-A.
 Alpha  occ. eigenvalues --  -11.21645 -11.21625 -11.21607 -11.21602 -11.21436
 Alpha  occ. eigenvalues --  -11.21408 -11.21376 -11.21349 -11.21091 -11.21073
 Alpha  occ. eigenvalues --  -11.21056 -11.21048  -1.08463  -1.08429  -1.03574
 Alpha  occ. eigenvalues --   -1.03510  -0.96038  -0.95942  -0.87067  -0.86947
 Alpha  occ. eigenvalues --   -0.79647  -0.79564  -0.78274  -0.78245  -0.65133
 Alpha  occ. eigenvalues --   -0.65029  -0.61062  -0.60871  -0.59367  -0.59340
 Alpha  occ. eigenvalues --   -0.57667  -0.57549  -0.55346  -0.55209  -0.52774
 Alpha  occ. eigenvalues --   -0.52627  -0.52478  -0.52313  -0.49973  -0.49867
 Alpha  occ. eigenvalues --   -0.47966  -0.47872  -0.46687  -0.46583  -0.45829
 Alpha  occ. eigenvalues --   -0.45789  -0.45742  -0.45683  -0.43810  -0.43757
 Alpha virt. eigenvalues --    0.20299   0.23178   0.23530   0.25386   0.25876
 Alpha virt. eigenvalues --    0.26413   0.26954   0.27600   0.28057   0.29042
 Alpha virt. eigenvalues --    0.30150   0.31056   0.31472   0.31904   0.32317

 Mulliken charges:
               1
     1  C   -0.298753
     2  C   -0.300702
     3  C   -0.478703
     4  H    0.150225
     5  H    0.149561
     6  H    0.152729
     7  H    0.151984
     8  H    0.155045
     9  H    0.158377
    10  H    0.160706
    11  C   -0.298155
    12  C   -0.299712
    13  C   -0.475694
    14  H    0.149058
    15  H    0.149638
    16  H    0.152176
    17  H    0.151945
    18  H    0.155141
    19  H    0.155117
    20  H    0.160306
    21  C   -0.298250
    22  C   -0.300962
    23  C   -0.480362
    24  H    0.149778
    25  H    0.149833
    26  H    0.151883
    27  H    0.151681
    28  H    0.155027
    29  H    0.155194
    30  H    0.165941
    31  C   -0.298237
    32  C   -0.299685
    33  C   -0.475722
    34  H    0.149181
    35  H    0.149644
    36  H    0.152015
    37  H    0.152037
    38  H    0.155200
    39  H    0.155143
    40  H    0.160369
 Sum of Mulliken charges =  -0.00000

 Dipole moment (field-independent basis, Debye):
    X=              0.0010    Y=             -0.0137    Z=             -0.0026  Tot=              0.0140
 Quadrupole moment (field-independent basis, Debye-Ang):
   XX=            -83.7962   YY=            -86.8764   ZZ=            -84.0104
   XY=              0.0420   XZ=              0.5110   YZ=             -0.1028

 Normal termination of Gaussian 16 at Thu May  6 02:04:17 2021.
