 Gaussian 16, Revision A.03,
 Gaussian 16:  EM64L-G16RevA.03 25-Dec-2016

 -------------
 #p 6-31g* mp2
 -------------

 ------------------------------------------------------
 Input file generated by CHIRIPA (05-May-2021 14:55:22)
 ------------------------------------------------------
 Symbolic Z-matrix:
 Charge =  0 Multiplicity = 1

                         Standard orientation:
 ---------------------------------------------------------------------
 Center     Atomic      Atomic             Coordinates (Angstroms)
 Number     Number       Type             X           Y           Z
 ---------------------------------------------------------------------
      1          6           0        5.137583    0.453316    0.191271
      2          6           0        4.447635    0.021241    1.328726
      3          6           0        3.149936   -0.487679    1.221376
      4          6           0        2.569895   -0.550473   -0.044680
      5          6           0        3.231476   -0.127879   -1.196641
      6          6           0        4.528376    0.377511   -1.065566
      7          1           0        6.145357    0.847286    0.283878
      8          1           0        4.918263    0.078934    2.306083
      9          1           0        2.593008   -0.829142    2.085467
     10          1           0        2.736088   -0.197799   -2.157432
     11          1           0        5.061810    0.712337   -1.950657
     12          7           0        1.196502   -1.087376   -0.170885
     13          8           0        0.707642   -1.132221   -1.297669
     14          8           0        0.634902   -1.453188    0.859369
     15          6           0       -2.861728    0.735524   -0.188253
     16          6           0       -2.326327    2.070602    0.330304
     17          6           0       -0.889823    2.344848   -0.115833
     18          1           0       -2.207017   -0.075008    0.160081
     19          1           0       -2.810136    0.729162   -1.285838
     20          1           0       -2.380201    2.074983    1.426522
     21          1           0       -2.982495    2.878031   -0.019146
     22          1           0       -0.823411    2.367418   -1.208390
     23          1           0       -0.217694    1.559807    0.245492
     24          1           0       -0.527094    3.304273    0.265995
     25          6           0       -4.296665    0.447157    0.249387
     26          6           0       -4.832065   -0.887918   -0.269170
     27          6           0       -6.268570   -1.162166    0.176966
     28          1           0       -4.348256    0.453520    1.346972
     29          1           0       -4.951375    1.257691   -0.098947
     30          1           0       -4.175896   -1.695349    0.080280
     31          1           0       -4.778191   -0.892301   -1.365389
     32          1           0       -6.940698   -0.377125   -0.184359
     33          1           0       -6.334981   -1.184736    1.269523
     34          1           0       -6.631298   -2.121590   -0.204861
 ---------------------------------------------------------------------

 SCF Done:  E(RHF) =  -669.536333981     A.U. after   15 cycles
 E2 =    -0.2092040605D+01 EUMP2 =    -0.67162837458626D+03

 The electronic state is 1-A.
 Alpha  occ. eigenvalues --  -20.60962 -20.60955 -15.85971 -11.31280 -11.27843
 Alpha  occ. eigenvalues --  -11.27835 -11.27576 -11.26841 -11.26830 -11.20693
 Alpha  occ. eigenvalues --  -11.20557 -11.20366 -11.20331 -11.20243 -11.20016
 Alpha  occ. eigenvalues --   -1.60015  -1.39568  -1.19445  -1.08856  -1.07356
 Alpha  occ. eigenvalues --   -1.04837  -1.02599  -0.95700  -0.95054  -0.86239
 Alpha  occ. eigenvalues --   -0.86083  -0.82533  -0.78658  -0.77590  -0.77121
 Alpha  occ. eigenvalues --   -0.72191  -0.71344  -0.70555  -0.65100  -0.64842
 Alpha  occ. eigenvalues --   -0.63979  -0.62185  -0.60002  -0.58420  -0.56657
 Alpha  occ. eigenvalues --   -0.55345  -0.54344  -0.53168  -0.52930  -0.51810
 Alpha  occ. eigenvalues --   -0.51486  -0.49039  -0.48962  -0.48940  -0.46972
 Alpha  occ. eigenvalues --   -0.45675  -0.44997  -0.44667  -0.44517  -0.42804
 Alpha  occ. eigenvalues --   -0.37421  -0.36433
 Alpha virt. eigenvalues --    0.04914   0.11219   0.16399   0.21345   0.23894
 Alpha virt. eigenvalues --    0.25053   0.27266   0.27599   0.28107   0.28487
 Alpha virt. eigenvalues --    0.28921   0.30900   0.31925   0.32499   0.32596

 Mulliken charges:
               1
     1  C   -0.170356
     2  C   -0.218553
     3  C   -0.171047
     4  C    0.156928
     5  C   -0.170026
     6  C   -0.218614
     7  H    0.225974
     8  H    0.223757
     9  H    0.275745
    10  H    0.276006
    11  H    0.223820
    12  N    0.489296
    13  O   -0.457201
    14  O   -0.461605
    15  C   -0.305216
    16  C   -0.298180
    17  C   -0.473523
    18  H    0.172254
    19  H    0.149343
    20  H    0.149652
    21  H    0.147321
    22  H    0.155803
    23  H    0.152104
    24  H    0.153680
    25  C   -0.297798
    26  C   -0.299771
    27  C   -0.475188
    28  H    0.147046
    29  H    0.144404
    30  H    0.158577
    31  H    0.151312
    32  H    0.152225
    33  H    0.153523
    34  H    0.158309
 Sum of Mulliken charges =  -0.00000

 Dipole moment (field-independent basis, Debye):
    X=              5.0765    Y=              1.7120    Z=              0.3918  Tot=              5.3717
 Quadrupole moment (field-independent basis, Debye-Ang):
   XX=            -72.3422   YY=            -97.9993   ZZ=            -89.2463
   XY=              2.1936   XZ=              1.3551   YZ=             -1.5461

 Normal termination of Gaussian 16 at Thu May  6 17:36:08 2021.
