 Gaussian 16, Revision A.03,
 Gaussian 16:  EM64L-G16RevA.03 25-Dec-2016

 -------------
 #p 6-31g* mp2
 -------------

 ------------------------------------------------------
 Input file generated by CHIRIPA (05-May-2021 14:57:21)
 ------------------------------------------------------
 Symbolic Z-matrix:
 Charge =  0 Multiplicity = 1

                         Standard orientation:
 ---------------------------------------------------------------------
 Center     Atomic      Atomic             Coordinates (Angstroms)
 Number     Number       Type             X           Y           Z
 ---------------------------------------------------------------------
      1          6           0        3.348801   -1.728586    1.614764
      2          6           0        3.071992   -1.975215    0.266034
      3          6           0        2.838133   -0.916028   -0.615998
      4          6           0        2.889083    0.383130   -0.113125
      5          6           0        3.162332    0.661155    1.225279
      6          6           0        3.393010   -0.413507    2.089245
      7          1           0        3.529233   -2.557399    2.292931
      8          1           0        3.037020   -2.995498   -0.105241
      9          1           0        2.621593   -1.078457   -1.664876
     10          1           0        3.190466    1.689029    1.566016
     11          1           0        3.607749   -0.218984    3.136190
     12          7           0        2.643191    1.512635   -1.037331
     13          8           0        2.693758    2.648072   -0.569504
     14          8           0        2.404550    1.241117   -2.212050
     15          6           0       -4.643436    1.353661    0.972859
     16          6           0       -3.287775    1.697361    0.996829
     17          6           0       -2.329447    0.845846    0.439086
     18          6           0       -2.763923   -0.346884   -0.137037
     19          6           0       -4.107248   -0.717304   -0.176462
     20          6           0       -5.048132    0.149548    0.387321
     21          1           0       -5.381113    2.021096    1.408473
     22          1           0       -2.970590    2.631848    1.450894
     23          1           0       -1.273452    1.087235    0.443928
     24          1           0       -4.392963   -1.655628   -0.636173
     25          1           0       -6.100276   -0.119962    0.367268
     26          7           0       -1.758617   -1.256463   -0.730692
     27          8           0       -2.167116   -2.301535   -1.232280
     28          8           0       -0.581195   -0.907096   -0.683170
 ---------------------------------------------------------------------

 SCF Done:  E(RHF) =  -868.338891760     A.U. after   16 cycles
 E2 =    -0.2599863198D+01 EUMP2 =    -0.87093875495768D+03

 The electronic state is 1-A.
 Alpha  occ. eigenvalues --  -20.60885 -20.60865 -20.60063 -20.60000 -15.85912
 Alpha  occ. eigenvalues --  -15.85080 -11.31145 -11.30225 -11.27719 -11.27676
 Alpha  occ. eigenvalues --  -11.27435 -11.26929 -11.26711 -11.26711 -11.26667
 Alpha  occ. eigenvalues --  -11.26606 -11.25903 -11.25710  -1.59944  -1.59113
 Alpha  occ. eigenvalues --   -1.39502  -1.38670  -1.19310  -1.18415  -1.08734
 Alpha  occ. eigenvalues --   -1.07870  -1.04692  -1.03796  -0.95593  -0.94732
 Alpha  occ. eigenvalues --   -0.86099  -0.85224  -0.82429  -0.81575  -0.77488
 Alpha  occ. eigenvalues --   -0.76628  -0.72172  -0.71316  -0.71247  -0.70434
 Alpha  occ. eigenvalues --   -0.70403  -0.69578  -0.64969  -0.64697  -0.64094
 Alpha  occ. eigenvalues --   -0.63837  -0.62039  -0.61160  -0.55211  -0.54374
 Alpha  occ. eigenvalues --   -0.53031  -0.52784  -0.52115  -0.51917  -0.48913
 Alpha  occ. eigenvalues --   -0.48891  -0.48081  -0.48044  -0.44930  -0.44123
 Alpha  occ. eigenvalues --   -0.37290  -0.36412  -0.36287  -0.35328
 Alpha virt. eigenvalues --    0.05040   0.05914   0.11367   0.12291   0.16555
 Alpha virt. eigenvalues --    0.17417   0.21487   0.22268   0.27401   0.28193
 Alpha virt. eigenvalues --    0.28301   0.29162   0.30978   0.31735   0.32524

 Mulliken charges:
               1
     1  C   -0.170893
     2  C   -0.216776
     3  C   -0.148440
     4  C    0.157176
     5  C   -0.175320
     6  C   -0.220230
     7  H    0.222035
     8  H    0.224130
     9  H    0.279751
    10  H    0.269381
    11  H    0.217836
    12  N    0.487520
    13  O   -0.470057
    14  O   -0.456644
    15  C   -0.170498
    16  C   -0.218786
    17  C   -0.168955
    18  C    0.157997
    19  C   -0.170935
    20  C   -0.218767
    21  H    0.225792
    22  H    0.225467
    23  H    0.276828
    24  H    0.274753
    25  H    0.223083
    26  N    0.492350
    27  O   -0.462173
    28  O   -0.465626
 Sum of Mulliken charges =  -0.00000

 Dipole moment (field-independent basis, Debye):
    X=             -2.8587    Y=             -0.9464    Z=              5.1287  Tot=              5.9473
 Quadrupole moment (field-independent basis, Debye-Ang):
   XX=            -79.1973   YY=           -107.0020   ZZ=           -104.2829
   XY=            -16.6648   XZ=              4.9016   YZ=              4.4569

 Normal termination of Gaussian 16 at Wed May  5 16:13:58 2021.
