 Gaussian 16, Revision A.03,
 Gaussian 16:  EM64L-G16RevA.03 25-Dec-2016

 -------------
 #p 6-31g* mp2
 -------------

 ------------------------------------------------------
 Input file generated by CHIRIPA (05-May-2021 14:51:10)
 ------------------------------------------------------
 Symbolic Z-matrix:
 Charge =  0 Multiplicity = 1

                         Standard orientation:
 ---------------------------------------------------------------------
 Center     Atomic      Atomic             Coordinates (Angstroms)
 Number     Number       Type             X           Y           Z
 ---------------------------------------------------------------------
      1          6           0        2.497366   -1.002446    0.573501
      2          6           0        1.153243   -1.428627   -0.017844
      3          6           0        0.209925   -2.024777    1.027408
      4          1           0        2.974512   -1.871433    1.046935
      5          1           0        2.322448   -0.268247    1.372094
      6          1           0        1.330729   -2.160769   -0.816018
      7          1           0        0.679329   -0.558567   -0.490091
      8          1           0        0.003561   -1.297628    1.819411
      9          1           0        0.658662   -2.908933    1.491632
     10          1           0       -0.744922   -2.322597    0.583078
     11          6           0        3.451263   -0.404561   -0.459137
     12          6           0        4.795386    0.021619    0.132208
     13          6           0        5.738704    0.617770   -0.913043
     14          1           0        3.626181   -1.138760   -1.257729
     15          1           0        2.974117    0.464426   -0.932570
     16          1           0        5.269300   -0.848440    0.604456
     17          1           0        4.617900    0.753761    0.930382
     18          1           0        5.289968    1.501926   -1.377268
     19          1           0        5.945069   -0.109379   -1.705047
     20          1           0        6.693552    0.915590   -0.468713
     21          6           0       -3.651128    0.487589   -0.337785
     22          6           0       -3.932815   -1.004805   -0.160595
     23          6           0       -5.290545   -1.421449   -0.726960
     24          1           0       -4.447130    1.065148    0.151859
     25          1           0       -3.695883    0.737669   -1.406827
     26          1           0       -3.886175   -1.252265    0.907677
     27          1           0       -3.135948   -1.578876   -0.650553
     28          1           0       -5.344525   -1.202856   -1.798363
     29          1           0       -6.099017   -0.874388   -0.231278
     30          1           0       -5.471391   -2.492099   -0.589617
     31          6           0       -2.297502    0.919417    0.223420
     32          6           0       -2.015815    2.411812    0.046231
     33          6           0       -0.658085    2.828456    0.612596
     34          1           0       -2.252747    0.669339    1.292464
     35          1           0       -1.501500    0.341860   -0.266224
     36          1           0       -2.812682    2.985883    0.536189
     37          1           0       -2.062454    2.659272   -1.022041
     38          1           0        0.150387    2.281395    0.116915
     39          1           0       -0.604104    2.609863    1.683998
     40          1           0       -0.477239    3.899106    0.475253
 ---------------------------------------------------------------------

 SCF Done:  E(RHF) =  -470.732832686     A.U. after   11 cycles
 E2 =    -0.1584322660D+01 EUMP2 =    -0.47231715534606D+03

 The electronic state is 1-A.
 Alpha  occ. eigenvalues --  -11.21625 -11.21614 -11.21590 -11.21579 -11.21395
 Alpha  occ. eigenvalues --  -11.21394 -11.21332 -11.21320 -11.21144 -11.21078
 Alpha  occ. eigenvalues --  -11.21061 -11.20984  -1.08470  -1.08390  -1.03563
 Alpha  occ. eigenvalues --   -1.03502  -0.96023  -0.95931  -0.87022  -0.86965
 Alpha  occ. eigenvalues --   -0.79647  -0.79549  -0.78311  -0.78189  -0.65211
 Alpha  occ. eigenvalues --   -0.64935  -0.61042  -0.60835  -0.59393  -0.59300
 Alpha  occ. eigenvalues --   -0.57656  -0.57534  -0.55344  -0.55190  -0.52750
 Alpha  occ. eigenvalues --   -0.52601  -0.52430  -0.52365  -0.49960  -0.49886
 Alpha  occ. eigenvalues --   -0.48067  -0.47778  -0.46839  -0.46531  -0.45986
 Alpha  occ. eigenvalues --   -0.45786  -0.45675  -0.45318  -0.43809  -0.43740
 Alpha virt. eigenvalues --    0.20080   0.22574   0.23965   0.24038   0.25365
 Alpha virt. eigenvalues --    0.26367   0.26406   0.27750   0.28766   0.29465
 Alpha virt. eigenvalues --    0.30095   0.31285   0.31732   0.32007   0.32679

 Mulliken charges:
               1
     1  C   -0.298016
     2  C   -0.305989
     3  C   -0.478645
     4  H    0.149702
     5  H    0.150466
     6  H    0.151531
     7  H    0.155603
     8  H    0.156641
     9  H    0.154452
    10  H    0.163577
    11  C   -0.298679
    12  C   -0.299671
    13  C   -0.475732
    14  H    0.149459
    15  H    0.149222
    16  H    0.151947
    17  H    0.152306
    18  H    0.155223
    19  H    0.155067
    20  H    0.160274
    21  C   -0.297829
    22  C   -0.301825
    23  C   -0.475662
    24  H    0.149568
    25  H    0.149202
    26  H    0.152754
    27  H    0.153283
    28  H    0.155156
    29  H    0.155301
    30  H    0.160316
    31  C   -0.306650
    32  C   -0.299375
    33  C   -0.477638
    34  H    0.150050
    35  H    0.159588
    36  H    0.152070
    37  H    0.151671
    38  H    0.155551
    39  H    0.155038
    40  H    0.160693
 Sum of Mulliken charges =  -0.00000

 Dipole moment (field-independent basis, Debye):
    X=             -0.0212    Y=             -0.0006    Z=              0.0117  Tot=              0.0242
 Quadrupole moment (field-independent basis, Debye-Ang):
   XX=            -85.9901   YY=            -84.3401   ZZ=            -84.4580
   XY=             -1.2017   XZ=             -0.3082   YZ=              0.4794

 Normal termination of Gaussian 16 at Thu May  6 03:48:03 2021.
