 Gaussian 16, Revision A.03,
 Gaussian 16:  EM64L-G16RevA.03 25-Dec-2016

 -------------
 #p 6-31g* mp2
 -------------

 ------------------------------------------------------
 Input file generated by CHIRIPA (05-May-2021 14:55:19)
 ------------------------------------------------------
 Symbolic Z-matrix:
 Charge =  0 Multiplicity = 1

                         Standard orientation:
 ---------------------------------------------------------------------
 Center     Atomic      Atomic             Coordinates (Angstroms)
 Number     Number       Type             X           Y           Z
 ---------------------------------------------------------------------
      1          6           0        5.414201   -0.328763    0.432879
      2          6           0        4.692439    0.685815    1.070226
      3          6           0        3.332608    0.866680    0.800602
      4          6           0        2.723554    0.011003   -0.116000
      5          6           0        3.415579   -1.008971   -0.767188
      6          6           0        4.774595   -1.171432   -0.482181
      7          1           0        6.470234   -0.462115    0.648304
      8          1           0        5.186557    1.341733    1.781327
      9          1           0        2.749945    1.644082    1.279735
     10          1           0        2.895534   -1.647126   -1.471268
     11          1           0        5.332620   -1.960211   -0.978650
     12          7           0        1.284393    0.192735   -0.409582
     13          8           0        0.771020   -0.574370   -1.221145
     14          8           0        0.697004    1.098840    0.177431
     15          6           0       -3.947871    0.750469    0.262740
     16          6           0       -3.135741    1.761582   -0.547248
     17          6           0       -3.463259    3.210079   -0.183405
     18          1           0       -5.018573    0.937172    0.102478
     19          1           0       -3.759139    0.912308    1.333059
     20          1           0       -3.324881    1.596982   -1.615775
     21          1           0       -2.066846    1.572328   -0.385189
     22          1           0       -3.257161    3.397367    0.875391
     23          1           0       -4.522343    3.422160   -0.362187
     24          1           0       -2.871430    3.916092   -0.774290
     25          6           0       -3.631637   -0.701959   -0.089647
     26          6           0       -4.443767   -1.713072    0.720341
     27          6           0       -4.116249   -3.161569    0.356497
     28          1           0       -3.820367   -0.863799   -1.159967
     29          1           0       -2.560934   -0.888663    0.070615
     30          1           0       -5.512661   -1.523818    0.558281
     31          1           0       -4.254626   -1.548472    1.788867
     32          1           0       -3.057164   -3.373651    0.535280
     33          1           0       -4.322347   -3.348857   -0.702298
     34          1           0       -4.708077   -3.867582    0.947382
 ---------------------------------------------------------------------

 SCF Done:  E(RHF) =  -669.536893833     A.U. after   15 cycles
 E2 =    -0.2091526697D+01 EUMP2 =    -0.67162842053019D+03

 The electronic state is 1-A.
 Alpha  occ. eigenvalues --  -20.61147 -20.61130 -15.86138 -11.31403 -11.27953
 Alpha  occ. eigenvalues --  -11.27949 -11.27679 -11.26945 -11.26935 -11.20507
 Alpha  occ. eigenvalues --  -11.20147 -11.19943 -11.19877 -11.19725 -11.19666
 Alpha  occ. eigenvalues --   -1.60177  -1.39735  -1.19560  -1.08977  -1.07002
 Alpha  occ. eigenvalues --   -1.04946  -1.02179  -0.95827  -0.94683  -0.86349
 Alpha  occ. eigenvalues --   -0.85709  -0.82663  -0.78241  -0.77724  -0.76753
 Alpha  occ. eigenvalues --   -0.72348  -0.71482  -0.70668  -0.65216  -0.64948
 Alpha  occ. eigenvalues --   -0.63633  -0.62292  -0.59577  -0.58065  -0.56270
 Alpha  occ. eigenvalues --   -0.55453  -0.53985  -0.53281  -0.53036  -0.51425
 Alpha  occ. eigenvalues --   -0.51103  -0.49209  -0.49108  -0.48617  -0.46550
 Alpha  occ. eigenvalues --   -0.45227  -0.45159  -0.44337  -0.44087  -0.42420
 Alpha  occ. eigenvalues --   -0.37537  -0.36543
 Alpha virt. eigenvalues --    0.04799   0.11113   0.16314   0.21252   0.24231
 Alpha virt. eigenvalues --    0.25585   0.27181   0.27980   0.28202   0.28975
 Alpha virt. eigenvalues --    0.29300   0.30853   0.32343   0.32658   0.33101

 Mulliken charges:
               1
     1  C   -0.170334
     2  C   -0.218572
     3  C   -0.170660
     4  C    0.157687
     5  C   -0.170522
     6  C   -0.218620
     7  H    0.226411
     8  H    0.224220
     9  H    0.276023
    10  H    0.276202
    11  H    0.224243
    12  N    0.489216
    13  O   -0.458005
    14  O   -0.459576
    15  C   -0.296335
    16  C   -0.313586
    17  C   -0.473701
    18  H    0.142272
    19  H    0.145730
    20  H    0.146243
    21  H    0.185746
    22  H    0.151738
    23  H    0.148143
    24  H    0.157074
    25  C   -0.300193
    26  C   -0.298705
    27  C   -0.474467
    28  H    0.147517
    29  H    0.163102
    30  H    0.148079
    31  H    0.148767
    32  H    0.155430
    33  H    0.154151
    34  H    0.155282
 Sum of Mulliken charges =  -0.00000

 Dipole moment (field-independent basis, Debye):
    X=              5.6078    Y=             -0.6870    Z=              0.9840  Tot=              5.7348
 Quadrupole moment (field-independent basis, Debye-Ang):
   XX=            -68.9701   YY=            -94.2359   ZZ=            -93.0997
   XY=             -1.5757   XZ=              2.9185   YZ=              2.9957

 Normal termination of Gaussian 16 at Wed May  5 18:51:11 2021.
