 Gaussian 16, Revision A.03,
 Gaussian 16:  EM64L-G16RevA.03 25-Dec-2016

 -------------
 #p 6-31g* mp2
 -------------

 ------------------------------------------------------
 Input file generated by CHIRIPA (05-May-2021 14:57:21)
 ------------------------------------------------------
 Symbolic Z-matrix:
 Charge =  0 Multiplicity = 1

                         Standard orientation:
 ---------------------------------------------------------------------
 Center     Atomic      Atomic             Coordinates (Angstroms)
 Number     Number       Type             X           Y           Z
 ---------------------------------------------------------------------
      1          6           0       -4.292803    0.174338   -1.436460
      2          6           0       -4.118456    1.048029   -0.358134
      3          6           0       -3.182928    0.764487    0.641336
      4          6           0       -2.435357   -0.406885    0.530357
      5          6           0       -2.585966   -1.297203   -0.531689
      6          6           0       -3.527351   -0.993431   -1.519649
      7          1           0       -5.021818    0.402457   -2.208401
      8          1           0       -4.711522    1.955664   -0.290929
      9          1           0       -3.027574    1.423366    1.487008
     10          1           0       -1.980083   -2.194284   -0.571300
     11          1           0       -3.660615   -1.673786   -2.355952
     12          7           0       -1.441856   -0.717766    1.582358
     13          8           0       -0.795643   -1.756242    1.461468
     14          8           0       -1.328174    0.082927    2.507887
     15          6           0        0.580887    1.862782   -0.502897
     16          6           0        1.749002    2.315393    0.119335
     17          6           0        2.873289    1.488941    0.205953
     18          6           0        2.794212    0.209943   -0.342867
     19          6           0        1.644867   -0.269813   -0.969070
     20          6           0        0.532633    0.573895   -1.044159
     21          1           0       -0.287805    2.511493   -0.565706
     22          1           0        1.789345    3.315882    0.540568
     23          1           0        3.790379    1.813916    0.682141
     24          1           0        1.634865   -1.272172   -1.379674
     25          1           0       -0.373202    0.219727   -1.527971
     26          7           0        3.978064   -0.674119   -0.257271
     27          8           0        3.882890   -1.796677   -0.748637
     28          8           0        4.978727   -0.227748    0.299564
 ---------------------------------------------------------------------

 SCF Done:  E(RHF) =  -868.336163232     A.U. after   16 cycles
 E2 =    -0.2604703488D+01 EUMP2 =    -0.87094086672013D+03

 The electronic state is 1-A.
 Alpha  occ. eigenvalues --  -20.61395 -20.61381 -20.60196 -20.60190 -15.86429
 Alpha  occ. eigenvalues --  -15.85251 -11.32084 -11.30622 -11.28675 -11.28641
 Alpha  occ. eigenvalues --  -11.28419 -11.27758 -11.27747 -11.27246 -11.27219
 Alpha  occ. eigenvalues --  -11.27048 -11.26251 -11.26207  -1.60437  -1.59265
 Alpha  occ. eigenvalues --   -1.39992  -1.38821  -1.20315  -1.18821  -1.09617
 Alpha  occ. eigenvalues --   -1.08233  -1.05745  -1.04248  -0.96404  -0.95061
 Alpha  occ. eigenvalues --   -0.87100  -0.85664  -0.83229  -0.81906  -0.78243
 Alpha  occ. eigenvalues --   -0.76940  -0.72655  -0.71791  -0.71480  -0.71345
 Alpha  occ. eigenvalues --   -0.70572  -0.69986  -0.65920  -0.65691  -0.64499
 Alpha  occ. eigenvalues --   -0.64325  -0.63055  -0.61637  -0.56161  -0.54820
 Alpha  occ. eigenvalues --   -0.54147  -0.53783  -0.52527  -0.52249  -0.49433
 Alpha  occ. eigenvalues --   -0.49403  -0.48237  -0.48227  -0.45352  -0.44226
 Alpha  occ. eigenvalues --   -0.38382  -0.37389  -0.36721  -0.35744
 Alpha virt. eigenvalues --    0.04209   0.05610   0.10191   0.11848   0.15728
 Alpha virt. eigenvalues --    0.17110   0.20483   0.21901   0.26260   0.27277
 Alpha virt. eigenvalues --    0.28049   0.28547   0.30185   0.31449   0.31883

 Mulliken charges:
               1
     1  C   -0.172407
     2  C   -0.219801
     3  C   -0.177051
     4  C    0.161813
     5  C   -0.184612
     6  C   -0.218912
     7  H    0.229046
     8  H    0.226002
     9  H    0.276985
    10  H    0.278505
    11  H    0.227600
    12  N    0.493382
    13  O   -0.456396
    14  O   -0.458501
    15  C   -0.170666
    16  C   -0.214492
    17  C   -0.168465
    18  C    0.160204
    19  C   -0.160113
    20  C   -0.233700
    21  H    0.220282
    22  H    0.221634
    23  H    0.275139
    24  H    0.273594
    25  H    0.224367
    26  N    0.488793
    27  O   -0.460740
    28  O   -0.461489
 Sum of Mulliken charges =  -0.00000

 Dipole moment (field-independent basis, Debye):
    X=             -7.7426    Y=              4.0853    Z=             -3.8420  Tot=              9.5602
 Quadrupole moment (field-independent basis, Debye-Ang):
   XX=           -110.1442   YY=            -98.7788   ZZ=           -107.4051
   XY=              7.5043   XZ=              8.8331   YZ=              5.4164

 Normal termination of Gaussian 16 at Thu May  6 01:41:45 2021.
