 Gaussian 16, Revision A.03,
 Gaussian 16:  EM64L-G16RevA.03 25-Dec-2016

 -------------
 #p 6-31g* mp2
 -------------

 ------------------------------------------------------
 Input file generated by CHIRIPA (05-May-2021 14:51:11)
 ------------------------------------------------------
 Symbolic Z-matrix:
 Charge =  0 Multiplicity = 1

                         Standard orientation:
 ---------------------------------------------------------------------
 Center     Atomic      Atomic             Coordinates (Angstroms)
 Number     Number       Type             X           Y           Z
 ---------------------------------------------------------------------
      1          6           0       -3.890410    0.420093   -0.270930
      2          6           0       -3.387354    1.544359    0.635131
      3          6           0       -2.236775    2.335529    0.012224
      4          1           0       -3.057497   -0.259130   -0.498656
      5          1           0       -4.215316    0.848518   -1.229200
      6          1           0       -3.064784    1.114104    1.591920
      7          1           0       -4.221605    2.220878    0.860882
      8          1           0       -2.549899    2.791542   -0.932554
      9          1           0       -1.386505    1.678480   -0.197363
     10          1           0       -1.892654    3.134157    0.676779
     11          6           0       -5.040601   -0.379913    0.337986
     12          6           0       -5.543656   -1.504180   -0.568075
     13          6           0       -6.694235   -2.295349    0.054832
     14          1           0       -4.715695   -0.808338    1.296256
     15          1           0       -5.873513    0.299309    0.565712
     16          1           0       -4.709406   -2.180699   -0.793826
     17          1           0       -5.866227   -1.073925   -1.524864
     18          1           0       -7.544506   -1.638300    0.264419
     19          1           0       -6.381112   -2.751363    0.999610
     20          1           0       -7.038357   -3.093978   -0.609723
     21          6           0        4.863265   -0.585208    0.291834
     22          6           0        6.233750   -0.808728   -0.348318
     23          6           0        7.017513   -1.942530    0.313499
     24          1           0        4.995988   -0.366232    1.360187
     25          1           0        4.282758   -1.516330    0.233379
     26          1           0        6.810987    0.122938   -0.289910
     27          1           0        6.097760   -1.027009   -1.415313
     28          1           0        6.465224   -2.885165    0.242669
     29          1           0        7.182502   -1.728684    1.374465
     30          1           0        7.994044   -2.085094   -0.159706
     31          6           0        4.067745    0.545028   -0.358889
     32          6           0        2.697261    0.768549    0.281263
     33          6           0        1.913497    1.902350   -0.380555
     34          1           0        4.648254    1.476151   -0.300435
     35          1           0        3.935023    0.326053   -1.427244
     36          1           0        2.833250    0.986829    1.348257
     37          1           0        2.120023   -0.163117    0.222854
     38          1           0        1.748508    1.688505   -1.441522
     39          1           0        2.465787    2.844985   -0.309724
     40          1           0        0.936967    2.044915    0.092650
 ---------------------------------------------------------------------

 SCF Done:  E(RHF) =  -470.733157577     A.U. after   11 cycles
 E2 =    -0.1582190973D+01 EUMP2 =    -0.47231534854966D+03

 The electronic state is 1-A.
 Alpha  occ. eigenvalues --  -11.21605 -11.21599 -11.21594 -11.21580 -11.21407
 Alpha  occ. eigenvalues --  -11.21390 -11.21348 -11.21330 -11.21074 -11.21067
 Alpha  occ. eigenvalues --  -11.21050 -11.20980  -1.08433  -1.08413  -1.03542
 Alpha  occ. eigenvalues --   -1.03498  -0.96016  -0.95924  -0.87060  -0.86914
 Alpha  occ. eigenvalues --   -0.79638  -0.79530  -0.78246  -0.78226  -0.65068
 Alpha  occ. eigenvalues --   -0.65042  -0.60971  -0.60893  -0.59383  -0.59307
 Alpha  occ. eigenvalues --   -0.57645  -0.57530  -0.55312  -0.55209  -0.52848
 Alpha  occ. eigenvalues --   -0.52586  -0.52420  -0.52261  -0.49943  -0.49848
 Alpha  occ. eigenvalues --   -0.47957  -0.47835  -0.46635  -0.46588  -0.45786
 Alpha  occ. eigenvalues --   -0.45768  -0.45711  -0.45695  -0.43834  -0.43677
 Alpha virt. eigenvalues --    0.22271   0.23012   0.23582   0.24845   0.26544
 Alpha virt. eigenvalues --    0.26691   0.27007   0.27530   0.27568   0.28849
 Alpha virt. eigenvalues --    0.30885   0.31432   0.31689   0.31804   0.31968

 Mulliken charges:
               1
     1  C   -0.298506
     2  C   -0.299577
     3  C   -0.480523
     4  H    0.149713
     5  H    0.149595
     6  H    0.151816
     7  H    0.151938
     8  H    0.155645
     9  H    0.160242
    10  H    0.160117
    11  C   -0.298306
    12  C   -0.299646
    13  C   -0.475708
    14  H    0.149529
    15  H    0.149695
    16  H    0.151875
    17  H    0.151946
    18  H    0.155203
    19  H    0.155187
    20  H    0.160247
    21  C   -0.298212
    22  C   -0.299630
    23  C   -0.475688
    24  H    0.149581
    25  H    0.149336
    26  H    0.151947
    27  H    0.151929
    28  H    0.155117
    29  H    0.155153
    30  H    0.160235
    31  C   -0.298252
    32  C   -0.299440
    33  C   -0.482558
    34  H    0.149599
    35  H    0.149600
    36  H    0.151740
    37  H    0.151067
    38  H    0.154722
    39  H    0.154960
    40  H    0.168317
 Sum of Mulliken charges =  -0.00000

 Dipole moment (field-independent basis, Debye):
    X=             -0.0198    Y=              0.0136    Z=             -0.0030  Tot=              0.0241
 Quadrupole moment (field-independent basis, Debye-Ang):
   XX=            -85.4199   YY=            -84.9762   ZZ=            -84.4250
   XY=             -0.1707   XZ=              0.6005   YZ=              0.6729

 Normal termination of Gaussian 16 at Wed May  5 23:05:02 2021.
