 Gaussian 16, Revision A.03,
 Gaussian 16:  EM64L-G16RevA.03 25-Dec-2016

 -------------
 #p 6-31g* mp2
 -------------

 ------------------------------------------------------
 Input file generated by CHIRIPA (05-May-2021 14:53:14)
 ------------------------------------------------------
 Symbolic Z-matrix:
 Charge =  0 Multiplicity = 1

                         Standard orientation:
 ---------------------------------------------------------------------
 Center     Atomic      Atomic             Coordinates (Angstroms)
 Number     Number       Type             X           Y           Z
 ---------------------------------------------------------------------
      1          6           0       -3.139849    0.916582   -0.530214
      2          6           0       -2.786068    2.002667    0.486273
      3          6           0       -3.091324    3.411472   -0.023511
      4          1           0       -2.585235    1.099528   -1.460740
      5          1           0       -4.206684    0.993274   -0.781964
      6          1           0       -1.720526    1.923071    0.737075
      7          1           0       -3.341444    1.817005    1.414553
      8          1           0       -4.156174    3.514728   -0.255964
      9          1           0       -2.526047    3.621397   -0.937291
     10          1           0       -2.830811    4.172276    0.718897
     11          6           0       -2.840395   -0.497247   -0.035096
     12          6           0       -3.194176   -1.583331   -1.051583
     13          6           0       -2.888920   -2.992137   -0.541798
     14          1           0       -1.773561   -0.573939    0.216655
     15          1           0       -3.395010   -0.680193    0.895430
     16          1           0       -2.638800   -1.397669   -1.979862
     17          1           0       -4.259718   -1.503736   -1.302384
     18          1           0       -3.454198   -3.202062    0.371982
     19          1           0       -1.824071   -3.095393   -0.309346
     20          1           0       -3.149433   -3.752941   -1.284207
     21          6           0        0.606519   -1.579091    1.392005
     22          6           0        0.626679   -0.194184    1.587324
     23          6           0        1.580422    0.599838    0.943546
     24          6           0        2.503236   -0.026978    0.107598
     25          6           0        2.508880   -1.404328   -0.107265
     26          6           0        1.546028   -2.178685    0.546825
     27          1           0       -0.137910   -2.188268    1.896113
     28          1           0       -0.101731    0.274190    2.243136
     29          1           0        1.618734    1.674162    1.076874
     30          1           0        3.247900   -1.842549   -0.766984
     31          1           0        1.532750   -3.253993    0.393263
     32          7           0        3.517743    0.803208   -0.579398
     33          8           0        4.319848    0.226773   -1.310826
     34          8           0        3.491599    2.014625   -0.373432
 ---------------------------------------------------------------------

 SCF Done:  E(RHF) =  -669.534410027     A.U. after   15 cycles
 E2 =    -0.2094582656D+01 EUMP2 =    -0.67162899268332D+03

 The electronic state is 1-A.
 Alpha  occ. eigenvalues --  -20.60848 -20.60842 -15.85902 -11.31303 -11.27878
 Alpha  occ. eigenvalues --  -11.27865 -11.27585 -11.26893 -11.26846 -11.22184
 Alpha  occ. eigenvalues --  -11.22129 -11.21853 -11.21801 -11.21788 -11.21448
 Alpha  occ. eigenvalues --   -1.59922  -1.39475  -1.19489  -1.08998  -1.08831
 Alpha  occ. eigenvalues --   -1.04891  -1.04075  -0.96513  -0.95699  -0.87536
 Alpha  occ. eigenvalues --   -0.86284  -0.82525  -0.80152  -0.78816  -0.77556
 Alpha  occ. eigenvalues --   -0.72119  -0.71247  -0.70575  -0.65627  -0.65134
 Alpha  occ. eigenvalues --   -0.64843  -0.62236  -0.61464  -0.59888  -0.58144
 Alpha  occ. eigenvalues --   -0.55820  -0.55357  -0.53348  -0.53183  -0.52962
 Alpha  occ. eigenvalues --   -0.52923  -0.50460  -0.48881  -0.48872  -0.48472
 Alpha  occ. eigenvalues --   -0.47185  -0.46326  -0.46235  -0.44872  -0.44299
 Alpha  occ. eigenvalues --   -0.37338  -0.36436
 Alpha virt. eigenvalues --    0.04902   0.11011   0.16217   0.20285   0.22841
 Alpha virt. eigenvalues --    0.23136   0.25866   0.26316   0.26928   0.28221
 Alpha virt. eigenvalues --    0.29065   0.30581   0.31119   0.31425   0.31655

 Mulliken charges:
               1
     1  C   -0.296999
     2  C   -0.302223
     3  C   -0.476107
     4  H    0.153380
     5  H    0.150878
     6  H    0.146153
     7  H    0.149646
     8  H    0.156803
     9  H    0.159182
    10  H    0.160660
    11  C   -0.311752
    12  C   -0.297998
    13  C   -0.478211
    14  H    0.160661
    15  H    0.143873
    16  H    0.155227
    17  H    0.153614
    18  H    0.153392
    19  H    0.148691
    20  H    0.163411
    21  C   -0.171190
    22  C   -0.219863
    23  C   -0.172435
    24  C    0.158437
    25  C   -0.170704
    26  C   -0.219645
    27  H    0.229712
    28  H    0.228255
    29  H    0.276299
    30  H    0.276232
    31  H    0.224668
    32  N    0.488069
    33  O   -0.460095
    34  O   -0.460020
 Sum of Mulliken charges =  -0.00000

 Dipole moment (field-independent basis, Debye):
    X=             -3.5205    Y=             -2.8858    Z=              2.3495  Tot=              5.1226
 Quadrupole moment (field-independent basis, Debye-Ang):
   XX=           -111.8009   YY=            -92.5338   ZZ=            -93.7221
   XY=             -9.0601   XZ=              4.6761   YZ=              1.7637

 Normal termination of Gaussian 16 at Thu May  6 17:04:33 2021.
