 Gaussian 16, Revision A.03,
 Gaussian 16:  EM64L-G16RevA.03 25-Dec-2016

 -------------
 #p 6-31g* mp2
 -------------

 ------------------------------------------------------
 Input file generated by CHIRIPA (05-May-2021 14:53:16)
 ------------------------------------------------------
 Symbolic Z-matrix:
 Charge =  0 Multiplicity = 1

                         Standard orientation:
 ---------------------------------------------------------------------
 Center     Atomic      Atomic             Coordinates (Angstroms)
 Number     Number       Type             X           Y           Z
 ---------------------------------------------------------------------
      1          6           0        3.061329   -0.035005   -0.678514
      2          6           0        3.808480   -1.295339   -0.241127
      3          6           0        4.118742   -2.233516   -1.407899
      4          1           0        2.125938   -0.325129   -1.176324
      5          1           0        3.662438    0.497476   -1.428532
      6          1           0        3.206766   -1.824559    0.508861
      7          1           0        4.742110   -1.002176    0.255870
      8          1           0        4.739139   -1.727479   -2.154648
      9          1           0        3.195072   -2.554535   -1.900220
     10          1           0        4.653064   -3.127950   -1.072715
     11          6           0        2.744020    0.912799    0.476783
     12          6           0        1.996869    2.173134    0.039397
     13          6           0        1.686607    3.111310    1.206168
     14          1           0        2.142911    0.380318    1.226801
     15          1           0        3.679412    1.202924    0.974594
     16          1           0        1.063239    1.879970   -0.457601
     17          1           0        2.598583    2.702354   -0.710591
     18          1           0        2.610277    3.432330    1.698490
     19          1           0        1.066210    2.605273    1.952918
     20          1           0        1.152286    4.005745    0.870984
     21          6           0       -1.376083   -2.307066    1.387587
     22          6           0       -2.495285   -2.464992    0.563593
     23          6           0       -2.997965   -1.383635   -0.166152
     24          6           0       -2.353915   -0.152999   -0.047727
     25          6           0       -1.237027    0.036025    0.764752
     26          6           0       -0.751626   -1.059262    1.485364
     27          1           0       -0.992301   -3.152501    1.950924
     28          1           0       -2.982271   -3.432889    0.485716
     29          1           0       -3.862828   -1.477943   -0.811548
     30          1           0       -0.772909    1.013135    0.821913
     31          1           0        0.117727   -0.933685    2.124504
     32          7           0       -2.876932    0.999158   -0.815442
     33          8           0       -2.291513    2.072998   -0.693826
     34          8           0       -3.862390    0.806564   -1.524257
 ---------------------------------------------------------------------

 SCF Done:  E(RHF) =  -669.535186418     A.U. after   15 cycles
 E2 =    -0.2093604364D+01 EUMP2 =    -0.67162879078176D+03

 The electronic state is 1-A.
 Alpha  occ. eigenvalues --  -20.60837 -20.60832 -15.85880 -11.31233 -11.27809
 Alpha  occ. eigenvalues --  -11.27773 -11.27548 -11.26822 -11.26809 -11.22027
 Alpha  occ. eigenvalues --  -11.21900 -11.21808 -11.21713 -11.21407 -11.21345
 Alpha  occ. eigenvalues --   -1.59905  -1.39459  -1.19412  -1.08831  -1.08803
 Alpha  occ. eigenvalues --   -1.04818  -1.03876  -0.96326  -0.95642  -0.87338
 Alpha  occ. eigenvalues --   -0.86214  -0.82478  -0.79925  -0.78638  -0.77535
 Alpha  occ. eigenvalues --   -0.72100  -0.71225  -0.70541  -0.65549  -0.65048
 Alpha  occ. eigenvalues --   -0.64836  -0.62282  -0.61106  -0.59672  -0.57915
 Alpha  occ. eigenvalues --   -0.55681  -0.55292  -0.53137  -0.52986  -0.52934
 Alpha  occ. eigenvalues --   -0.52681  -0.50292  -0.48860  -0.48857  -0.48228
 Alpha  occ. eigenvalues --   -0.46977  -0.46179  -0.46093  -0.44850  -0.44126
 Alpha  occ. eigenvalues --   -0.37390  -0.36398
 Alpha virt. eigenvalues --    0.04960   0.11151   0.16386   0.19057   0.23146
 Alpha virt. eigenvalues --    0.23540   0.24863   0.26602   0.27255   0.28461
 Alpha virt. eigenvalues --    0.29935   0.30654   0.31397   0.31529   0.31802

 Mulliken charges:
               1
     1  C   -0.299064
     2  C   -0.298411
     3  C   -0.476084
     4  H    0.152827
     5  H    0.152918
     6  H    0.145351
     7  H    0.152754
     8  H    0.157404
     9  H    0.156084
    10  H    0.159814
    11  C   -0.298801
    12  C   -0.310768
    13  C   -0.476469
    14  H    0.137313
    15  H    0.151870
    16  H    0.160486
    17  H    0.157952
    18  H    0.156371
    19  H    0.144398
    20  H    0.171595
    21  C   -0.170919
    22  C   -0.218806
    23  C   -0.170154
    24  C    0.157082
    25  C   -0.177645
    26  C   -0.223389
    27  H    0.226065
    28  H    0.223732
    29  H    0.275771
    30  H    0.287799
    31  H    0.225990
    32  N    0.488051
    33  O   -0.461384
    34  O   -0.459734
 Sum of Mulliken charges =  -0.00000

 Dipole moment (field-independent basis, Debye):
    X=              1.8670    Y=             -3.9489    Z=              2.5547  Tot=              5.0602
 Quadrupole moment (field-independent basis, Debye-Ang):
   XX=           -100.2732   YY=            -92.0481   ZZ=            -95.5944
   XY=             12.7245   XZ=             -5.1415   YZ=              0.2387

 Normal termination of Gaussian 16 at Thu May  6 12:16:29 2021.
