 Gaussian 16, Revision A.03,
 Gaussian 16:  EM64L-G16RevA.03 25-Dec-2016

 -------------
 #p 6-31g* mp2
 -------------

 ------------------------------------------------------
 Input file generated by CHIRIPA (05-May-2021 14:55:24)
 ------------------------------------------------------
 Symbolic Z-matrix:
 Charge =  0 Multiplicity = 1

                         Standard orientation:
 ---------------------------------------------------------------------
 Center     Atomic      Atomic             Coordinates (Angstroms)
 Number     Number       Type             X           Y           Z
 ---------------------------------------------------------------------
      1          6           0        4.193651    0.746329   -0.137804
      2          6           0        3.567215    0.576748    1.101285
      3          6           0        2.418171   -0.211635    1.213976
      4          6           0        1.920407   -0.818521    0.061930
      5          6           0        2.521883   -0.668713   -1.186699
      6          6           0        3.669909    0.124154   -1.275835
      7          1           0        5.085861    1.360506   -0.216196
      8          1           0        3.971735    1.058735    1.986777
      9          1           0        1.913214   -0.359817    2.160801
     10          1           0        2.095197   -1.161854   -2.051667
     11          1           0        4.154312    0.254082   -2.239431
     12          7           0        0.704504   -1.655520    0.168763
     13          8           0        0.285763   -2.179489   -0.861164
     14          8           0        0.193245   -1.771743    1.280403
     15          6           0       -3.012505    0.270921    0.309937
     16          6           0       -3.794423   -0.671841   -0.605370
     17          6           0       -4.384250   -1.867756    0.142752
     18          1           0       -2.205791   -0.290421    0.800906
     19          1           0       -3.676048    0.628398    1.109509
     20          1           0       -3.129976   -1.026347   -1.403775
     21          1           0       -4.599251   -0.108144   -1.094365
     22          1           0       -5.068729   -1.531352    0.928195
     23          1           0       -3.591105   -2.454772    0.617025
     24          1           0       -4.939032   -2.528610   -0.530559
     25          6           0       -2.416749    1.471345   -0.423403
     26          6           0       -1.634830    2.414107    0.491904
     27          6           0       -1.045004    3.610023   -0.256218
     28          1           0       -1.753205    1.113868   -1.222975
     29          1           0       -3.223462    2.032688   -0.914372
     30          1           0       -0.830002    1.850411    0.980899
     31          1           0       -2.299277    2.768614    1.290309
     32          1           0       -1.838147    4.197039   -0.730492
     33          1           0       -0.360525    3.273618   -1.041661
     34          1           0       -0.490220    4.270878    0.417093
 ---------------------------------------------------------------------

 SCF Done:  E(RHF) =  -669.536899999     A.U. after   15 cycles
 E2 =    -0.2092488958D+01 EUMP2 =    -0.67162938895631D+03

 The electronic state is 1-A.
 Alpha  occ. eigenvalues --  -20.61108 -20.61102 -15.86111 -11.31387 -11.27935
 Alpha  occ. eigenvalues --  -11.27929 -11.27654 -11.26926 -11.26916 -11.21165
 Alpha  occ. eigenvalues --  -11.20840 -11.20667 -11.20377 -11.20165 -11.19768
 Alpha  occ. eigenvalues --   -1.60152  -1.39709  -1.19540  -1.08954  -1.07567
 Alpha  occ. eigenvalues --   -1.04926  -1.02688  -0.95804  -0.95152  -0.86329
 Alpha  occ. eigenvalues --   -0.86172  -0.82639  -0.78819  -0.77702  -0.77292
 Alpha  occ. eigenvalues --   -0.72328  -0.71471  -0.70644  -0.65195  -0.64927
 Alpha  occ. eigenvalues --   -0.64183  -0.62273  -0.60075  -0.58587  -0.56745
 Alpha  occ. eigenvalues --   -0.55430  -0.54433  -0.53255  -0.53015  -0.51900
 Alpha  occ. eigenvalues --   -0.51568  -0.49192  -0.49099  -0.48997  -0.47119
 Alpha  occ. eigenvalues --   -0.45863  -0.45396  -0.44842  -0.44380  -0.42927
 Alpha  occ. eigenvalues --   -0.37508  -0.36520
 Alpha virt. eigenvalues --    0.04778   0.11093   0.16262   0.21243   0.23401
 Alpha virt. eigenvalues --    0.25208   0.27060   0.27326   0.28069   0.28514
 Alpha virt. eigenvalues --    0.28763   0.30994   0.32058   0.32313   0.32398

 Mulliken charges:
               1
     1  C   -0.170182
     2  C   -0.218255
     3  C   -0.171111
     4  C    0.158913
     5  C   -0.171046
     6  C   -0.218435
     7  H    0.226503
     8  H    0.224383
     9  H    0.276318
    10  H    0.275951
    11  H    0.224256
    12  N    0.487925
    13  O   -0.458841
    14  O   -0.459280
    15  C   -0.309151
    16  C   -0.298403
    17  C   -0.478038
    18  H    0.170795
    19  H    0.144126
    20  H    0.158965
    21  H    0.144300
    22  H    0.149057
    23  H    0.169241
    24  H    0.155706
    25  C   -0.298707
    26  C   -0.298594
    27  C   -0.474493
    28  H    0.147609
    29  H    0.146901
    30  H    0.148318
    31  H    0.151580
    32  H    0.155133
    33  H    0.152479
    34  H    0.156075
 Sum of Mulliken charges =  -0.00000

 Dipole moment (field-independent basis, Debye):
    X=              4.5372    Y=              2.7200    Z=             -0.3439  Tot=              5.3012
 Quadrupole moment (field-independent basis, Debye-Ang):
   XX=            -79.0894   YY=           -101.0765   ZZ=            -90.1248
   XY=              1.6903   XZ=             -0.8038   YZ=              2.0223

 Normal termination of Gaussian 16 at Thu May  6 19:19:15 2021.
