 Gaussian 16, Revision A.03,
 Gaussian 16:  EM64L-G16RevA.03 25-Dec-2016

 -------------
 #p 6-31g* mp2
 -------------

 ------------------------------------------------------
 Input file generated by CHIRIPA (05-May-2021 14:53:17)
 ------------------------------------------------------
 Symbolic Z-matrix:
 Charge =  0 Multiplicity = 1

                         Standard orientation:
 ---------------------------------------------------------------------
 Center     Atomic      Atomic             Coordinates (Angstroms)
 Number     Number       Type             X           Y           Z
 ---------------------------------------------------------------------
      1          6           0       -3.117470    0.743082   -0.517602
      2          6           0       -2.385400    1.857135    0.231360
      3          6           0       -2.949703    3.244886   -0.074423
      4          1           0       -3.057343    0.935104   -1.597629
      5          1           0       -4.183728    0.772645   -0.253760
      6          1           0       -1.320599    1.824606   -0.032753
      7          1           0       -2.447113    1.662337    1.309721
      8          1           0       -4.006523    3.301346    0.205835
      9          1           0       -2.873608    3.464537   -1.144266
     10          1           0       -2.411750    4.026235    0.471435
     11          6           0       -2.564804   -0.650134   -0.222245
     12          6           0       -3.296873   -1.764187   -0.971207
     13          6           0       -2.732571   -3.151938   -0.665424
     14          1           0       -1.498545   -0.679697   -0.486087
     15          1           0       -2.624931   -0.842156    0.857782
     16          1           0       -3.235161   -1.569389   -2.049568
     17          1           0       -4.361675   -1.731658   -0.707094
     18          1           0       -2.808665   -3.371589    0.404419
     19          1           0       -1.675751   -3.208398   -0.945682
     20          1           0       -3.270524   -3.933287   -1.211282
     21          6           0        0.643806   -0.583763    2.181877
     22          6           0        0.734466    0.727536    1.703549
     23          6           0        1.604177    1.042362    0.655200
     24          6           0        2.371983    0.016618    0.106006
     25          6           0        2.304120   -1.299444    0.560612
     26          6           0        1.427540   -1.591291    1.609890
     27          1           0       -0.034474   -0.819403    2.996619
     28          1           0        0.127014    1.512023    2.145848
     29          1           0        1.694183    2.049071    0.265516
     30          1           0        2.922373   -2.060098    0.099543
     31          1           0        1.359210   -2.610550    1.979333
     32          7           0        3.296343    0.337748   -1.004325
     33          8           0        3.962046   -0.583968   -1.471141
     34          8           0        3.337650    1.505083   -1.386762
 ---------------------------------------------------------------------

 SCF Done:  E(RHF) =  -669.534438175     A.U. after   15 cycles
 E2 =    -0.2094171420D+01 EUMP2 =    -0.67162860959453D+03

 The electronic state is 1-A.
 Alpha  occ. eigenvalues --  -20.60798 -20.60793 -15.85850 -11.31223 -11.27760
 Alpha  occ. eigenvalues --  -11.27749 -11.27475 -11.26792 -11.26732 -11.22189
 Alpha  occ. eigenvalues --  -11.21954 -11.21833 -11.21744 -11.21570 -11.21478
 Alpha  occ. eigenvalues --   -1.59874  -1.39427  -1.19382  -1.08906  -1.08746
 Alpha  occ. eigenvalues --   -1.04788  -1.03996  -0.96430  -0.95607  -0.87450
 Alpha  occ. eigenvalues --   -0.86173  -0.82451  -0.80094  -0.78721  -0.77470
 Alpha  occ. eigenvalues --   -0.72067  -0.71198  -0.70475  -0.65520  -0.65020
 Alpha  occ. eigenvalues --   -0.64775  -0.62144  -0.61392  -0.59804  -0.58056
 Alpha  occ. eigenvalues --   -0.55706  -0.55265  -0.53319  -0.53013  -0.52911
 Alpha  occ. eigenvalues --   -0.52787  -0.50369  -0.48832  -0.48823  -0.48384
 Alpha  occ. eigenvalues --   -0.47124  -0.46240  -0.46102  -0.44831  -0.44236
 Alpha  occ. eigenvalues --   -0.37306  -0.36293
 Alpha virt. eigenvalues --    0.04992   0.11216   0.16406   0.20519   0.22752
 Alpha virt. eigenvalues --    0.23654   0.25536   0.26407   0.27184   0.28246
 Alpha virt. eigenvalues --    0.28826   0.29860   0.31077   0.31582   0.31993

 Mulliken charges:
               1
     1  C   -0.298226
     2  C   -0.303675
     3  C   -0.475610
     4  H    0.153399
     5  H    0.149725
     6  H    0.155278
     7  H    0.142017
     8  H    0.156530
     9  H    0.159632
    10  H    0.157401
    11  C   -0.299213
    12  C   -0.300141
    13  C   -0.475543
    14  H    0.156972
    15  H    0.141450
    16  H    0.154795
    17  H    0.151777
    18  H    0.150707
    19  H    0.156029
    20  H    0.162163
    21  C   -0.169931
    22  C   -0.213165
    23  C   -0.174727
    24  C    0.158205
    25  C   -0.172545
    26  C   -0.218305
    27  H    0.225253
    28  H    0.227547
    29  H    0.275466
    30  H    0.275552
    31  H    0.223897
    32  N    0.488034
    33  O   -0.460313
    34  O   -0.460435
 Sum of Mulliken charges =  -0.00000

 Dipole moment (field-independent basis, Debye):
    X=             -3.2662    Y=             -1.1456    Z=              3.8366  Tot=              5.1672
 Quadrupole moment (field-independent basis, Debye-Ang):
   XX=           -110.3659   YY=            -91.4735   ZZ=            -93.9333
   XY=             -4.0068   XZ=              8.7114   YZ=              0.1234

 Normal termination of Gaussian 16 at Thu May  6 17:19:04 2021.
