 Gaussian 16, Revision A.03,
 Gaussian 16:  EM64L-G16RevA.03 25-Dec-2016

 -------------
 #p 6-31g* mp2
 -------------

 ------------------------------------------------------
 Input file generated by CHIRIPA (05-May-2021 14:57:27)
 ------------------------------------------------------
 Symbolic Z-matrix:
 Charge =  0 Multiplicity = 1

                         Standard orientation:
 ---------------------------------------------------------------------
 Center     Atomic      Atomic             Coordinates (Angstroms)
 Number     Number       Type             X           Y           Z
 ---------------------------------------------------------------------
      1          6           0        3.856070    2.502843   -0.517657
      2          6           0        5.101286    1.944758   -0.210250
      3          6           0        5.222708    0.574989    0.041818
      4          6           0        4.073050   -0.210799   -0.022322
      5          6           0        2.818470    0.315612   -0.325984
      6          6           0        2.720638    1.687926   -0.574443
      7          1           0        3.770909    3.567901   -0.712067
      8          1           0        5.984779    2.575216   -0.165450
      9          1           0        6.174411    0.116799    0.282109
     10          1           0        1.955691   -0.338330   -0.363273
     11          1           0        1.752297    2.118603   -0.812937
     12          7           0        4.189107   -1.662259    0.242620
     13          8           0        3.161118   -2.333035    0.179891
     14          8           0        5.305864   -2.101653    0.507995
     15          6           0       -1.547561   -0.059859    0.354240
     16          6           0       -2.161335   -0.949966   -0.533178
     17          6           0       -3.549264   -0.941453   -0.700896
     18          6           0       -4.296228   -0.025380    0.038120
     19          6           0       -3.714057    0.874020    0.929998
     20          6           0       -2.324511    0.847694    1.081714
     21          1           0       -0.468756   -0.073391    0.478311
     22          1           0       -1.560454   -1.655880   -1.099459
     23          1           0       -4.050322   -1.619458   -1.381093
     24          1           0       -4.339485    1.566156    1.480640
     25          1           0       -1.850561    1.540125    1.771608
     26          7           0       -5.766422   -0.006938   -0.130964
     27          8           0       -6.402175    0.809878    0.531808
     28          8           0       -6.255168   -0.809649   -0.923062
 ---------------------------------------------------------------------

 SCF Done:  E(RHF) =  -868.337221575     A.U. after   16 cycles
 E2 =    -0.2599612436D+01 EUMP2 =    -0.87093683401115D+03

 The electronic state is 1-A.
 Alpha  occ. eigenvalues --  -20.61586 -20.61559 -20.60941 -20.60934 -15.86631
 Alpha  occ. eigenvalues --  -15.85994 -11.32067 -11.31431 -11.28745 -11.28561
 Alpha  occ. eigenvalues --  -11.28315 -11.28004 -11.27966 -11.27836 -11.27689
 Alpha  occ. eigenvalues --  -11.27577 -11.27083 -11.27012  -1.60646  -1.60013
 Alpha  occ. eigenvalues --   -1.40201  -1.39564  -1.20225  -1.19611  -1.09590
 Alpha  occ. eigenvalues --   -1.09012  -1.05650  -1.05013  -0.96427  -0.95835
 Alpha  occ. eigenvalues --   -0.87033  -0.86416  -0.83268  -0.82654  -0.78324
 Alpha  occ. eigenvalues --   -0.77672  -0.72848  -0.72212  -0.71968  -0.71368
 Alpha  occ. eigenvalues --   -0.71336  -0.70743  -0.65876  -0.65643  -0.65268
 Alpha  occ. eigenvalues --   -0.65015  -0.63016  -0.62348  -0.56128  -0.55565
 Alpha  occ. eigenvalues --   -0.53948  -0.53727  -0.53350  -0.53105  -0.49615
 Alpha  occ. eigenvalues --   -0.49593  -0.48977  -0.48962  -0.45592  -0.44953
 Alpha  occ. eigenvalues --   -0.38169  -0.37628  -0.37252  -0.36607
 Alpha virt. eigenvalues --    0.04214   0.04838   0.10391   0.11036   0.15693
 Alpha virt. eigenvalues --    0.16260   0.18342   0.21886   0.24834   0.26707
 Alpha virt. eigenvalues --    0.27361   0.29467   0.30238   0.30810   0.32225

 Mulliken charges:
               1
     1  C   -0.170445
     2  C   -0.217704
     3  C   -0.169857
     4  C    0.161822
     5  C   -0.178420
     6  C   -0.219687
     7  H    0.228656
     8  H    0.226845
     9  H    0.278284
    10  H    0.269715
    11  H    0.223104
    12  N    0.488039
    13  O   -0.463319
    14  O   -0.456257
    15  C   -0.176422
    16  C   -0.219162
    17  C   -0.170660
    18  C    0.159068
    19  C   -0.170760
    20  C   -0.219772
    21  H    0.223740
    22  H    0.227866
    23  H    0.277468
    24  H    0.276056
    25  H    0.223019
    26  N    0.487921
    27  O   -0.460085
    28  O   -0.459055
 Sum of Mulliken charges =  -0.00000

 Dipole moment (field-independent basis, Debye):
    X=              4.9372    Y=              5.0781    Z=             -0.3625  Tot=              7.0919
 Quadrupole moment (field-independent basis, Debye-Ang):
   XX=           -146.4951   YY=           -104.7852   ZZ=           -103.6915
   XY=             22.0321   XZ=             -5.5435   YZ=              3.0204

 Normal termination of Gaussian 16 at Fri May  7 08:11:55 2021.
