 Gaussian 16, Revision A.03,
 Gaussian 16:  EM64L-G16RevA.03 25-Dec-2016

 -------------
 #p 6-31g* mp2
 -------------

 ------------------------------------------------------
 Input file generated by CHIRIPA (05-May-2021 14:55:20)
 ------------------------------------------------------
 Symbolic Z-matrix:
 Charge =  0 Multiplicity = 1

                         Standard orientation:
 ---------------------------------------------------------------------
 Center     Atomic      Atomic             Coordinates (Angstroms)
 Number     Number       Type             X           Y           Z
 ---------------------------------------------------------------------
      1          6           0       -1.799881    1.919614    0.504433
      2          6           0       -2.561949    2.061747   -0.659858
      3          6           0       -3.531724    1.111806   -0.994066
      4          6           0       -3.713866    0.027260   -0.137401
      5          6           0       -2.970489   -0.142226    1.029627
      6          6           0       -2.006220    0.820019    1.343979
      7          1           0       -1.048675    2.662330    0.756342
      8          1           0       -2.403871    2.914688   -1.313729
      9          1           0       -4.135711    1.197244   -1.889230
     10          1           0       -3.150911   -1.003208    1.661748
     11          1           0       -1.415858    0.707059    2.248832
     12          7           0       -4.737609   -0.984913   -0.480702
     13          8           0       -4.878792   -1.931342    0.290645
     14          8           0       -5.379452   -0.812659   -1.514628
     15          6           0        3.873743   -0.611279    0.207469
     16          6           0        2.874986    0.181840    1.050933
     17          6           0        1.551377   -0.557181    1.250192
     18          1           0        3.424405   -0.831742   -0.770507
     19          1           0        4.062732   -1.580135    0.690168
     20          1           0        2.688995    1.149476    0.567506
     21          1           0        3.326826    0.400604    2.026944
     22          1           0        1.717053   -1.515251    1.753437
     23          1           0        1.075598   -0.762124    0.285705
     24          1           0        0.852213    0.027753    1.855897
     25          6           0        5.201818    0.114438   -0.000568
     26          6           0        6.200575   -0.678681   -0.844032
     27          6           0        7.524183    0.060340   -1.043290
     28          1           0        5.012830    1.083293   -0.483266
     29          1           0        5.651156    0.334899    0.977408
     30          1           0        5.748735   -0.897446   -1.820043
     31          1           0        6.386567   -1.646318   -0.360605
     32          1           0        7.999963    0.265282   -0.078805
     33          1           0        7.358508    1.018409   -1.546534
     34          1           0        8.223349   -0.524594   -1.648996
 ---------------------------------------------------------------------

 SCF Done:  E(RHF) =  -669.534927678     A.U. after   15 cycles
 E2 =    -0.2091423925D+01 EUMP2 =    -0.67162635160315D+03

 The electronic state is 1-A.
 Alpha  occ. eigenvalues --  -20.60745 -20.60740 -15.85798 -11.31166 -11.27730
 Alpha  occ. eigenvalues --  -11.27717 -11.27474 -11.26757 -11.26734 -11.22254
 Alpha  occ. eigenvalues --  -11.21939 -11.21876 -11.21786 -11.21772 -11.21367
 Alpha  occ. eigenvalues --   -1.59821  -1.39374  -1.19338  -1.08908  -1.08734
 Alpha  occ. eigenvalues --   -1.04745  -1.04023  -0.96476  -0.95567  -0.87503
 Alpha  occ. eigenvalues --   -0.86138  -0.82401  -0.80093  -0.78702  -0.77449
 Alpha  occ. eigenvalues --   -0.72017  -0.71144  -0.70444  -0.65533  -0.64991
 Alpha  occ. eigenvalues --   -0.64792  -0.62132  -0.61412  -0.59855  -0.58083
 Alpha  occ. eigenvalues --   -0.55745  -0.55248  -0.53427  -0.53000  -0.52922
 Alpha  occ. eigenvalues --   -0.52628  -0.50391  -0.48778  -0.48771  -0.48401
 Alpha  occ. eigenvalues --   -0.47115  -0.46247  -0.46161  -0.44779  -0.44282
 Alpha  occ. eigenvalues --   -0.37302  -0.36316
 Alpha virt. eigenvalues --    0.05084   0.11244   0.16558   0.20470   0.22548
 Alpha virt. eigenvalues --    0.23959   0.26042   0.26185   0.27000   0.27968
 Alpha virt. eigenvalues --    0.28540   0.30011   0.30973   0.31564   0.31958

 Mulliken charges:
               1
     1  C   -0.171267
     2  C   -0.218766
     3  C   -0.171231
     4  C    0.158438
     5  C   -0.172384
     6  C   -0.214311
     7  H    0.225523
     8  H    0.223196
     9  H    0.275432
    10  H    0.275802
    11  H    0.224010
    12  N    0.488062
    13  O   -0.460326
    14  O   -0.460584
    15  C   -0.299066
    16  C   -0.299463
    17  C   -0.475558
    18  H    0.151314
    19  H    0.151428
    20  H    0.148164
    21  H    0.152150
    22  H    0.158014
    23  H    0.161165
    24  H    0.148456
    25  C   -0.298424
    26  C   -0.300064
    27  C   -0.475908
    28  H    0.148697
    29  H    0.149889
    30  H    0.152756
    31  H    0.152947
    32  H    0.155390
    33  H    0.154984
    34  H    0.161537
 Sum of Mulliken charges =  -0.00000

 Dipole moment (field-independent basis, Debye):
    X=              3.7121    Y=              3.5114    Z=              1.1667  Tot=              5.2412
 Quadrupole moment (field-independent basis, Debye-Ang):
   XX=           -122.6250   YY=            -93.7450   ZZ=            -91.3491
   XY=            -14.6164   XZ=             -3.4653   YZ=             -3.2535

 Normal termination of Gaussian 16 at Wed May  5 18:53:59 2021.
