 Gaussian 16, Revision A.03,
 Gaussian 16:  EM64L-G16RevA.03 25-Dec-2016

 -------------
 #p 6-31g* mp2
 -------------

 ------------------------------------------------------
 Input file generated by CHIRIPA (05-May-2021 14:51:12)
 ------------------------------------------------------
 Symbolic Z-matrix:
 Charge =  0 Multiplicity = 1

                         Standard orientation:
 ---------------------------------------------------------------------
 Center     Atomic      Atomic             Coordinates (Angstroms)
 Number     Number       Type             X           Y           Z
 ---------------------------------------------------------------------
      1          6           0       -3.004600   -0.540237   -0.393045
      2          6           0       -4.156218    0.105153    0.378469
      3          6           0       -5.125650    0.861891   -0.530015
      4          1           0       -2.460150    0.237862   -0.945387
      5          1           0       -3.416050   -1.227561   -1.145169
      6          1           0       -3.742677    0.790014    1.129844
      7          1           0       -4.697873   -0.674547    0.929190
      8          1           0       -5.565591    0.186845   -1.271207
      9          1           0       -4.604968    1.659727   -1.069412
     10          1           0       -5.941067    1.315324    0.042133
     11          6           0       -2.026983   -1.300399    0.501464
     12          6           0       -0.875365   -1.945790   -0.270050
     13          6           0        0.094067   -2.702528    0.638434
     14          1           0       -1.615533   -0.613075    1.253587
     15          1           0       -2.571433   -2.078498    1.053805
     16          1           0       -0.333710   -1.166090   -0.820771
     17          1           0       -1.288907   -2.630650   -1.021426
     18          1           0       -0.426616   -3.500363    1.177831
     19          1           0        0.534008   -2.027481    1.379625
     20          1           0        0.909484   -3.155960    0.066285
     21          6           0        2.654912    0.235346   -0.362253
     22          6           0        3.954627   -0.399667    0.133210
     23          6           0        4.219108   -1.769651   -0.492079
     24          1           0        1.816656   -0.438946   -0.139533
     25          1           0        2.696010    0.332244   -1.456016
     26          1           0        3.911656   -0.494067    1.225849
     27          1           0        4.789862    0.276301   -0.090543
     28          1           0        4.288582   -1.688865   -1.581688
     29          1           0        3.405386   -2.463611   -0.257817
     30          1           0        5.153162   -2.205408   -0.123952
     31          6           0        2.376672    1.605291    0.253834
     32          6           0        1.076956    2.240303   -0.241629
     33          6           0        0.812476    3.610288    0.383660
     34          1           0        2.335573    1.508393    1.347597
     35          1           0        3.214927    2.279582    0.031115
     36          1           0        0.241721    1.564335   -0.017875
     37          1           0        1.119927    2.334704   -1.334266
     38          1           0        1.626197    4.304248    0.149399
     39          1           0        0.743001    3.529502    1.473270
     40          1           0       -0.121579    4.046045    0.015534
 ---------------------------------------------------------------------

 SCF Done:  E(RHF) =  -470.732424194     A.U. after   11 cycles
 E2 =    -0.1585010688D+01 EUMP2 =    -0.47231743488206D+03

 The electronic state is 1-A.
 Alpha  occ. eigenvalues --  -11.21671 -11.21628 -11.21621 -11.21574 -11.21448
 Alpha  occ. eigenvalues --  -11.21405 -11.21383 -11.21289 -11.21169 -11.21127
 Alpha  occ. eigenvalues --  -11.21083 -11.21030  -1.08513  -1.08404  -1.03600
 Alpha  occ. eigenvalues --   -1.03527  -0.96049  -0.95980  -0.87054  -0.87005
 Alpha  occ. eigenvalues --   -0.79647  -0.79604  -0.78358  -0.78195  -0.65425
 Alpha  occ. eigenvalues --   -0.64813  -0.61097  -0.60863  -0.59460  -0.59295
 Alpha  occ. eigenvalues --   -0.57642  -0.57604  -0.55481  -0.55143  -0.52765
 Alpha  occ. eigenvalues --   -0.52679  -0.52483  -0.52357  -0.50026  -0.49887
 Alpha  occ. eigenvalues --   -0.47974  -0.47900  -0.46717  -0.46632  -0.46084
 Alpha  occ. eigenvalues --   -0.45785  -0.45729  -0.45327  -0.43820  -0.43786
 Alpha virt. eigenvalues --    0.19538   0.22163   0.23844   0.24535   0.26122
 Alpha virt. eigenvalues --    0.26510   0.26584   0.27528   0.27887   0.30238
 Alpha virt. eigenvalues --    0.30516   0.31380   0.31705   0.31973   0.32557

 Mulliken charges:
               1
     1  C   -0.300011
     2  C   -0.299616
     3  C   -0.475739
     4  H    0.151375
     5  H    0.149784
     6  H    0.151935
     7  H    0.151955
     8  H    0.155219
     9  H    0.155308
    10  H    0.160334
    11  C   -0.298533
    12  C   -0.306746
    13  C   -0.482277
    14  H    0.149108
    15  H    0.150074
    16  H    0.158022
    17  H    0.152884
    18  H    0.157203
    19  H    0.154540
    20  H    0.164206
    21  C   -0.311139
    22  C   -0.298297
    23  C   -0.480076
    24  H    0.165612
    25  H    0.148527
    26  H    0.151420
    27  H    0.151707
    28  H    0.154815
    29  H    0.159219
    30  H    0.160152
    31  C   -0.297563
    32  C   -0.304046
    33  C   -0.475557
    34  H    0.148798
    35  H    0.149891
    36  H    0.154409
    37  H    0.152111
    38  H    0.155724
    39  H    0.155174
    40  H    0.160095
 Sum of Mulliken charges =  -0.00000

 Dipole moment (field-independent basis, Debye):
    X=             -0.0272    Y=             -0.0241    Z=             -0.0095  Tot=              0.0376
 Quadrupole moment (field-independent basis, Debye-Ang):
   XX=            -85.0539   YY=            -85.1429   ZZ=            -84.6122
   XY=              1.5081   XZ=             -0.5865   YZ=             -0.2989

 Normal termination of Gaussian 16 at Thu May  6 03:54:51 2021.
