 Gaussian 16, Revision A.03,
 Gaussian 16:  EM64L-G16RevA.03 25-Dec-2016

 -------------
 #p 6-31g* mp2
 -------------

 ------------------------------------------------------
 Input file generated by CHIRIPA (05-May-2021 14:53:14)
 ------------------------------------------------------
 Symbolic Z-matrix:
 Charge =  0 Multiplicity = 1

                         Standard orientation:
 ---------------------------------------------------------------------
 Center     Atomic      Atomic             Coordinates (Angstroms)
 Number     Number       Type             X           Y           Z
 ---------------------------------------------------------------------
      1          6           0       -3.762797   -0.554115    0.255422
      2          6           0       -4.698947   -1.696163   -0.141233
      3          6           0       -4.535020   -2.930291    0.746377
      4          1           0       -2.723475   -0.906847    0.207105
      5          1           0       -3.951906   -0.281287    1.302893
      6          1           0       -4.509085   -1.965827   -1.188061
      7          1           0       -5.736151   -1.340616   -0.092152
      8          1           0       -4.744498   -2.683236    1.792170
      9          1           0       -3.510459   -3.312000    0.690034
     10          1           0       -5.213680   -3.734404    0.445238
     11          6           0       -3.914882    0.686643   -0.622711
     12          6           0       -2.978732    1.828691   -0.226057
     13          6           0       -3.142659    3.062819   -1.113666
     14          1           0       -3.725772    0.413814   -1.670183
     15          1           0       -4.954204    1.039375   -0.574395
     16          1           0       -1.941528    1.473143   -0.275138
     17          1           0       -3.168594    2.098354    0.820771
     18          1           0       -4.167219    3.444528   -1.057323
     19          1           0       -2.933181    2.815764   -2.159460
     20          1           0       -2.463999    3.866931   -0.812528
     21          6           0        5.039099   -0.954347   -1.035364
     22          6           0        5.185700   -0.100528    0.062826
     23          6           0        4.062426    0.405557    0.723643
     24          6           0        2.801873    0.035489    0.257438
     25          6           0        2.623144   -0.813220   -0.833909
     26          6           0        3.760542   -1.307346   -1.479443
     27          1           0        5.917171   -1.342840   -1.542766
     28          1           0        6.177414    0.175315    0.409901
     29          1           0        4.147099    1.068296    1.576301
     30          1           0        1.621590   -1.070294   -1.156738
     31          1           0        3.643667   -1.970251   -2.332053
     32          7           0        1.605237    0.564929    0.948926
     33          8           0        0.505635    0.223787    0.518652
     34          8           0        1.789573    1.311020    1.908095
 ---------------------------------------------------------------------

 SCF Done:  E(RHF) =  -669.536209882     A.U. after   15 cycles
 E2 =    -0.2091140492D+01 EUMP2 =    -0.67162735037390D+03

 The electronic state is 1-A.
 Alpha  occ. eigenvalues --  -20.61008 -20.61000 -15.86040 -11.31341 -11.27905
 Alpha  occ. eigenvalues --  -11.27896 -11.27634 -11.26904 -11.26894 -11.20805
 Alpha  occ. eigenvalues --  -11.20411 -11.20300 -11.20230 -11.20090 -11.19996
 Alpha  occ. eigenvalues --   -1.60063  -1.39621  -1.19506  -1.08913  -1.07344
 Alpha  occ. eigenvalues --   -1.04900  -1.02503  -0.95758  -0.95002  -0.86302
 Alpha  occ. eigenvalues --   -0.86024  -0.82596  -0.78554  -0.77655  -0.77092
 Alpha  occ. eigenvalues --   -0.72260  -0.71374  -0.70615  -0.65165  -0.64903
 Alpha  occ. eigenvalues --   -0.63978  -0.62249  -0.59908  -0.58371  -0.56583
 Alpha  occ. eigenvalues --   -0.55404  -0.54310  -0.53232  -0.52992  -0.51725
 Alpha  occ. eigenvalues --   -0.51417  -0.49075  -0.49013  -0.48931  -0.46873
 Alpha  occ. eigenvalues --   -0.45609  -0.45029  -0.44666  -0.44450  -0.42746
 Alpha  occ. eigenvalues --   -0.37483  -0.36500
 Alpha virt. eigenvalues --    0.04857   0.11155   0.16344   0.21260   0.23858
 Alpha virt. eigenvalues --    0.25276   0.27188   0.27509   0.28075   0.28719
 Alpha virt. eigenvalues --    0.28991   0.30902   0.32289   0.32438   0.32839

 Mulliken charges:
               1
     1  C   -0.300140
     2  C   -0.298801
     3  C   -0.474610
     4  H    0.160430
     5  H    0.149691
     6  H    0.147938
     7  H    0.149426
     8  H    0.155385
     9  H    0.154232
    10  H    0.156392
    11  C   -0.297111
    12  C   -0.309237
    13  C   -0.475158
    14  H    0.143663
    15  H    0.144387
    16  H    0.178176
    17  H    0.151416
    18  H    0.150291
    19  H    0.149662
    20  H    0.159452
    21  C   -0.170523
    22  C   -0.218555
    23  C   -0.170484
    24  C    0.157679
    25  C   -0.170614
    26  C   -0.218485
    27  H    0.226185
    28  H    0.224003
    29  H    0.276014
    30  H    0.275151
    31  H    0.223959
    32  N    0.491971
    33  O   -0.463782
    34  O   -0.458004
 Sum of Mulliken charges =  -0.00000

 Dipole moment (field-independent basis, Debye):
    X=              4.6079    Y=             -1.8713    Z=             -2.3115  Tot=              5.4843
 Quadrupole moment (field-independent basis, Debye-Ang):
   XX=            -70.5445   YY=            -95.7204   ZZ=            -94.5050
   XY=             -3.7120   XZ=             -4.6087   YZ=              2.4038

 Normal termination of Gaussian 16 at Wed May  5 18:38:42 2021.
