 Gaussian 16, Revision A.03,
 Gaussian 16:  EM64L-G16RevA.03 25-Dec-2016

 -------------
 #p 6-31g* mp2
 -------------

 ------------------------------------------------------
 Input file generated by CHIRIPA (05-May-2021 14:51:08)
 ------------------------------------------------------
 Symbolic Z-matrix:
 Charge =  0 Multiplicity = 1

                         Standard orientation:
 ---------------------------------------------------------------------
 Center     Atomic      Atomic             Coordinates (Angstroms)
 Number     Number       Type             X           Y           Z
 ---------------------------------------------------------------------
      1          6           0        4.498614   -0.164826    0.017936
      2          6           0        5.096244    1.214020   -0.264211
      3          6           0        6.617818    1.180103   -0.410688
      4          1           0        4.947657   -0.571500    0.934409
      5          1           0        4.774390   -0.849776   -0.795812
      6          1           0        4.818264    1.896525    0.549134
      7          1           0        4.645585    1.617541   -1.180013
      8          1           0        6.910942    0.521243   -1.234450
      9          1           0        7.084602    0.801813    0.504522
     10          1           0        7.024066    2.176248   -0.611977
     11          6           0        2.978343   -0.147220    0.166915
     12          6           0        2.380714   -1.526066    0.449062
     13          6           0        0.859140   -1.492148    0.595539
     14          1           0        2.702568    0.537731    0.980663
     15          1           0        2.529300    0.259455   -0.749557
     16          1           0        2.831372   -1.929587    1.364864
     17          1           0        2.658693   -2.208571   -0.364283
     18          1           0        0.392355   -1.113858   -0.319671
     19          1           0        0.566015   -0.833289    1.419301
     20          1           0        0.452892   -2.488294    0.796829
     21          6           0       -3.942272   -0.535530   -0.344725
     22          6           0       -2.951472   -1.636144    0.035995
     23          6           0       -3.372945   -3.013887   -0.475845
     24          1           0       -4.933688   -0.789198    0.054893
     25          1           0       -4.044310   -0.505953   -1.438392
     26          1           0       -2.850286   -1.662716    1.128548
     27          1           0       -1.962259   -1.379732   -0.364412
     28          1           0       -3.455352   -3.010629   -1.567541
     29          1           0       -4.348424   -3.295222   -0.066098
     30          1           0       -2.650549   -3.785697   -0.192451
     31          6           0       -3.534685    0.847575    0.159874
     32          6           0       -4.525485    1.948190   -0.220846
     33          6           0       -4.104012    3.325932    0.290994
     34          1           0       -3.432647    0.817998    1.253541
     35          1           0       -2.543271    1.101243   -0.239745
     36          1           0       -5.514698    1.691777    0.179560
     37          1           0       -4.626672    1.974761   -1.313399
     38          1           0       -3.128534    3.607267   -0.118753
     39          1           0       -4.021605    3.322675    1.382690
     40          1           0       -4.826408    4.097743    0.007600
 ---------------------------------------------------------------------

 SCF Done:  E(RHF) =  -470.732854609     A.U. after   11 cycles
 E2 =    -0.1582812067D+01 EUMP2 =    -0.47231566667690D+03

 The electronic state is 1-A.
 Alpha  occ. eigenvalues --  -11.21610 -11.21595 -11.21561 -11.21424 -11.21416
 Alpha  occ. eigenvalues --  -11.21356 -11.21335 -11.21269 -11.21078 -11.21067
 Alpha  occ. eigenvalues --  -11.21042 -11.20993  -1.08441  -1.08353  -1.03551
 Alpha  occ. eigenvalues --   -1.03443  -0.96000  -0.95906  -0.87032  -0.86912
 Alpha  occ. eigenvalues --   -0.79707  -0.79428  -0.78278  -0.78126  -0.65089
 Alpha  occ. eigenvalues --   -0.64978  -0.61008  -0.60799  -0.59412  -0.59232
 Alpha  occ. eigenvalues --   -0.57601  -0.57522  -0.55311  -0.55179  -0.52718
 Alpha  occ. eigenvalues --   -0.52586  -0.52461  -0.52300  -0.50016  -0.49801
 Alpha  occ. eigenvalues --   -0.48052  -0.47725  -0.46755  -0.46431  -0.45893
 Alpha  occ. eigenvalues --   -0.45730  -0.45659  -0.45457  -0.43786  -0.43693
 Alpha virt. eigenvalues --    0.22033   0.23026   0.23719   0.24791   0.25708
 Alpha virt. eigenvalues --    0.26619   0.26967   0.27247   0.27900   0.29235
 Alpha virt. eigenvalues --    0.30451   0.30880   0.31540   0.31835   0.32411

 Mulliken charges:
               1
     1  C   -0.298237
     2  C   -0.299640
     3  C   -0.475710
     4  H    0.149725
     5  H    0.149510
     6  H    0.151982
     7  H    0.151840
     8  H    0.155177
     9  H    0.155213
    10  H    0.160279
    11  C   -0.298398
    12  C   -0.300480
    13  C   -0.475716
    14  H    0.149657
    15  H    0.149293
    16  H    0.151843
    17  H    0.151773
    18  H    0.155014
    19  H    0.156140
    20  H    0.161171
    21  C   -0.297938
    22  C   -0.305979
    23  C   -0.475635
    24  H    0.149044
    25  H    0.148688
    26  H    0.151401
    27  H    0.161894
    28  H    0.154440
    29  H    0.154698
    30  H    0.159673
    31  C   -0.298131
    32  C   -0.299542
    33  C   -0.475644
    34  H    0.149340
    35  H    0.149418
    36  H    0.151884
    37  H    0.151711
    38  H    0.155105
    39  H    0.155060
    40  H    0.160078
 Sum of Mulliken charges =  -0.00000

 Dipole moment (field-independent basis, Debye):
    X=              0.0378    Y=             -0.0021    Z=              0.0130  Tot=              0.0401
 Quadrupole moment (field-independent basis, Debye-Ang):
   XX=            -86.0144   YY=            -85.9775   ZZ=            -83.1002
   XY=             -0.2596   XZ=             -0.2766   YZ=             -0.2983

 Normal termination of Gaussian 16 at Wed May  5 22:55:36 2021.
