 Gaussian 16, Revision A.03,
 Gaussian 16:  EM64L-G16RevA.03 25-Dec-2016

 -------------
 #p 6-31g* mp2
 -------------

 ------------------------------------------------------
 Input file generated by CHIRIPA (05-May-2021 14:57:27)
 ------------------------------------------------------
 Symbolic Z-matrix:
 Charge =  0 Multiplicity = 1

                         Standard orientation:
 ---------------------------------------------------------------------
 Center     Atomic      Atomic             Coordinates (Angstroms)
 Number     Number       Type             X           Y           Z
 ---------------------------------------------------------------------
      1          6           0        5.671965    1.086719   -0.524477
      2          6           0        5.680543   -0.311799   -0.548915
      3          6           0        4.519717   -1.034152   -0.256960
      4          6           0        3.362768   -0.322568    0.056739
      5          6           0        3.322446    1.070486    0.089387
      6          6           0        4.495019    1.772189   -0.205966
      7          1           0        6.578285    1.639839   -0.752595
      8          1           0        6.593125   -0.846792   -0.795938
      9          1           0        4.498319   -2.117123   -0.268554
     10          1           0        2.397465    1.575889    0.339181
     11          1           0        4.485418    2.858266   -0.186220
     12          7           0        2.127636   -1.076360    0.367617
     13          8           0        1.121257   -0.425894    0.640989
     14          8           0        2.189306   -2.303376    0.332024
     15          6           0       -2.988550    2.634490    0.306321
     16          6           0       -4.060453    2.268806   -0.514544
     17          6           0       -4.389628    0.922043   -0.694597
     18          6           0       -3.622191   -0.037185   -0.035648
     19          6           0       -2.548353    0.295493    0.788663
     20          6           0       -2.237246    1.648404    0.954163
     21          1           0       -2.739857    3.683076    0.440538
     22          1           0       -4.645673    3.032464   -1.018913
     23          1           0       -5.214277    0.611005   -1.324381
     24          1           0       -1.983390   -0.488403    1.278297
     25          1           0       -1.404248    1.929471    1.592255
     26          7           0       -3.961110   -1.466198   -0.218559
     27          8           0       -3.269452   -2.292161    0.373074
     28          8           0       -4.911996   -1.733236   -0.950095
 ---------------------------------------------------------------------

 SCF Done:  E(RHF) =  -868.338455377     A.U. after   15 cycles
 E2 =    -0.2599215175D+01 EUMP2 =    -0.87093767055204D+03

 The electronic state is 1-A.
 Alpha  occ. eigenvalues --  -20.61224 -20.61169 -20.59778 -20.59728 -15.86245
 Alpha  occ. eigenvalues --  -15.84807 -11.31552 -11.30157 -11.28156 -11.28076
 Alpha  occ. eigenvalues --  -11.27833 -11.27134 -11.27082 -11.26851 -11.26631
 Alpha  occ. eigenvalues --  -11.26594 -11.25893 -11.25741  -1.60251  -1.58834
 Alpha  occ. eigenvalues --   -1.39814  -1.38382  -1.19714  -1.18374  -1.09115
 Alpha  occ. eigenvalues --   -1.07801  -1.05113  -1.03757  -0.95964  -0.94615
 Alpha  occ. eigenvalues --   -0.86512  -0.85179  -0.82808  -0.81431  -0.77862
 Alpha  occ. eigenvalues --   -0.76450  -0.72479  -0.71564  -0.71029  -0.70824
 Alpha  occ. eigenvalues --   -0.70157  -0.69512  -0.65373  -0.65116  -0.64031
 Alpha  occ. eigenvalues --   -0.63787  -0.62467  -0.61074  -0.55608  -0.54354
 Alpha  occ. eigenvalues --   -0.53438  -0.53207  -0.52123  -0.51859  -0.49229
 Alpha  occ. eigenvalues --   -0.49183  -0.47805  -0.47766  -0.45231  -0.43788
 Alpha  occ. eigenvalues --   -0.37683  -0.36712  -0.36428  -0.35345
 Alpha virt. eigenvalues --    0.04681   0.06064   0.10945   0.12279   0.16189
 Alpha virt. eigenvalues --    0.17503   0.20963   0.22293   0.26750   0.27463
 Alpha virt. eigenvalues --    0.28614   0.29245   0.30634   0.31610   0.32588

 Mulliken charges:
               1
     1  C   -0.170449
     2  C   -0.218341
     3  C   -0.170161
     4  C    0.158971
     5  C   -0.170180
     6  C   -0.218179
     7  H    0.226648
     8  H    0.225158
     9  H    0.277756
    10  H    0.270222
    11  H    0.222766
    12  N    0.491123
    13  O   -0.471390
    14  O   -0.452253
    15  C   -0.172419
    16  C   -0.219971
    17  C   -0.171909
    18  C    0.155239
    19  C   -0.164160
    20  C   -0.219887
    21  H    0.219332
    22  H    0.218653
    23  H    0.272460
    24  H    0.291180
    25  H    0.222698
    26  N    0.487701
    27  O   -0.454488
    28  O   -0.466120
 Sum of Mulliken charges =  -0.00000

 Dipole moment (field-independent basis, Debye):
    X=              5.9839    Y=              7.3826    Z=             -0.3749  Tot=              9.5105
 Quadrupole moment (field-independent basis, Debye-Ang):
   XX=            -81.5790   YY=           -103.9041   ZZ=           -104.5117
   XY=            -13.9614   XZ=             -4.1650   YZ=              0.0179

 Normal termination of Gaussian 16 at Wed May  5 16:33:41 2021.
