 Gaussian 16, Revision A.03,
 Gaussian 16:  EM64L-G16RevA.03 25-Dec-2016

 -------------
 #p 6-31g* mp2
 -------------

 ------------------------------------------------------
 Input file generated by CHIRIPA (05-May-2021 14:51:13)
 ------------------------------------------------------
 Symbolic Z-matrix:
 Charge =  0 Multiplicity = 1

                         Standard orientation:
 ---------------------------------------------------------------------
 Center     Atomic      Atomic             Coordinates (Angstroms)
 Number     Number       Type             X           Y           Z
 ---------------------------------------------------------------------
      1          6           0       -1.304165   -1.423716    0.180469
      2          6           0       -0.941843   -2.784402   -0.415552
      3          6           0        0.483798   -3.218723   -0.073927
      4          1           0       -0.592565   -0.669939   -0.183387
      5          1           0       -1.184242   -1.465637    1.271915
      6          1           0       -1.063743   -2.740337   -1.505421
      7          1           0       -1.654504   -3.534992   -0.050387
      8          1           0        0.615151   -3.290698    1.010586
      9          1           0        1.209268   -2.491528   -0.452716
     10          1           0        0.721737   -4.193981   -0.509950
     11          6           0       -2.726273   -0.975849   -0.152325
     12          6           0       -3.088595    0.384837    0.443696
     13          6           0       -4.514235    0.819158    0.102070
     14          1           0       -2.846195   -0.933928   -1.243771
     15          1           0       -3.437873   -1.729626    0.211531
     16          1           0       -2.375934    1.135427    0.078531
     17          1           0       -2.966694    0.340772    1.533565
     18          1           0       -5.239706    0.091963    0.480860
     19          1           0       -4.645589    0.891133   -0.982442
     20          1           0       -4.752175    1.794416    0.538094
     21          6           0        2.162944    0.450519    0.000545
     22          6           0        3.649458    0.128506    0.157286
     23          6           0        3.929045   -1.374446    0.184835
     24          1           0        1.604958   -0.012618    0.825833
     25          1           0        1.790876   -0.009624   -0.925323
     26          1           0        4.018935    0.590280    1.081876
     27          1           0        4.203992    0.592624   -0.668366
     28          1           0        3.587478   -1.846881   -0.741846
     29          1           0        3.401369   -1.849237    1.018341
     30          1           0        4.997725   -1.581997    0.297552
     31          6           0        1.867494    1.949046   -0.028688
     32          6           0        0.380980    2.271059   -0.185430
     33          6           0        0.101392    3.774011   -0.212980
     34          1           0        2.239561    2.409189    0.897179
     35          1           0        2.425479    2.412183   -0.853977
     36          1           0       -0.173555    1.806941    0.640222
     37          1           0        0.011503    1.809284   -1.110021
     38          1           0        0.629068    4.248803   -1.046485
     39          1           0        0.442959    4.246447    0.713702
     40          1           0       -0.967289    3.981561   -0.325696
 ---------------------------------------------------------------------

 SCF Done:  E(RHF) =  -470.729816007     A.U. after   11 cycles
 E2 =    -0.1587495465D+01 EUMP2 =    -0.47231731147207D+03

 The electronic state is 1-A.
 Alpha  occ. eigenvalues --  -11.21645 -11.21625 -11.21466 -11.21463 -11.21451
 Alpha  occ. eigenvalues --  -11.21389 -11.21270 -11.21149 -11.21135 -11.21042
 Alpha  occ. eigenvalues --  -11.21007 -11.20862  -1.08551  -1.08266  -1.03624
 Alpha  occ. eigenvalues --   -1.03385  -0.96055  -0.95844  -0.87078  -0.86857
 Alpha  occ. eigenvalues --   -0.79847  -0.79357  -0.78774  -0.77721  -0.65134
 Alpha  occ. eigenvalues --   -0.64946  -0.60992  -0.60878  -0.59513  -0.59149
 Alpha  occ. eigenvalues --   -0.57816  -0.57346  -0.55321  -0.55135  -0.52744
 Alpha  occ. eigenvalues --   -0.52653  -0.52516  -0.52141  -0.49982  -0.49810
 Alpha  occ. eigenvalues --   -0.48398  -0.47536  -0.46981  -0.46628  -0.46386
 Alpha  occ. eigenvalues --   -0.45845  -0.45485  -0.44433  -0.43787  -0.43644
 Alpha virt. eigenvalues --    0.21703   0.22208   0.23412   0.24805   0.25261
 Alpha virt. eigenvalues --    0.25625   0.26581   0.27621   0.28768   0.29554
 Alpha virt. eigenvalues --    0.30420   0.31268   0.31540   0.32120   0.32315

 Mulliken charges:
               1
     1  C   -0.309671
     2  C   -0.298754
     3  C   -0.483018
     4  H    0.165203
     5  H    0.146466
     6  H    0.150251
     7  H    0.150848
     8  H    0.152903
     9  H    0.166682
    10  H    0.158815
    11  C   -0.296542
    12  C   -0.308524
    13  C   -0.475051
    14  H    0.148170
    15  H    0.148809
    16  H    0.163079
    17  H    0.150075
    18  H    0.154870
    19  H    0.154668
    20  H    0.159479
    21  C   -0.305019
    22  C   -0.298664
    23  C   -0.478697
    24  H    0.155816
    25  H    0.148528
    26  H    0.151915
    27  H    0.151567
    28  H    0.155837
    29  H    0.158607
    30  H    0.160351
    31  C   -0.296210
    32  C   -0.306562
    33  C   -0.476806
    34  H    0.149728
    35  H    0.149327
    36  H    0.158771
    37  H    0.150693
    38  H    0.155465
    39  H    0.155704
    40  H    0.160892
 Sum of Mulliken charges =  -0.00000

 Dipole moment (field-independent basis, Debye):
    X=              0.1027    Y=              0.0713    Z=              0.0126  Tot=              0.1256
 Quadrupole moment (field-independent basis, Debye-Ang):
   XX=            -86.0894   YY=            -86.1136   ZZ=            -83.0619
   XY=              0.8389   XZ=             -0.5052   YZ=             -0.2473

 Normal termination of Gaussian 16 at Thu May  6 02:23:56 2021.
