 Gaussian 16, Revision A.03,
 Gaussian 16:  EM64L-G16RevA.03 25-Dec-2016

 -------------
 #p 6-31g* mp2
 -------------

 ------------------------------------------------------
 Input file generated by CHIRIPA (05-May-2021 14:53:11)
 ------------------------------------------------------
 Symbolic Z-matrix:
 Charge =  0 Multiplicity = 1

                         Standard orientation:
 ---------------------------------------------------------------------
 Center     Atomic      Atomic             Coordinates (Angstroms)
 Number     Number       Type             X           Y           Z
 ---------------------------------------------------------------------
      1          6           0        3.169401    0.731404   -0.138574
      2          6           0        3.532885    2.162187    0.259828
      3          6           0        2.325819    3.100689    0.259466
      4          1           0        2.710755    0.740808   -1.136823
      5          1           0        2.405849    0.348488    0.552626
      6          1           0        4.296531    2.541801   -0.431081
      7          1           0        3.990894    2.149354    1.257164
      8          1           0        1.563815    2.748516    0.962263
      9          1           0        1.871188    3.143193   -0.735574
     10          1           0        2.608312    4.118188    0.547134
     11          6           0        4.365637   -0.218716   -0.142873
     12          6           0        4.002153   -1.649499   -0.541276
     13          6           0        5.209219   -2.588001   -0.540914
     14          1           0        5.129189    0.164200   -0.834074
     15          1           0        4.824283   -0.228120    0.855375
     16          1           0        3.544144   -1.636666   -1.538612
     17          1           0        3.238507   -2.029113    0.149633
     18          1           0        5.663850   -2.630505    0.454127
     19          1           0        5.971223   -2.235828   -1.243711
     20          1           0        4.926726   -3.605501   -0.828582
     21          6           0       -5.183937   -0.034128   -1.038189
     22          6           0       -5.095337   -0.574221    0.249044
     23          6           0       -3.859156   -0.671172    0.894805
     24          6           0       -2.726765   -0.216331    0.220938
     25          6           0       -2.782554    0.326617   -1.061789
     26          6           0       -4.029298    0.413778   -1.688351
     27          1           0       -6.148334    0.037383   -1.532374
     28          1           0       -5.990380   -0.922865    0.756383
     29          1           0       -3.761903   -1.085025    1.891141
     30          1           0       -1.872785    0.665797   -1.542097
     31          1           0       -4.095100    0.833669   -2.688054
     32          7           0       -1.412485   -0.313786    0.894413
     33          8           0       -0.429659    0.093992    0.279264
     34          8           0       -1.390063   -0.796105    2.024680
 ---------------------------------------------------------------------

 SCF Done:  E(RHF) =  -669.536139244     A.U. after   15 cycles
 E2 =    -0.2091316101D+01 EUMP2 =    -0.67162745534498D+03

 The electronic state is 1-A.
 Alpha  occ. eigenvalues --  -20.60992 -20.60970 -15.86005 -11.31309 -11.27871
 Alpha  occ. eigenvalues --  -11.27866 -11.27606 -11.26874 -11.26864 -11.20536
 Alpha  occ. eigenvalues --  -11.20407 -11.20241 -11.20211 -11.19915 -11.19768
 Alpha  occ. eigenvalues --   -1.60044  -1.39598  -1.19476  -1.08886  -1.07188
 Alpha  occ. eigenvalues --   -1.04869  -1.02414  -0.95730  -0.94856  -0.86271
 Alpha  occ. eigenvalues --   -0.85880  -0.82565  -0.78484  -0.77625  -0.76933
 Alpha  occ. eigenvalues --   -0.72220  -0.71352  -0.70585  -0.65132  -0.64874
 Alpha  occ. eigenvalues --   -0.63823  -0.62216  -0.59824  -0.58233  -0.56463
 Alpha  occ. eigenvalues --   -0.55377  -0.54145  -0.53202  -0.52962  -0.51620
 Alpha  occ. eigenvalues --   -0.51279  -0.49058  -0.48989  -0.48764  -0.46796
 Alpha  occ. eigenvalues --   -0.45518  -0.45000  -0.44527  -0.44284  -0.42622
 Alpha  occ. eigenvalues --   -0.37455  -0.36470
 Alpha virt. eigenvalues --    0.04903   0.11186   0.16399   0.21304   0.24044
 Alpha virt. eigenvalues --    0.25329   0.27216   0.27897   0.28102   0.28862
 Alpha virt. eigenvalues --    0.29121   0.30923   0.32319   0.32519   0.32827

 Mulliken charges:
               1
     1  C   -0.304447
     2  C   -0.298878
     3  C   -0.474479
     4  H    0.144281
     5  H    0.178408
     6  H    0.145113
     7  H    0.149123
     8  H    0.165201
     9  H    0.149535
    10  H    0.152694
    11  C   -0.297792
    12  C   -0.298899
    13  C   -0.474960
    14  H    0.143356
    15  H    0.147122
    16  H    0.148717
    17  H    0.158342
    18  H    0.154107
    19  H    0.152083
    20  H    0.157066
    21  C   -0.170513
    22  C   -0.218621
    23  C   -0.170500
    24  C    0.157629
    25  C   -0.170681
    26  C   -0.218556
    27  H    0.226059
    28  H    0.223836
    29  H    0.275794
    30  H    0.276124
    31  H    0.223926
    32  N    0.490747
    33  O   -0.461128
    34  O   -0.459809
 Sum of Mulliken charges =  -0.00000

 Dipole moment (field-independent basis, Debye):
    X=             -5.0196    Y=              0.2496    Z=             -2.2564  Tot=              5.5091
 Quadrupole moment (field-independent basis, Debye-Ang):
   XX=            -71.1281   YY=            -96.2787   ZZ=            -91.9414
   XY=              1.5375   XZ=              3.8645   YZ=             -1.6481

 Normal termination of Gaussian 16 at Wed May  5 21:42:00 2021.
