 Gaussian 16, Revision A.03,
 Gaussian 16:  EM64L-G16RevA.03 25-Dec-2016

 -------------
 #p 6-31g* mp2
 -------------

 ------------------------------------------------------
 Input file generated by CHIRIPA (05-May-2021 14:57:27)
 ------------------------------------------------------
 Symbolic Z-matrix:
 Charge =  0 Multiplicity = 1

                         Standard orientation:
 ---------------------------------------------------------------------
 Center     Atomic      Atomic             Coordinates (Angstroms)
 Number     Number       Type             X           Y           Z
 ---------------------------------------------------------------------
      1          6           0        2.117875   -2.234221    0.071890
      2          6           0        1.656654   -0.977212    0.476517
      3          6           0        2.500741    0.136436    0.433458
      4          6           0        3.805961   -0.043812   -0.021736
      5          6           0        4.294896   -1.283246   -0.431657
      6          6           0        3.433206   -2.382964   -0.380109
      7          1           0        1.455331   -3.093919    0.108636
      8          1           0        0.635639   -0.858731    0.827994
      9          1           0        2.169629    1.121002    0.740724
     10          1           0        5.317837   -1.370117   -0.777294
     11          1           0        3.794116   -3.357976   -0.694975
     12          7           0        4.708876    1.127784   -0.071814
     13          8           0        5.854435    0.942613   -0.476837
     14          8           0        4.253924    2.209067    0.294905
     15          6           0       -2.964526    2.662994   -0.003535
     16          6           0       -4.173853    2.276144   -0.590387
     17          6           0       -4.567705    0.934720   -0.586820
     18          6           0       -3.724109    0.002360    0.015128
     19          6           0       -2.513213    0.356565    0.608051
     20          6           0       -2.139520    1.703662    0.592760
     21          1           0       -2.666402    3.707247   -0.010860
     22          1           0       -4.816563    3.019005   -1.054203
     23          1           0       -5.498619    0.607684   -1.033881
     24          1           0       -1.893600   -0.406805    1.062761
     25          1           0       -1.199784    2.001207    1.049278
     26          7           0       -4.130392   -1.420747    0.025111
     27          8           0       -3.369395   -2.222867    0.561882
     28          8           0       -5.202142   -1.707113   -0.504026
 ---------------------------------------------------------------------

 SCF Done:  E(RHF) =  -868.337589559     A.U. after   16 cycles
 E2 =    -0.2599525264D+01 EUMP2 =    -0.87093711482354D+03

 The electronic state is 1-A.
 Alpha  occ. eigenvalues --  -20.61459 -20.61425 -20.61059 -20.61041 -15.86499
 Alpha  occ. eigenvalues --  -15.86109 -11.31852 -11.31452 -11.28526 -11.28351
 Alpha  occ. eigenvalues --  -11.28108 -11.28075 -11.27985 -11.27679 -11.27462
 Alpha  occ. eigenvalues --  -11.27340 -11.27096 -11.26949  -1.60516  -1.60128
 Alpha  occ. eigenvalues --   -1.40074  -1.39684  -1.20007  -1.19618  -1.09384
 Alpha  occ. eigenvalues --   -1.08994  -1.05427  -1.05039  -0.96234  -0.95837
 Alpha  occ. eigenvalues --   -0.86813  -0.86423  -0.83083  -0.82689  -0.78160
 Alpha  occ. eigenvalues --   -0.77753  -0.72719  -0.72327  -0.71836  -0.71450
 Alpha  occ. eigenvalues --   -0.71106  -0.70680  -0.65666  -0.65457  -0.65268
 Alpha  occ. eigenvalues --   -0.65034  -0.62867  -0.62329  -0.55871  -0.55453
 Alpha  occ. eigenvalues --   -0.53726  -0.53565  -0.53338  -0.53087  -0.49485
 Alpha  occ. eigenvalues --   -0.49461  -0.49088  -0.49076  -0.45484  -0.45096
 Alpha  occ. eigenvalues --   -0.37939  -0.37550  -0.37026  -0.36635
 Alpha virt. eigenvalues --    0.04393   0.04809   0.10613   0.11036   0.15873
 Alpha virt. eigenvalues --    0.16324   0.17971   0.22235   0.24604   0.25618
 Alpha virt. eigenvalues --    0.28211   0.29208   0.30664   0.31014   0.32496

 Mulliken charges:
               1
     1  C   -0.171644
     2  C   -0.218794
     3  C   -0.172397
     4  C    0.158869
     5  C   -0.170309
     6  C   -0.218596
     7  H    0.233942
     8  H    0.219938
     9  H    0.269047
    10  H    0.276553
    11  H    0.225942
    12  N    0.488374
    13  O   -0.458827
    14  O   -0.463088
    15  C   -0.169805
    16  C   -0.217869
    17  C   -0.169827
    18  C    0.161052
    19  C   -0.177035
    20  C   -0.218047
    21  H    0.230204
    22  H    0.226693
    23  H    0.277571
    24  H    0.270380
    25  H    0.221310
    26  N    0.488173
    27  O   -0.464957
    28  O   -0.456851
 Sum of Mulliken charges =  -0.00000

 Dipole moment (field-independent basis, Debye):
    X=             -1.8774    Y=              0.8715    Z=             -0.0050  Tot=              2.0698
 Quadrupole moment (field-independent basis, Debye-Ang):
   XX=           -132.7274   YY=           -102.6848   ZZ=           -104.5173
   XY=            -38.9754   XZ=              1.9233   YZ=              0.6778

 Normal termination of Gaussian 16 at Fri May  7 05:08:23 2021.
