 Gaussian 16, Revision A.03,
 Gaussian 16:  EM64L-G16RevA.03 25-Dec-2016

 -------------
 #p 6-31g* mp2
 -------------

 ------------------------------------------------------
 Input file generated by CHIRIPA (05-May-2021 14:55:20)
 ------------------------------------------------------
 Symbolic Z-matrix:
 Charge =  0 Multiplicity = 1

                         Standard orientation:
 ---------------------------------------------------------------------
 Center     Atomic      Atomic             Coordinates (Angstroms)
 Number     Number       Type             X           Y           Z
 ---------------------------------------------------------------------
      1          6           0       -5.006552    0.965782    0.327785
      2          6           0       -3.801243    1.562230    0.712495
      3          6           0       -2.588662    0.888065    0.540164
      4          6           0       -2.618334   -0.386973   -0.022586
      5          6           0       -3.802843   -1.007878   -0.415912
      6          6           0       -5.003510   -0.315110   -0.234200
      7          1           0       -5.943886    1.496715    0.465300
      8          1           0       -3.800581    2.556882    1.149202
      9          1           0       -1.641109    1.326301    0.829144
     10          1           0       -3.771633   -2.000513   -0.848484
     11          1           0       -5.938054   -0.780784   -0.533899
     12          7           0       -1.340935   -1.110528   -0.209990
     13          8           0       -1.393983   -2.232895   -0.708103
     14          8           0       -0.310850   -0.541583    0.144783
     15          6           0        3.669895    1.075336    0.199748
     16          6           0        2.946882    2.029064   -0.751903
     17          6           0        3.053819    3.491183   -0.317662
     18          1           0        3.254129    1.190601    1.210093
     19          1           0        4.728344    1.363675    0.262540
     20          1           0        1.890405    1.738164   -0.813954
     21          1           0        3.364288    1.911378   -1.760139
     22          1           0        4.101961    3.804356   -0.273818
     23          1           0        2.619704    3.630157    0.677743
     24          1           0        2.529998    4.155535   -1.012002
     25          6           0        3.571998   -0.389968   -0.220997
     26          6           0        4.295011   -1.343695    0.730653
     27          6           0        4.188074   -2.805814    0.296412
     28          1           0        2.513549   -0.678306   -0.283790
     29          1           0        3.987765   -0.505232   -1.231343
     30          1           0        3.877606   -1.226010    1.738889
     31          1           0        5.351488   -1.052795    0.792703
     32          1           0        4.622189   -2.944788   -0.698994
     33          1           0        3.139933   -3.118988    0.252568
     34          1           0        4.711895   -3.470166    0.990752
 ---------------------------------------------------------------------

 SCF Done:  E(RHF) =  -669.536663236     A.U. after   15 cycles
 E2 =    -0.2091416869D+01 EUMP2 =    -0.67162808010522D+03

 The electronic state is 1-A.
 Alpha  occ. eigenvalues --  -20.61107 -20.61098 -15.86123 -11.31382 -11.27937
 Alpha  occ. eigenvalues --  -11.27932 -11.27663 -11.26930 -11.26920 -11.20639
 Alpha  occ. eigenvalues --  -11.20464 -11.20353 -11.20268 -11.19829 -11.19798
 Alpha  occ. eigenvalues --   -1.60154  -1.39712  -1.19543  -1.08959  -1.07224
 Alpha  occ. eigenvalues --   -1.04930  -1.02460  -0.95812  -0.94910  -0.86333
 Alpha  occ. eigenvalues --   -0.85933  -0.82649  -0.78534  -0.77710  -0.76990
 Alpha  occ. eigenvalues --   -0.72349  -0.71458  -0.70652  -0.65203  -0.64933
 Alpha  occ. eigenvalues --   -0.63828  -0.62278  -0.59858  -0.58312  -0.56521
 Alpha  occ. eigenvalues --   -0.55437  -0.54192  -0.53265  -0.53021  -0.51673
 Alpha  occ. eigenvalues --   -0.51344  -0.49192  -0.49096  -0.48770  -0.46856
 Alpha  occ. eigenvalues --   -0.45567  -0.45148  -0.44585  -0.44282  -0.42662
 Alpha  occ. eigenvalues --   -0.37518  -0.36528
 Alpha virt. eigenvalues --    0.04805   0.11128   0.16303   0.21171   0.23902
 Alpha virt. eigenvalues --    0.25287   0.27088   0.27518   0.28153   0.28903
 Alpha virt. eigenvalues --    0.29120   0.30892   0.32034   0.32535   0.32654

 Mulliken charges:
               1
     1  C   -0.170376
     2  C   -0.218533
     3  C   -0.170800
     4  C    0.157515
     5  C   -0.170313
     6  C   -0.218616
     7  H    0.226370
     8  H    0.224302
     9  H    0.275777
    10  H    0.276060
    11  H    0.224138
    12  N    0.492037
    13  O   -0.457880
    14  O   -0.464011
    15  C   -0.294929
    16  C   -0.302507
    17  C   -0.474912
    18  H    0.147525
    19  H    0.143549
    20  H    0.160518
    21  H    0.149366
    22  H    0.153669
    23  H    0.151101
    24  H    0.155430
    25  C   -0.312884
    26  C   -0.297392
    27  C   -0.477151
    28  H    0.183037
    29  H    0.143110
    30  H    0.150294
    31  H    0.145241
    32  H    0.151800
    33  H    0.165079
    34  H    0.154387
 Sum of Mulliken charges =  -0.00000

 Dipole moment (field-independent basis, Debye):
    X=             -4.9440    Y=              2.3886    Z=              0.6323  Tot=              5.5271
 Quadrupole moment (field-independent basis, Debye-Ang):
   XX=            -71.1165   YY=            -95.8398   ZZ=            -94.6813
   XY=             -2.9858   XZ=             -1.1104   YZ=              1.3881

 Normal termination of Gaussian 16 at Wed May  5 20:34:18 2021.
