 Gaussian 16, Revision A.03,
 Gaussian 16:  EM64L-G16RevA.03 25-Dec-2016

 -------------
 #p 6-31g* mp2
 -------------

 ------------------------------------------------------
 Input file generated by CHIRIPA (05-May-2021 14:51:11)
 ------------------------------------------------------
 Symbolic Z-matrix:
 Charge =  0 Multiplicity = 1

                         Standard orientation:
 ---------------------------------------------------------------------
 Center     Atomic      Atomic             Coordinates (Angstroms)
 Number     Number       Type             X           Y           Z
 ---------------------------------------------------------------------
      1          6           0        3.448786   -0.294464    0.106629
      2          6           0        4.315944   -1.177370   -0.791423
      3          6           0        4.451735   -2.605584   -0.262689
      4          1           0        3.880634   -0.273572    1.116587
      5          1           0        2.452225   -0.747392    0.202113
      6          1           0        5.310142   -0.722195   -0.886305
      7          1           0        3.882087   -1.196008   -1.799410
      8          1           0        3.469365   -3.082513   -0.184655
      9          1           0        4.905533   -2.606008    0.733638
     10          1           0        5.075603   -3.219363   -0.919898
     11          6           0        3.303594    1.136292   -0.408721
     12          6           0        2.436436    2.019198    0.489331
     13          6           0        2.300645    3.447412   -0.039403
     14          1           0        4.300155    1.589220   -0.504205
     15          1           0        2.871745    1.115400   -1.418679
     16          1           0        2.870292    2.037836    1.497318
     17          1           0        1.442238    1.564023    0.584213
     18          1           0        1.846846    3.447836   -1.035730
     19          1           0        3.283015    3.924341   -0.117437
     20          1           0        1.676777    4.061191    0.617806
     21          6           0       -2.703985   -0.752708    0.004467
     22          6           0       -1.700120   -0.621026    1.150284
     23          6           0       -0.360148   -1.289800    0.842045
     24          1           0       -2.865346   -1.817496   -0.212637
     25          1           0       -2.272760   -0.310286   -0.904215
     26          1           0       -2.133663   -1.062329    2.056876
     27          1           0       -1.541275    0.443569    1.364813
     28          1           0        0.097350   -0.844070   -0.047124
     29          1           0       -0.498404   -2.358524    0.648871
     30          1           0        0.342433   -1.183616    1.674489
     31          6           0       -4.048394   -0.089119    0.297626
     32          6           0       -5.052260   -0.220802   -0.848193
     33          6           0       -6.392231    0.447972   -0.539952
     34          1           0       -4.479619   -0.531542    1.206307
     35          1           0       -3.887033    0.975668    0.514729
     36          1           0       -5.211105   -1.285396   -1.062721
     37          1           0       -4.618717    0.220500   -1.754784
     38          1           0       -6.253976    1.516695   -0.346778
     39          1           0       -6.849730    0.002243    0.349217
     40          1           0       -7.094813    0.341788   -1.372397
 ---------------------------------------------------------------------

 SCF Done:  E(RHF) =  -470.732613925     A.U. after   11 cycles
 E2 =    -0.1583525908D+01 EUMP2 =    -0.47231613983322D+03

 The electronic state is 1-A.
 Alpha  occ. eigenvalues --  -11.21676 -11.21635 -11.21563 -11.21512 -11.21459
 Alpha  occ. eigenvalues --  -11.21396 -11.21325 -11.21184 -11.21156 -11.21096
 Alpha  occ. eigenvalues --  -11.21061 -11.20998  -1.08490  -1.08353  -1.03593
 Alpha  occ. eigenvalues --   -1.03471  -0.96061  -0.95908  -0.87083  -0.86928
 Alpha  occ. eigenvalues --   -0.79685  -0.79526  -0.78313  -0.78139  -0.65199
 Alpha  occ. eigenvalues --   -0.64940  -0.61009  -0.60855  -0.59415  -0.59286
 Alpha  occ. eigenvalues --   -0.57650  -0.57534  -0.55436  -0.55136  -0.52801
 Alpha  occ. eigenvalues --   -0.52605  -0.52476  -0.52314  -0.50053  -0.49828
 Alpha  occ. eigenvalues --   -0.47983  -0.47854  -0.46759  -0.46564  -0.45909
 Alpha  occ. eigenvalues --   -0.45779  -0.45696  -0.45392  -0.43792  -0.43701
 Alpha virt. eigenvalues --    0.20886   0.23029   0.23845   0.24539   0.26154
 Alpha virt. eigenvalues --    0.26772   0.27028   0.27399   0.27925   0.29718
 Alpha virt. eigenvalues --    0.30410   0.31456   0.31731   0.31877   0.32208

 Mulliken charges:
               1
     1  C   -0.309346
     2  C   -0.298757
     3  C   -0.475799
     4  H    0.148210
     5  H    0.163619
     6  H    0.151299
     7  H    0.151131
     8  H    0.155581
     9  H    0.154844
    10  H    0.159801
    11  C   -0.297521
    12  C   -0.303699
    13  C   -0.475498
    14  H    0.149280
    15  H    0.148349
    16  H    0.151764
    17  H    0.155763
    18  H    0.154671
    19  H    0.155333
    20  H    0.159845
    21  C   -0.298649
    22  C   -0.301161
    23  C   -0.479738
    24  H    0.149827
    25  H    0.149474
    26  H    0.152523
    27  H    0.152951
    28  H    0.156467
    29  H    0.155442
    30  H    0.163440
    31  C   -0.298382
    32  C   -0.299685
    33  C   -0.475748
    34  H    0.149708
    35  H    0.149832
    36  H    0.151992
    37  H    0.151941
    38  H    0.155280
    39  H    0.155251
    40  H    0.160368
 Sum of Mulliken charges =  -0.00000

 Dipole moment (field-independent basis, Debye):
    X=             -0.0679    Y=             -0.0301    Z=              0.0272  Tot=              0.0791
 Quadrupole moment (field-independent basis, Debye-Ang):
   XX=            -85.3054   YY=            -85.3276   ZZ=            -84.4166
   XY=              1.1784   XZ=              0.3726   YZ=              0.0050

 Normal termination of Gaussian 16 at Thu May  6 02:16:49 2021.
