 Gaussian 16, Revision A.03,
 Gaussian 16:  EM64L-G16RevA.03 25-Dec-2016

 -------------
 #p 6-31g* mp2
 -------------

 ------------------------------------------------------
 Input file generated by CHIRIPA (05-May-2021 14:51:08)
 ------------------------------------------------------
 Symbolic Z-matrix:
 Charge =  0 Multiplicity = 1

                         Standard orientation:
 ---------------------------------------------------------------------
 Center     Atomic      Atomic             Coordinates (Angstroms)
 Number     Number       Type             X           Y           Z
 ---------------------------------------------------------------------
      1          6           0        3.634820   -0.312387   -0.000262
      2          6           0        4.934360   -0.817786   -0.627761
      3          6           0        5.200397   -2.293459   -0.328748
      4          1           0        3.675961   -0.466096    1.086764
      5          1           0        2.796876   -0.919297   -0.370267
      6          1           0        5.769434   -0.209215   -0.257748
      7          1           0        4.890199   -0.662681   -1.713398
      8          1           0        4.386836   -2.917160   -0.713087
      9          1           0        5.271066   -2.461119    0.750834
     10          1           0        6.134299   -2.633874   -0.786792
     11          6           0        3.355035    1.161154   -0.290306
     12          6           0        2.055495    1.666552    0.337193
     13          6           0        1.789458    3.142225    0.038181
     14          1           0        4.192980    1.768064    0.079699
     15          1           0        3.313894    1.314862   -1.377332
     16          1           0        2.099656    1.511447    1.422830
     17          1           0        1.220422    1.057982   -0.032819
     18          1           0        1.718789    3.309885   -1.041401
     19          1           0        2.603019    3.765927    0.422520
     20          1           0        0.855556    3.482641    0.496225
     21          6           0       -2.976128   -0.510850    0.699181
     22          6           0       -1.552206   -0.694189    0.173045
     23          6           0       -0.525664   -0.865915    1.293097
     24          1           0       -3.005254    0.364388    1.362546
     25          1           0       -3.246475   -1.379380    1.315593
     26          1           0       -1.285129    0.173782   -0.443324
     27          1           0       -1.526508   -1.568981   -0.489296
     28          1           0       -0.764706   -1.742666    1.903645
     29          1           0       -0.521955    0.010000    1.949879
     30          1           0        0.485419   -0.995442    0.894609
     31          6           0       -4.013727   -0.337916   -0.408613
     32          6           0       -5.437649   -0.154577    0.117523
     33          6           0       -6.464191    0.017149   -1.002530
     34          1           0       -3.743381    0.530614   -1.025025
     35          1           0       -3.984601   -1.213155   -1.071979
     36          1           0       -5.463347    0.720215    0.779864
     37          1           0       -5.704726   -1.022549    0.733891
     38          1           0       -6.467900   -0.858766   -1.659311
     39          1           0       -6.225149    0.893900   -1.613077
     40          1           0       -7.475274    0.146676   -0.604041
 ---------------------------------------------------------------------

 SCF Done:  E(RHF) =  -470.732152616     A.U. after   11 cycles
 E2 =    -0.1583899344D+01 EUMP2 =    -0.47231605195968D+03

 The electronic state is 1-A.
 Alpha  occ. eigenvalues --  -11.21615 -11.21606 -11.21602 -11.21497 -11.21417
 Alpha  occ. eigenvalues --  -11.21405 -11.21345 -11.21343 -11.21078 -11.21072
 Alpha  occ. eigenvalues --  -11.21050 -11.20942  -1.08461  -1.08399  -1.03577
 Alpha  occ. eigenvalues --   -1.03463  -0.95983  -0.95958  -0.87031  -0.86944
 Alpha  occ. eigenvalues --   -0.79645  -0.79535  -0.78252  -0.78243  -0.65140
 Alpha  occ. eigenvalues --   -0.65003  -0.61074  -0.60802  -0.59490  -0.59191
 Alpha  occ. eigenvalues --   -0.57607  -0.57565  -0.55301  -0.55210  -0.52813
 Alpha  occ. eigenvalues --   -0.52549  -0.52408  -0.52367  -0.49929  -0.49902
 Alpha  occ. eigenvalues --   -0.47913  -0.47863  -0.46706  -0.46534  -0.45791
 Alpha  occ. eigenvalues --   -0.45769  -0.45725  -0.45601  -0.43799  -0.43686
 Alpha virt. eigenvalues --    0.21407   0.23085   0.23709   0.24406   0.26139
 Alpha virt. eigenvalues --    0.26387   0.26530   0.27536   0.27700   0.29319
 Alpha virt. eigenvalues --    0.30444   0.31064   0.31723   0.31967   0.32323

 Mulliken charges:
               1
     1  C   -0.301482
     2  C   -0.299434
     3  C   -0.475761
     4  H    0.150393
     5  H    0.150956
     6  H    0.152188
     7  H    0.151981
     8  H    0.155116
     9  H    0.155352
    10  H    0.160322
    11  C   -0.297893
    12  C   -0.306698
    13  C   -0.475385
    14  H    0.149313
    15  H    0.149184
    16  H    0.152190
    17  H    0.162081
    18  H    0.154656
    19  H    0.154954
    20  H    0.159344
    21  C   -0.297940
    22  C   -0.303466
    23  C   -0.481812
    24  H    0.149718
    25  H    0.149787
    26  H    0.152994
    27  H    0.151600
    28  H    0.154847
    29  H    0.156178
    30  H    0.166880
    31  C   -0.298322
    32  C   -0.299653
    33  C   -0.475708
    34  H    0.149454
    35  H    0.149556
    36  H    0.151958
    37  H    0.151955
    38  H    0.155147
    39  H    0.155181
    40  H    0.160268
 Sum of Mulliken charges =  -0.00000

 Dipole moment (field-independent basis, Debye):
    X=              0.0158    Y=             -0.0102    Z=              0.0071  Tot=              0.0201
 Quadrupole moment (field-independent basis, Debye-Ang):
   XX=            -85.3780   YY=            -84.9274   ZZ=            -84.5772
   XY=              0.6844   XZ=             -0.1711   YZ=              0.5127

 Normal termination of Gaussian 16 at Wed May  5 21:18:40 2021.
