 Gaussian 16, Revision A.03,
 Gaussian 16:  EM64L-G16RevA.03 25-Dec-2016

 -------------
 #p 6-31g* mp2
 -------------

 ------------------------------------------------------
 Input file generated by CHIRIPA (05-May-2021 14:51:10)
 ------------------------------------------------------
 Symbolic Z-matrix:
 Charge =  0 Multiplicity = 1

                         Standard orientation:
 ---------------------------------------------------------------------
 Center     Atomic      Atomic             Coordinates (Angstroms)
 Number     Number       Type             X           Y           Z
 ---------------------------------------------------------------------
      1          6           0        3.264512   -0.078914    0.102724
      2          6           0        2.245369   -1.028397    0.733450
      3          6           0        0.829165   -0.452191    0.745630
      4          1           0        3.258892    0.872398    0.652196
      5          1           0        2.952785    0.152069   -0.925317
      6          1           0        2.559657   -1.258615    1.759529
      7          1           0        2.253552   -1.977626    0.182531
      8          1           0        0.491212   -0.239028   -0.273659
      9          1           0        0.799057    0.484069    1.312299
     10          1           0        0.116818   -1.147322    1.200838
     11          6           0        4.684916   -0.640875    0.083233
     12          6           0        5.704059    0.308607   -0.547493
     13          6           0        7.120262   -0.267598   -0.559673
     14          1           0        4.996642   -0.871858    1.111274
     15          1           0        4.690536   -1.592187   -0.466239
     16          1           0        5.695875    1.257837    0.003426
     17          1           0        5.389770    0.538826   -1.573572
     18          1           0        7.150371   -1.203858   -1.126342
     19          1           0        7.458215   -0.480761    0.459616
     20          1           0        7.832609    0.427533   -1.014881
     21          6           0       -4.627777    0.100580   -0.392473
     22          6           0       -5.009590   -1.295022    0.101993
     23          6           0       -6.318383   -1.800082   -0.506093
     24          1           0       -5.439172    0.801819   -0.154055
     25          1           0       -4.541556    0.083047   -1.487761
     26          1           0       -5.093712   -1.275191    1.196134
     27          1           0       -4.197107   -1.992984   -0.137460
     28          1           0       -6.242809   -1.848459   -1.597216
     29          1           0       -7.144508   -1.126587   -0.256046
     30          1           0       -6.572337   -2.799377   -0.138972
     31          6           0       -3.321651    0.619209    0.206516
     32          6           0       -2.939837    2.014812   -0.287950
     33          6           0       -1.631044    2.519871    0.320137
     34          1           0       -3.407872    0.636742    1.301803
     35          1           0       -2.510254   -0.082031   -0.031902
     36          1           0       -3.752320    2.712772   -0.048498
     37          1           0       -2.855716    1.994980   -1.382092
     38          1           0       -0.804919    1.846377    0.070088
     39          1           0       -1.706618    2.568248    1.411260
     40          1           0       -1.377091    3.519165   -0.046984
 ---------------------------------------------------------------------

 SCF Done:  E(RHF) =  -470.732545106     A.U. after   11 cycles
 E2 =    -0.1583133241D+01 EUMP2 =    -0.47231567834694D+03

 The electronic state is 1-A.
 Alpha  occ. eigenvalues --  -11.21623 -11.21611 -11.21558 -11.21492 -11.21424
 Alpha  occ. eigenvalues --  -11.21364 -11.21325 -11.21250 -11.21103 -11.21079
 Alpha  occ. eigenvalues --  -11.21039 -11.20850  -1.08453  -1.08345  -1.03570
 Alpha  occ. eigenvalues --   -1.03431  -0.96035  -0.95869  -0.87076  -0.86872
 Alpha  occ. eigenvalues --   -0.79714  -0.79437  -0.78283  -0.78129  -0.65085
 Alpha  occ. eigenvalues --   -0.64979  -0.60962  -0.60850  -0.59381  -0.59260
 Alpha  occ. eigenvalues --   -0.57763  -0.57398  -0.55300  -0.55190  -0.52725
 Alpha  occ. eigenvalues --   -0.52661  -0.52576  -0.52111  -0.49956  -0.49830
 Alpha  occ. eigenvalues --   -0.48129  -0.47622  -0.46658  -0.46514  -0.45882
 Alpha  occ. eigenvalues --   -0.45735  -0.45651  -0.45487  -0.43792  -0.43696
 Alpha virt. eigenvalues --    0.22037   0.22971   0.23711   0.24708   0.26026
 Alpha virt. eigenvalues --    0.26545   0.27098   0.27333   0.27981   0.29375
 Alpha virt. eigenvalues --    0.30623   0.31373   0.31604   0.31872   0.32192

 Mulliken charges:
               1
     1  C   -0.298492
     2  C   -0.300337
     3  C   -0.479088
     4  H    0.150016
     5  H    0.149247
     6  H    0.152138
     7  H    0.151735
     8  H    0.154672
     9  H    0.159705
    10  H    0.161591
    11  C   -0.298249
    12  C   -0.299662
    13  C   -0.475722
    14  H    0.149619
    15  H    0.149624
    16  H    0.152081
    17  H    0.151919
    18  H    0.155158
    19  H    0.155216
    20  H    0.160310
    21  C   -0.298128
    22  C   -0.299536
    23  C   -0.475625
    24  H    0.149478
    25  H    0.149112
    26  H    0.151779
    27  H    0.151689
    28  H    0.155058
    29  H    0.155136
    30  H    0.160031
    31  C   -0.301189
    32  C   -0.299172
    33  C   -0.483239
    34  H    0.149028
    35  H    0.153606
    36  H    0.151198
    37  H    0.150816
    38  H    0.166385
    39  H    0.153491
    40  H    0.158602
 Sum of Mulliken charges =  -0.00000

 Dipole moment (field-independent basis, Debye):
    X=              0.0636    Y=             -0.0285    Z=              0.0194  Tot=              0.0724
 Quadrupole moment (field-independent basis, Debye-Ang):
   XX=            -86.7323   YY=            -84.9532   ZZ=            -83.4483
   XY=             -0.2031   XZ=             -0.4746   YZ=              0.5199

 Normal termination of Gaussian 16 at Wed May  5 18:11:10 2021.
