 Gaussian 16, Revision A.03,
 Gaussian 16:  EM64L-G16RevA.03 25-Dec-2016

 -------------
 #p 6-31g* mp2
 -------------

 ------------------------------------------------------
 Input file generated by CHIRIPA (05-May-2021 14:57:26)
 ------------------------------------------------------
 Symbolic Z-matrix:
 Charge =  0 Multiplicity = 1

                         Standard orientation:
 ---------------------------------------------------------------------
 Center     Atomic      Atomic             Coordinates (Angstroms)
 Number     Number       Type             X           Y           Z
 ---------------------------------------------------------------------
      1          6           0       -6.425640    0.624779   -0.979918
      2          6           0       -5.344644    1.505483   -0.868885
      3          6           0       -4.136837    1.079931   -0.307944
      4          6           0       -4.044467   -0.239058    0.133676
      5          6           0       -5.103529   -1.140332    0.036810
      6          6           0       -6.301851   -0.692995   -0.527513
      7          1           0       -7.360210    0.963820   -1.416984
      8          1           0       -5.437917    2.529444   -1.219384
      9          1           0       -3.284117    1.740735   -0.209845
     10          1           0       -4.980372   -2.155163    0.395095
     11          1           0       -7.139706   -1.379163   -0.612470
     12          7           0       -2.770837   -0.701103    0.729309
     13          8           0       -2.714937   -1.868117    1.110871
     14          8           0       -1.852581    0.112510    0.803327
     15          6           0        2.715760    2.011272    0.727467
     16          6           0        2.283125    0.681541    0.761562
     17          6           0        3.127133   -0.350706    0.341244
     18          6           0        4.403124   -0.015786   -0.109269
     19          6           0        4.863181    1.299330   -0.155175
     20          6           0        4.002140    2.315386    0.270014
     21          1           0        2.053499    2.806857    1.055872
     22          1           0        1.284630    0.442408    1.116339
     23          1           0        2.817800   -1.388723    0.357108
     24          1           0        5.864047    1.506598   -0.513958
     25          1           0        4.340813    3.347173    0.242432
     26          7           0        5.305654   -1.100009   -0.556820
     27          8           0        6.425149   -0.778678   -0.949396
     28          8           0        4.876474   -2.250624   -0.506557
 ---------------------------------------------------------------------

 SCF Done:  E(RHF) =  -868.340135227     A.U. after   16 cycles
 E2 =    -0.2598236330D+01 EUMP2 =    -0.87093837155741D+03

 The electronic state is 1-A.
 Alpha  occ. eigenvalues --  -20.61667 -20.61633 -20.60039 -20.60025 -15.86680
 Alpha  occ. eigenvalues --  -15.85077 -11.31803 -11.30296 -11.28363 -11.28319
 Alpha  occ. eigenvalues --  -11.28032 -11.27309 -11.27281 -11.26883 -11.26721
 Alpha  occ. eigenvalues --  -11.26522 -11.25912 -11.25575  -1.60707  -1.59113
 Alpha  occ. eigenvalues --   -1.40269  -1.38669  -1.19949  -1.18432  -1.09388
 Alpha  occ. eigenvalues --   -1.07859  -1.05317  -1.03783  -0.96265  -0.94725
 Alpha  occ. eigenvalues --   -0.86726  -0.85188  -0.83110  -0.81541  -0.78183
 Alpha  occ. eigenvalues --   -0.76605  -0.72919  -0.72004  -0.71300  -0.71055
 Alpha  occ. eigenvalues --   -0.70433  -0.69555  -0.65608  -0.65318  -0.64071
 Alpha  occ. eigenvalues --   -0.63736  -0.62670  -0.61104  -0.55823  -0.54314
 Alpha  occ. eigenvalues --   -0.53656  -0.53407  -0.52162  -0.51836  -0.49680
 Alpha  occ. eigenvalues --   -0.49632  -0.48064  -0.48041  -0.45724  -0.44107
 Alpha  occ. eigenvalues --   -0.37910  -0.36908  -0.36431  -0.35387
 Alpha virt. eigenvalues --    0.04343   0.05877   0.10751   0.12257   0.15887
 Alpha virt. eigenvalues --    0.17419   0.20899   0.22479   0.26831   0.27703
 Alpha virt. eigenvalues --    0.28557   0.29207   0.30497   0.31852   0.32157

 Mulliken charges:
               1
     1  C   -0.169832
     2  C   -0.218346
     3  C   -0.170267
     4  C    0.157995
     5  C   -0.169999
     6  C   -0.218456
     7  H    0.227722
     8  H    0.224550
     9  H    0.273004
    10  H    0.277133
    11  H    0.225722
    12  N    0.491804
    13  O   -0.455821
    14  O   -0.472452
    15  C   -0.173328
    16  C   -0.227051
    17  C   -0.173778
    18  C    0.158178
    19  C   -0.173462
    20  C   -0.218762
    21  H    0.223447
    22  H    0.249413
    23  H    0.277880
    24  H    0.272088
    25  H    0.219028
    26  N    0.487992
    27  O   -0.463770
    28  O   -0.460634
 Sum of Mulliken charges =  -0.00000

 Dipole moment (field-independent basis, Debye):
    X=             -8.2486    Y=              5.3194    Z=             -0.4850  Tot=              9.8270
 Quadrupole moment (field-independent basis, Debye-Ang):
   XX=            -94.3191   YY=            -99.8893   ZZ=           -107.0447
   XY=             16.0080   XZ=             14.5836   YZ=             -1.3766

 Normal termination of Gaussian 16 at Thu May  6 19:43:22 2021.
