 Gaussian 16, Revision A.03,
 Gaussian 16:  EM64L-G16RevA.03 25-Dec-2016

 -------------
 #p 6-31g* mp2
 -------------

 ------------------------------------------------------
 Input file generated by CHIRIPA (05-May-2021 14:53:11)
 ------------------------------------------------------
 Symbolic Z-matrix:
 Charge =  0 Multiplicity = 1

                         Standard orientation:
 ---------------------------------------------------------------------
 Center     Atomic      Atomic             Coordinates (Angstroms)
 Number     Number       Type             X           Y           Z
 ---------------------------------------------------------------------
      1          6           0       -3.909355    0.423503    0.067934
      2          6           0       -4.097738   -1.017864   -0.406364
      3          6           0       -5.569900   -1.411736   -0.530451
      4          1           0       -4.407707    0.551472    1.038611
      5          1           0       -4.413491    1.102013   -0.634110
      6          1           0       -3.592221   -1.693359    0.295615
      7          1           0       -3.598716   -1.142468   -1.375935
      8          1           0       -6.083623   -0.761631   -1.246031
      9          1           0       -6.077091   -1.315652    0.435016
     10          1           0       -5.681477   -2.445920   -0.870853
     11          6           0       -2.443013    0.832085    0.196891
     12          6           0       -2.254629    2.273451    0.671189
     13          6           0       -0.782467    2.667323    0.795276
     14          1           0       -1.938876    0.153575    0.898935
     15          1           0       -1.944661    0.704115   -0.773786
     16          1           0       -2.753651    2.398056    1.640760
     17          1           0       -2.760147    2.948947   -0.030790
     18          1           0       -0.275276    2.571240   -0.170191
     19          1           0       -0.268744    2.017219    1.510856
     20          1           0       -0.670890    3.701507    1.135678
     21          6           0        3.719659    1.644611   -0.626971
     22          6           0        2.350464    1.545673   -0.895368
     23          6           0        1.654196    0.367549   -0.609391
     24          6           0        2.361683   -0.696876   -0.052835
     25          6           0        3.725827   -0.629059    0.226094
     26          6           0        4.401768    0.558844   -0.068082
     27          1           0        4.252641    2.563604   -0.852309
     28          1           0        1.818151    2.387290   -1.329383
     29          1           0        0.594195    0.263814   -0.807013
     30          1           0        4.229289   -1.484936    0.659014
     31          1           0        5.465101    0.632835    0.141426
     32          7           0        1.635334   -1.949278    0.254256
     33          8           0        2.281574   -2.872759    0.744352
     34          8           0        0.433537   -1.983716   -0.000958
 ---------------------------------------------------------------------

 SCF Done:  E(RHF) =  -669.533939943     A.U. after   15 cycles
 E2 =    -0.2093849555D+01 EUMP2 =    -0.67162778949752D+03

 The electronic state is 1-A.
 Alpha  occ. eigenvalues --  -20.60758 -20.60752 -15.85800 -11.31107 -11.27687
 Alpha  occ. eigenvalues --  -11.27627 -11.27426 -11.26694 -11.26656 -11.21765
 Alpha  occ. eigenvalues --  -11.21538 -11.21312 -11.21160 -11.21064 -11.20655
 Alpha  occ. eigenvalues --   -1.59829  -1.39382  -1.19290  -1.08696  -1.08318
 Alpha  occ. eigenvalues --   -1.04702  -1.03444  -0.95943  -0.95535  -0.86976
 Alpha  occ. eigenvalues --   -0.86088  -0.82383  -0.79552  -0.78114  -0.77357
 Alpha  occ. eigenvalues --   -0.72018  -0.71149  -0.70406  -0.65029  -0.64885
 Alpha  occ. eigenvalues --   -0.64714  -0.62128  -0.60806  -0.59317  -0.57521
 Alpha  occ. eigenvalues --   -0.55281  -0.55170  -0.53149  -0.52847  -0.52576
 Alpha  occ. eigenvalues --   -0.52237  -0.49895  -0.48780  -0.48777  -0.47808
 Alpha  occ. eigenvalues --   -0.46544  -0.45617  -0.45489  -0.44760  -0.43680
 Alpha  occ. eigenvalues --   -0.37278  -0.36216
 Alpha virt. eigenvalues --    0.05092   0.11312   0.16520   0.20303   0.23186
 Alpha virt. eigenvalues --    0.24250   0.25770   0.26631   0.27264   0.28404
 Alpha virt. eigenvalues --    0.29368   0.30032   0.31578   0.31995   0.32145

 Mulliken charges:
               1
     1  C   -0.298126
     2  C   -0.300251
     3  C   -0.476128
     4  H    0.149673
     5  H    0.146652
     6  H    0.162172
     7  H    0.153016
     8  H    0.152343
     9  H    0.154034
    10  H    0.161799
    11  C   -0.304117
    12  C   -0.299524
    13  C   -0.476330
    14  H    0.164117
    15  H    0.142691
    16  H    0.154586
    17  H    0.150536
    18  H    0.140585
    19  H    0.161331
    20  H    0.160591
    21  C   -0.171154
    22  C   -0.220087
    23  C   -0.171635
    24  C    0.153775
    25  C   -0.170619
    26  C   -0.219327
    27  H    0.225340
    28  H    0.223994
    29  H    0.286138
    30  H    0.275102
    31  H    0.223003
    32  N    0.487667
    33  O   -0.460443
    34  O   -0.461403
 Sum of Mulliken charges =  -0.00000

 Dipole moment (field-independent basis, Debye):
    X=              2.4938    Y=              4.2805    Z=             -0.9682  Tot=              5.0477
 Quadrupole moment (field-independent basis, Debye-Ang):
   XX=            -80.4506   YY=           -100.9651   ZZ=            -93.8573
   XY=              6.7310   XZ=             -1.4313   YZ=             -0.5775

 Normal termination of Gaussian 16 at Wed May  5 20:05:30 2021.
