 Gaussian 16, Revision A.03,
 Gaussian 16:  EM64L-G16RevA.03 25-Dec-2016

 -------------
 #p 6-31g* mp2
 -------------

 ------------------------------------------------------
 Input file generated by CHIRIPA (05-May-2021 14:57:21)
 ------------------------------------------------------
 Symbolic Z-matrix:
 Charge =  0 Multiplicity = 1

                         Standard orientation:
 ---------------------------------------------------------------------
 Center     Atomic      Atomic             Coordinates (Angstroms)
 Number     Number       Type             X           Y           Z
 ---------------------------------------------------------------------
      1          6           0       -1.292018   -1.267629    0.089101
      2          6           0       -1.446843   -0.177688   -0.773790
      3          6           0       -2.664619    0.505496   -0.843278
      4          6           0       -3.711276    0.069827   -0.032111
      5          6           0       -3.588086   -1.012577    0.837668
      6          6           0       -2.361249   -1.680866    0.890663
      7          1           0       -0.342501   -1.792557    0.136675
      8          1           0       -0.618188    0.145452   -1.397454
      9          1           0       -2.811890    1.352406   -1.502422
     10          1           0       -4.432299   -1.311359    1.447136
     11          1           0       -2.243883   -2.527001    1.561725
     12          7           0       -5.005278    0.785198   -0.096945
     13          8           0       -5.912044    0.381667    0.628021
     14          8           0       -5.088248    1.735892   -0.871499
     15          6           0        4.105130    2.406324    0.681725
     16          6           0        3.731919    1.479416    1.660537
     17          6           0        3.393492    0.170044    1.306191
     18          6           0        3.439315   -0.179912   -0.042409
     19          6           0        3.807096    0.720723   -1.040850
     20          6           0        4.141464    2.024692   -0.663474
     21          1           0        4.366451    3.421376    0.965934
     22          1           0        3.702811    1.772996    2.706008
     23          1           0        3.100983   -0.567714    2.043462
     24          1           0        3.826734    0.398564   -2.074893
     25          1           0        4.430930    2.742426   -1.425781
     26          7           0        3.083187   -1.563224   -0.429731
     27          8           0        3.131473   -1.846626   -1.624715
     28          8           0        2.762510   -2.337870    0.469006
 ---------------------------------------------------------------------

 SCF Done:  E(RHF) =  -868.339725678     A.U. after   16 cycles
 E2 =    -0.2598829657D+01 EUMP2 =    -0.87093855533567D+03

 The electronic state is 1-A.
 Alpha  occ. eigenvalues --  -20.61986 -20.61964 -20.60501 -20.60495 -15.86992
 Alpha  occ. eigenvalues --  -15.85552 -11.32104 -11.30802 -11.28630 -11.28626
 Alpha  occ. eigenvalues --  -11.28287 -11.27563 -11.27550 -11.27389 -11.27363
 Alpha  occ. eigenvalues --  -11.26934 -11.26328 -11.26285  -1.61051  -1.59580
 Alpha  occ. eigenvalues --   -1.40605  -1.39137  -1.20243  -1.18957  -1.09680
 Alpha  occ. eigenvalues --   -1.08343  -1.05595  -1.04354  -0.96555  -0.95200
 Alpha  occ. eigenvalues --   -0.87003  -0.85739  -0.83387  -0.82048  -0.78477
 Alpha  occ. eigenvalues --   -0.77139  -0.73198  -0.72395  -0.71770  -0.71323
 Alpha  occ. eigenvalues --   -0.70904  -0.69963  -0.65885  -0.65577  -0.64596
 Alpha  occ. eigenvalues --   -0.64343  -0.62940  -0.61712  -0.56081  -0.54735
 Alpha  occ. eigenvalues --   -0.53947  -0.53670  -0.52682  -0.52433  -0.49983
 Alpha  occ. eigenvalues --   -0.49940  -0.48533  -0.48518  -0.46043  -0.44569
 Alpha  occ. eigenvalues --   -0.38203  -0.37190  -0.36887  -0.35976
 Alpha virt. eigenvalues --    0.03995   0.05407   0.10459   0.11690   0.15540
 Alpha virt. eigenvalues --    0.16942   0.20673   0.21876   0.26617   0.27437
 Alpha virt. eigenvalues --    0.27679   0.28698   0.30412   0.31256   0.32111

 Mulliken charges:
               1
     1  C   -0.177584
     2  C   -0.219640
     3  C   -0.171762
     4  C    0.157439
     5  C   -0.171600
     6  C   -0.220483
     7  H    0.241029
     8  H    0.221709
     9  H    0.273035
    10  H    0.274164
    11  H    0.225192
    12  N    0.488215
    13  O   -0.461447
    14  O   -0.462364
    15  C   -0.169501
    16  C   -0.217835
    17  C   -0.171146
    18  C    0.154745
    19  C   -0.173178
    20  C   -0.218488
    21  H    0.229479
    22  H    0.226889
    23  H    0.275577
    24  H    0.276357
    25  H    0.226579
    26  N    0.485283
    27  O   -0.456722
    28  O   -0.463942
 Sum of Mulliken charges =  -0.00000

 Dipole moment (field-independent basis, Debye):
    X=              6.1835    Y=              2.4107    Z=              1.6439  Tot=              6.8374
 Quadrupole moment (field-independent basis, Debye-Ang):
   XX=           -130.4768   YY=           -105.4033   ZZ=            -98.2915
   XY=             28.7567   XZ=              1.2954   YZ=             -3.9350

 Normal termination of Gaussian 16 at Thu May  6 12:48:32 2021.
