 Gaussian 16, Revision A.03,
 Gaussian 16:  EM64L-G16RevA.03 25-Dec-2016

 -------------
 #p 6-31g* mp2
 -------------

 ------------------------------------------------------
 Input file generated by CHIRIPA (05-May-2021 14:53:18)
 ------------------------------------------------------
 Symbolic Z-matrix:
 Charge =  0 Multiplicity = 1

                         Standard orientation:
 ---------------------------------------------------------------------
 Center     Atomic      Atomic             Coordinates (Angstroms)
 Number     Number       Type             X           Y           Z
 ---------------------------------------------------------------------
      1          6           0       -2.905197    1.200373   -0.128143
      2          6           0       -1.740503    2.190226   -0.087373
      3          6           0       -2.185694    3.613280    0.251028
      4          1           0       -3.642101    1.541312   -0.868196
      5          1           0       -3.414933    1.204381    0.845278
      6          1           0       -1.232268    2.183335   -1.060135
      7          1           0       -1.006195    1.846789    0.652532
      8          1           0       -2.674011    3.641511    1.230493
      9          1           0       -2.901368    3.979969   -0.491905
     10          1           0       -1.337346    4.304365    0.274847
     11          6           0       -2.476054   -0.226502   -0.465176
     12          6           0       -3.640749   -1.216355   -0.505946
     13          6           0       -3.195557   -2.639409   -0.844347
     14          1           0       -1.966318   -0.230510   -1.438598
     15          1           0       -1.739150   -0.567441    0.274877
     16          1           0       -4.375056   -0.872918   -1.245851
     17          1           0       -4.148984   -1.209464    0.466816
     18          1           0       -2.479883   -3.006098   -0.101414
     19          1           0       -2.707240   -2.667640   -1.823812
     20          1           0       -4.043906   -3.330494   -0.868166
     21          6           0        3.661224    0.813391   -1.352445
     22          6           0        3.302978    1.411211   -0.139683
     23          6           0        2.439800    0.758945    0.745766
     24          6           0        1.951316   -0.495831    0.384921
     25          6           0        2.289669   -1.117525   -0.816039
     26          6           0        3.154320   -0.446848   -1.686164
     27          1           0        4.332334    1.327239   -2.034331
     28          1           0        3.695116    2.389852    0.122110
     29          1           0        2.146067    1.198753    1.691127
     30          1           0        1.882631   -2.093893   -1.049375
     31          1           0        3.430820   -0.913534   -2.627332
     32          7           0        1.036729   -1.196102    1.314195
     33          8           0        0.619997   -2.300878    0.972961
     34          8           0        0.753924   -0.626938    2.366199
 ---------------------------------------------------------------------

 SCF Done:  E(RHF) =  -669.536593991     A.U. after   15 cycles
 E2 =    -0.2092751292D+01 EUMP2 =    -0.67162934528264D+03

 The electronic state is 1-A.
 Alpha  occ. eigenvalues --  -20.60981 -20.60973 -15.85984 -11.31266 -11.27832
 Alpha  occ. eigenvalues --  -11.27821 -11.27563 -11.26829 -11.26819 -11.21277
 Alpha  occ. eigenvalues --  -11.20881 -11.20872 -11.20868 -11.20692 -11.20163
 Alpha  occ. eigenvalues --   -1.60033  -1.39587  -1.19432  -1.08847  -1.07870
 Alpha  occ. eigenvalues --   -1.04823  -1.02977  -0.95697  -0.95422  -0.86441
 Alpha  occ. eigenvalues --   -0.86226  -0.82534  -0.79068  -0.77702  -0.77580
 Alpha  occ. eigenvalues --   -0.72214  -0.71349  -0.70546  -0.65091  -0.64830
 Alpha  occ. eigenvalues --   -0.64475  -0.62174  -0.60363  -0.58830  -0.57037
 Alpha  occ. eigenvalues --   -0.55336  -0.54687  -0.53152  -0.52918  -0.52146
 Alpha  occ. eigenvalues --   -0.51847  -0.49349  -0.48983  -0.48979  -0.47387
 Alpha  occ. eigenvalues --   -0.46119  -0.45258  -0.45127  -0.44867  -0.43235
 Alpha  occ. eigenvalues --   -0.37402  -0.36412
 Alpha virt. eigenvalues --    0.04896   0.11180   0.16383   0.21288   0.23365
 Alpha virt. eigenvalues --    0.24834   0.26638   0.27374   0.27560   0.28312
 Alpha virt. eigenvalues --    0.28748   0.31035   0.31544   0.32117   0.32264

 Mulliken charges:
               1
     1  C   -0.296943
     2  C   -0.302091
     3  C   -0.474955
     4  H    0.146772
     5  H    0.152490
     6  H    0.148060
     7  H    0.153801
     8  H    0.157305
     9  H    0.154305
    10  H    0.155207
    11  C   -0.304404
    12  C   -0.298168
    13  C   -0.480376
    14  H    0.143037
    15  H    0.162290
    16  H    0.147240
    17  H    0.153700
    18  H    0.173178
    19  H    0.148426
    20  H    0.156284
    21  C   -0.170428
    22  C   -0.218542
    23  C   -0.170167
    24  C    0.159004
    25  C   -0.170315
    26  C   -0.218749
    27  H    0.225907
    28  H    0.223789
    29  H    0.275622
    30  H    0.276095
    31  H    0.223726
    32  N    0.487978
    33  O   -0.459009
    34  O   -0.460071
 Sum of Mulliken charges =  -0.00000

 Dipole moment (field-independent basis, Debye):
    X=              3.3615    Y=              2.3388    Z=             -3.1360  Tot=              5.1579
 Quadrupole moment (field-independent basis, Debye-Ang):
   XX=            -83.1093   YY=            -95.9024   ZZ=            -94.8744
   XY=              3.8810   XZ=             -5.4288   YZ=              4.8598

 Normal termination of Gaussian 16 at Thu May  6 07:37:08 2021.
