 Gaussian 16, Revision A.03,
 Gaussian 16:  EM64L-G16RevA.03 25-Dec-2016

 -------------
 #p 6-31g* mp2
 -------------

 ------------------------------------------------------
 Input file generated by CHIRIPA (05-May-2021 14:53:13)
 ------------------------------------------------------
 Symbolic Z-matrix:
 Charge =  0 Multiplicity = 1

                         Standard orientation:
 ---------------------------------------------------------------------
 Center     Atomic      Atomic             Coordinates (Angstroms)
 Number     Number       Type             X           Y           Z
 ---------------------------------------------------------------------
      1          6           0        4.747578   -0.306501    0.402563
      2          6           0        4.993661   -1.582057   -0.403902
      3          6           0        5.905632   -2.572719    0.320453
      4          1           0        5.711494    0.172905    0.621611
      5          1           0        4.303945   -0.573613    1.371705
      6          1           0        5.435420   -1.312511   -1.371791
      7          1           0        4.029034   -2.058380   -0.621220
      8          1           0        5.467253   -2.870346    1.278494
      9          1           0        6.881630   -2.120240    0.523658
     10          1           0        6.068171   -3.477272   -0.273874
     11          6           0        3.837699    0.693680   -0.308412
     12          6           0        3.591616    1.969236    0.498053
     13          6           0        2.679645    2.959898   -0.226302
     14          1           0        4.281332    0.960792   -1.277554
     15          1           0        2.873783    0.214275   -0.527460
     16          1           0        4.556243    2.445559    0.715371
     17          1           0        3.149857    1.699691    1.465942
     18          1           0        1.703647    2.507419   -0.429507
     19          1           0        3.118024    3.257526   -1.184343
     20          1           0        2.517106    3.864452    0.368025
     21          6           0       -0.916727    0.439290   -0.317365
     22          6           0       -1.325316   -0.896826   -0.383483
     23          6           0       -2.672913   -1.235647   -0.229441
     24          6           0       -3.589215   -0.208332   -0.009652
     25          6           0       -3.213218    1.132144    0.061339
     26          6           0       -1.860318    1.447733   -0.095556
     27          1           0        0.132178    0.693470   -0.438138
     28          1           0       -0.594713   -1.682084   -0.555631
     29          1           0       -3.016662   -2.261842   -0.276111
     30          1           0       -3.964735    1.892925    0.234121
     31          1           0       -1.545879    2.486235   -0.043735
     32          7           0       -5.018661   -0.554730    0.154937
     33          8           0       -5.806323    0.368913    0.347579
     34          8           0       -5.324334   -1.743319    0.088183
 ---------------------------------------------------------------------

 SCF Done:  E(RHF) =  -669.535322419     A.U. after   15 cycles
 E2 =    -0.2091396299D+01 EUMP2 =    -0.67162671871765D+03

 The electronic state is 1-A.
 Alpha  occ. eigenvalues --  -20.60739 -20.60734 -15.85793 -11.31156 -11.27728
 Alpha  occ. eigenvalues --  -11.27723 -11.27450 -11.26744 -11.26728 -11.22677
 Alpha  occ. eigenvalues --  -11.22502 -11.22383 -11.22343 -11.22241 -11.21698
 Alpha  occ. eigenvalues --   -1.59815  -1.39369  -1.19329  -1.09407  -1.08725
 Alpha  occ. eigenvalues --   -1.04733  -1.04478  -0.96938  -0.95562  -0.87950
 Alpha  occ. eigenvalues --   -0.86130  -0.82397  -0.80543  -0.79201  -0.77440
 Alpha  occ. eigenvalues --   -0.72011  -0.71138  -0.70477  -0.66044  -0.64983
 Alpha  occ. eigenvalues --   -0.64738  -0.62086  -0.61878  -0.60310  -0.58534
 Alpha  occ. eigenvalues --   -0.56279  -0.55226  -0.53606  -0.53349  -0.53062
 Alpha  occ. eigenvalues --   -0.52824  -0.50887  -0.48853  -0.48767  -0.48764
 Alpha  occ. eigenvalues --   -0.47576  -0.46746  -0.46644  -0.44775  -0.44730
 Alpha  occ. eigenvalues --   -0.37308  -0.36338
 Alpha virt. eigenvalues --    0.05096   0.11316   0.16584   0.18246   0.22516
 Alpha virt. eigenvalues --    0.23619   0.25048   0.25681   0.26384   0.27926
 Alpha virt. eigenvalues --    0.29126   0.30279   0.30821   0.31145   0.31305

 Mulliken charges:
               1
     1  C   -0.299073
     2  C   -0.299479
     3  C   -0.476315
     4  H    0.153106
     5  H    0.150770
     6  H    0.153705
     7  H    0.148547
     8  H    0.156099
     9  H    0.157017
    10  H    0.162268
    11  C   -0.299494
    12  C   -0.301476
    13  C   -0.478169
    14  H    0.153391
    15  H    0.140131
    16  H    0.157496
    17  H    0.153624
    18  H    0.143389
    19  H    0.160703
    20  H    0.165077
    21  C   -0.179351
    22  C   -0.220152
    23  C   -0.170663
    24  C    0.158158
    25  C   -0.170648
    26  C   -0.221562
    27  H    0.237675
    28  H    0.223159
    29  H    0.275434
    30  H    0.275561
    31  H    0.224073
    32  N    0.487990
    33  O   -0.460478
    34  O   -0.460516
 Sum of Mulliken charges =  -0.00000

 Dipole moment (field-independent basis, Debye):
    X=              5.3299    Y=              1.2643    Z=             -0.5428  Tot=              5.5046
 Quadrupole moment (field-independent basis, Debye-Ang):
   XX=           -129.6876   YY=            -90.6990   ZZ=            -95.5109
   XY=             -5.6298   XZ=              1.3643   YZ=              0.9342

 Normal termination of Gaussian 16 at Thu May  6 13:43:13 2021.
