 Gaussian 16, Revision A.03,
 Gaussian 16:  EM64L-G16RevA.03 25-Dec-2016

 -------------
 #p 6-31g* mp2
 -------------

 ------------------------------------------------------
 Input file generated by CHIRIPA (05-May-2021 14:55:20)
 ------------------------------------------------------
 Symbolic Z-matrix:
 Charge =  0 Multiplicity = 1

                         Standard orientation:
 ---------------------------------------------------------------------
 Center     Atomic      Atomic             Coordinates (Angstroms)
 Number     Number       Type             X           Y           Z
 ---------------------------------------------------------------------
      1          6           0        0.617986   -0.053960    1.149675
      2          6           0        1.121711    1.054825    0.461650
      3          6           0        2.405981    1.024773   -0.089980
      4          6           0        3.162632   -0.135593    0.065975
      5          6           0        2.688803   -1.256484    0.745959
      6          6           0        1.401758   -1.204048    1.289387
      7          1           0       -0.380743   -0.021920    1.575009
      8          1           0        0.515266    1.949340    0.351598
      9          1           0        2.820694    1.868879   -0.627488
     10          1           0        3.316962   -2.134046    0.839335
     11          1           0        1.013153   -2.066642    1.823206
     12          7           0        4.523699   -0.179256   -0.513670
     13          8           0        5.170364   -1.213473   -0.362487
     14          8           0        4.918068    0.821565   -1.108202
     15          6           0       -3.628456   -0.554138   -0.429513
     16          6           0       -4.796100   -1.500931   -0.149919
     17          6           0       -4.515750   -2.934642   -0.601217
     18          1           0       -3.405771   -0.564521   -1.505268
     19          1           0       -2.730253   -0.930670    0.079261
     20          1           0       -5.692164   -1.121979   -0.657935
     21          1           0       -5.016155   -1.488146    0.925269
     22          1           0       -3.637635   -3.336198   -0.085206
     23          1           0       -4.317486   -2.967951   -1.677405
     24          1           0       -5.363492   -3.594459   -0.391845
     25          6           0       -3.893621    0.882833    0.016055
     26          6           0       -2.725977    1.829625   -0.263540
     27          6           0       -3.006326    3.263337    0.187759
     28          1           0       -4.791824    1.259365   -0.492719
     29          1           0       -4.116305    0.893217    1.091810
     30          1           0       -2.505921    1.816841   -1.338728
     31          1           0       -1.829912    1.450674    0.244476
     32          1           0       -3.204591    3.296646    1.263947
     33          1           0       -3.884441    3.664893   -0.328252
     34          1           0       -2.158585    3.923154   -0.021614
 ---------------------------------------------------------------------

 SCF Done:  E(RHF) =  -669.534628591     A.U. after   15 cycles
 E2 =    -0.2092605945D+01 EUMP2 =    -0.67162723453604D+03

 The electronic state is 1-A.
 Alpha  occ. eigenvalues --  -20.60746 -20.60741 -15.85799 -11.31168 -11.27732
 Alpha  occ. eigenvalues --  -11.27720 -11.27469 -11.26760 -11.26713 -11.22744
 Alpha  occ. eigenvalues --  -11.22362 -11.22338 -11.22255 -11.22100 -11.21706
 Alpha  occ. eigenvalues --   -1.59821  -1.39375  -1.19338  -1.09375  -1.08736
 Alpha  occ. eigenvalues --   -1.04744  -1.04436  -0.96863  -0.95575  -0.87875
 Alpha  occ. eigenvalues --   -0.86150  -0.82402  -0.80526  -0.79175  -0.77443
 Alpha  occ. eigenvalues --   -0.72019  -0.71144  -0.70488  -0.66052  -0.64992
 Alpha  occ. eigenvalues --   -0.64750  -0.62173  -0.61755  -0.60230  -0.58473
 Alpha  occ. eigenvalues --   -0.56147  -0.55260  -0.53553  -0.53278  -0.53068
 Alpha  occ. eigenvalues --   -0.52834  -0.50802  -0.48847  -0.48774  -0.48740
 Alpha  occ. eigenvalues --   -0.47557  -0.46688  -0.46619  -0.44780  -0.44689
 Alpha  occ. eigenvalues --   -0.37300  -0.36333
 Alpha virt. eigenvalues --    0.05058   0.11260   0.16456   0.19308   0.22359
 Alpha virt. eigenvalues --    0.23425   0.24870   0.25844   0.26357   0.28211
 Alpha virt. eigenvalues --    0.29698   0.30060   0.30898   0.31124   0.32356

 Mulliken charges:
               1
     1  C   -0.172546
     2  C   -0.219367
     3  C   -0.171808
     4  C    0.158540
     5  C   -0.171021
     6  C   -0.219012
     7  H    0.226981
     8  H    0.227360
     9  H    0.275585
    10  H    0.275522
    11  H    0.223100
    12  N    0.488068
    13  O   -0.460446
    14  O   -0.460402
    15  C   -0.298736
    16  C   -0.300444
    17  C   -0.475663
    18  H    0.153983
    19  H    0.142939
    20  H    0.154661
    21  H    0.151468
    22  H    0.153224
    23  H    0.157624
    24  H    0.162670
    25  C   -0.299081
    26  C   -0.305923
    27  C   -0.477036
    28  H    0.154216
    29  H    0.148787
    30  H    0.157613
    31  H    0.143229
    32  H    0.156202
    33  H    0.161020
    34  H    0.158692
 Sum of Mulliken charges =  -0.00000

 Dipole moment (field-independent basis, Debye):
    X=             -5.0004    Y=              0.1609    Z=              1.9402  Tot=              5.3660
 Quadrupole moment (field-independent basis, Debye-Ang):
   XX=           -124.7064   YY=            -91.4063   ZZ=            -93.8100
   XY=              0.4125   XZ=              7.0987   YZ=             -2.6734

 Normal termination of Gaussian 16 at Thu May  6 19:07:10 2021.
