 Gaussian 16, Revision A.03,
 Gaussian 16:  EM64L-G16RevA.03 25-Dec-2016

 -------------
 #p 6-31g* mp2
 -------------

 ------------------------------------------------------
 Input file generated by CHIRIPA (05-May-2021 14:55:23)
 ------------------------------------------------------
 Symbolic Z-matrix:
 Charge =  0 Multiplicity = 1

                         Standard orientation:
 ---------------------------------------------------------------------
 Center     Atomic      Atomic             Coordinates (Angstroms)
 Number     Number       Type             X           Y           Z
 ---------------------------------------------------------------------
      1          6           0        4.995903    0.838125    0.506752
      2          6           0        5.003788   -0.560542    0.493001
      3          6           0        3.840819   -1.274159    0.188366
      4          6           0        2.682457   -0.553781   -0.098935
      5          6           0        2.642776    0.839663   -0.093352
      6          6           0        3.817500    1.532539    0.214047
      7          1           0        5.903891    1.384424    0.744473
      8          1           0        5.917498   -1.102471    0.719919
      9          1           0        3.818842   -2.357034    0.170558
     10          1           0        1.716634    1.352093   -0.323773
     11          1           0        3.808433    2.618755    0.223975
     12          7           0        1.445052   -1.298276   -0.422902
     13          8           0        0.437460   -0.640158   -0.672453
     14          8           0        1.506196   -2.525833   -0.421141
     15          6           0       -4.221946    0.206186    0.489441
     16          6           0       -4.937103   -0.938687   -0.228751
     17          6           0       -5.989191   -1.620201    0.646717
     18          1           0       -3.747182   -0.181165    1.401309
     19          1           0       -4.965435    0.947031    0.814662
     20          1           0       -4.192344   -1.676477   -0.553736
     21          1           0       -5.410059   -0.548602   -1.139115
     22          1           0       -6.753596   -0.901827    0.960126
     23          1           0       -5.528962   -2.036110    1.548832
     24          1           0       -6.488093   -2.435529    0.113617
     25          6           0       -3.167229    0.897375   -0.372855
     26          6           0       -2.452071    2.042248    0.345337
     27          6           0       -1.399984    2.723762   -0.530132
     28          1           0       -2.423740    0.156530   -0.698076
     29          1           0       -3.641994    1.284726   -1.284723
     30          1           0       -1.979116    1.652164    1.255701
     31          1           0       -3.196831    2.780038    0.670322
     32          1           0       -1.860212    3.139671   -1.432246
     33          1           0       -0.635578    2.005388   -0.843540
     34          1           0       -0.901081    3.539090    0.002969
 ---------------------------------------------------------------------

 SCF Done:  E(RHF) =  -669.536266552     A.U. after   15 cycles
 E2 =    -0.2092166746D+01 EUMP2 =    -0.67162843329721D+03

 The electronic state is 1-A.
 Alpha  occ. eigenvalues --  -20.61026 -20.61017 -15.86057 -11.31308 -11.27870
 Alpha  occ. eigenvalues --  -11.27844 -11.27598 -11.26865 -11.26848 -11.20862
 Alpha  occ. eigenvalues --  -11.20703 -11.20545 -11.20462 -11.20336 -11.20217
 Alpha  occ. eigenvalues --   -1.60085  -1.39644  -1.19474  -1.08892  -1.07510
 Alpha  occ. eigenvalues --   -1.04860  -1.02750  -0.95747  -0.95212  -0.86296
 Alpha  occ. eigenvalues --   -0.86217  -0.82586  -0.78825  -0.77660  -0.77281
 Alpha  occ. eigenvalues --   -0.72295  -0.71392  -0.70588  -0.65140  -0.64873
 Alpha  occ. eigenvalues --   -0.64102  -0.62227  -0.60122  -0.58590  -0.56824
 Alpha  occ. eigenvalues --   -0.55377  -0.54499  -0.53197  -0.52950  -0.51974
 Alpha  occ. eigenvalues --   -0.51648  -0.49319  -0.49031  -0.48842  -0.47130
 Alpha  occ. eigenvalues --   -0.45803  -0.45078  -0.44879  -0.44668  -0.42968
 Alpha  occ. eigenvalues --   -0.37454  -0.36457
 Alpha virt. eigenvalues --    0.04884   0.11195   0.16393   0.20819   0.23659
 Alpha virt. eigenvalues --    0.24535   0.26609   0.27494   0.27876   0.28666
 Alpha virt. eigenvalues --    0.29434   0.30638   0.31563   0.32241   0.32603

 Mulliken charges:
               1
     1  C   -0.169957
     2  C   -0.219163
     3  C   -0.169540
     4  C    0.154217
     5  C   -0.172495
     6  C   -0.222303
     7  H    0.226126
     8  H    0.223814
     9  H    0.275758
    10  H    0.286239
    11  H    0.224938
    12  N    0.495140
    13  O   -0.470924
    14  O   -0.458529
    15  C   -0.297297
    16  C   -0.300546
    17  C   -0.475227
    18  H    0.149652
    19  H    0.144291
    20  H    0.159022
    21  H    0.149360
    22  H    0.152252
    23  H    0.154840
    24  H    0.158580
    25  C   -0.309204
    26  C   -0.294302
    27  C   -0.491536
    28  H    0.177893
    29  H    0.144218
    30  H    0.150934
    31  H    0.147205
    32  H    0.154635
    33  H    0.172435
    34  H    0.149475
 Sum of Mulliken charges =  -0.00000

 Dipole moment (field-independent basis, Debye):
    X=              4.6012    Y=              2.3978    Z=              1.0724  Tot=              5.2981
 Quadrupole moment (field-independent basis, Debye-Ang):
   XX=            -71.5504   YY=            -94.6846   ZZ=            -96.0299
   XY=              1.7715   XZ=              3.9559   YZ=             -1.3797

 Normal termination of Gaussian 16 at Wed May  5 20:42:26 2021.
