 Gaussian 16, Revision A.03,
 Gaussian 16:  EM64L-G16RevA.03 25-Dec-2016

 -------------
 #p 6-31g* mp2
 -------------

 ------------------------------------------------------
 Input file generated by CHIRIPA (05-May-2021 14:51:12)
 ------------------------------------------------------
 Symbolic Z-matrix:
 Charge =  0 Multiplicity = 1

                         Standard orientation:
 ---------------------------------------------------------------------
 Center     Atomic      Atomic             Coordinates (Angstroms)
 Number     Number       Type             X           Y           Z
 ---------------------------------------------------------------------
      1          6           0       -2.510915    0.080939   -0.427850
      2          6           0       -3.639939    1.083286   -0.185797
      3          6           0       -3.530873    2.322567   -1.074662
      4          1           0       -1.545912    0.575893   -0.252534
      5          1           0       -2.519364   -0.222287   -1.483965
      6          1           0       -3.630228    1.383478    0.869857
      7          1           0       -4.602373    0.585835   -0.361524
      8          1           0       -3.563089    2.042023   -2.132423
      9          1           0       -2.585421    2.844198   -0.894045
     10          1           0       -4.347885    3.025724   -0.885131
     11          6           0       -2.606182   -1.163311    0.453339
     12          6           0       -1.477157   -2.165658    0.211286
     13          6           0       -1.586223   -3.404939    1.100151
     14          1           0       -2.597732   -0.860085    1.509454
     15          1           0       -3.571184   -1.658265    0.278023
     16          1           0       -0.514723   -1.668207    0.387013
     17          1           0       -1.486868   -2.465850   -0.844368
     18          1           0       -2.531675   -3.926570    0.919534
     19          1           0       -1.554007   -3.124395    2.157912
     20          1           0       -0.769211   -4.108096    0.910620
     21          6           0        2.021208    1.064204    0.132682
     22          6           0        2.589922    2.402901    0.604319
     23          6           0        1.502665    3.438928    0.891219
     24          1           0        1.419841    1.226919   -0.772209
     25          1           0        1.335407    0.675065    0.897956
     26          1           0        3.275509    2.788731   -0.161005
     27          1           0        3.190161    2.236952    1.508083
     28          1           0        0.823391    3.078767    1.670624
     29          1           0        0.909224    3.633680   -0.007948
     30          1           0        1.931352    4.388318    1.226996
     31          6           0        3.095889    0.018168   -0.158171
     32          6           0        2.527174   -1.320529   -0.629808
     33          6           0        3.614431   -2.356556   -0.916708
     34          1           0        3.781689    0.407307   -0.923445
     35          1           0        3.697254   -0.144547    0.746720
     36          1           0        1.926934   -1.154581   -1.533572
     37          1           0        1.841586   -1.706359    0.135516
     38          1           0        4.207872   -2.551308   -0.017541
     39          1           0        4.293705   -1.996395   -1.696113
     40          1           0        3.185744   -3.305946   -1.252485
 ---------------------------------------------------------------------

 SCF Done:  E(RHF) =  -470.733179252     A.U. after   11 cycles
 E2 =    -0.1583837611D+01 EUMP2 =    -0.47231701686202D+03

 The electronic state is 1-A.
 Alpha  occ. eigenvalues --  -11.21669 -11.21596 -11.21553 -11.21502 -11.21473
 Alpha  occ. eigenvalues --  -11.21401 -11.21339 -11.21276 -11.21146 -11.21081
 Alpha  occ. eigenvalues --  -11.21046 -11.21034  -1.08493  -1.08365  -1.03582
 Alpha  occ. eigenvalues --   -1.03473  -0.96028  -0.95932  -0.87047  -0.86946
 Alpha  occ. eigenvalues --   -0.79715  -0.79479  -0.78429  -0.78055  -0.65164
 Alpha  occ. eigenvalues --   -0.64964  -0.61023  -0.60841  -0.59443  -0.59254
 Alpha  occ. eigenvalues --   -0.57678  -0.57500  -0.55315  -0.55223  -0.52725
 Alpha  occ. eigenvalues --   -0.52624  -0.52475  -0.52334  -0.49974  -0.49880
 Alpha  occ. eigenvalues --   -0.48167  -0.47704  -0.46825  -0.46511  -0.46247
 Alpha  occ. eigenvalues --   -0.45753  -0.45669  -0.45107  -0.43830  -0.43724
 Alpha virt. eigenvalues --    0.20762   0.22611   0.23555   0.24606   0.25404
 Alpha virt. eigenvalues --    0.26442   0.26635   0.27124   0.28330   0.30275
 Alpha virt. eigenvalues --    0.30906   0.31254   0.31667   0.31863   0.32156

 Mulliken charges:
               1
     1  C   -0.302096
     2  C   -0.299304
     3  C   -0.475958
     4  H    0.154037
     5  H    0.148866
     6  H    0.151744
     7  H    0.151709
     8  H    0.154798
     9  H    0.155460
    10  H    0.160148
    11  C   -0.297374
    12  C   -0.307151
    13  C   -0.475942
    14  H    0.148640
    15  H    0.149254
    16  H    0.160156
    17  H    0.151550
    18  H    0.155273
    19  H    0.154485
    20  H    0.159942
    21  C   -0.301734
    22  C   -0.299628
    23  C   -0.476320
    24  H    0.151725
    25  H    0.150174
    26  H    0.152475
    27  H    0.152193
    28  H    0.154880
    29  H    0.155255
    30  H    0.160909
    31  C   -0.298236
    32  C   -0.304530
    33  C   -0.475301
    34  H    0.149763
    35  H    0.149510
    36  H    0.152892
    37  H    0.157265
    38  H    0.154977
    39  H    0.155125
    40  H    0.160369
 Sum of Mulliken charges =  -0.00000

 Dipole moment (field-independent basis, Debye):
    X=              0.0582    Y=              0.0154    Z=             -0.0108  Tot=              0.0612
 Quadrupole moment (field-independent basis, Debye-Ang):
   XX=            -84.9956   YY=            -86.1406   ZZ=            -83.7152
   XY=              0.9169   XZ=              0.4984   YZ=              0.3914

 Normal termination of Gaussian 16 at Wed May  5 21:31:48 2021.
