 Gaussian 16, Revision A.03,
 Gaussian 16:  EM64L-G16RevA.03 25-Dec-2016

 -------------
 #p 6-31g* mp2
 -------------

 ------------------------------------------------------
 Input file generated by CHIRIPA (05-May-2021 14:57:23)
 ------------------------------------------------------
 Symbolic Z-matrix:
 Charge =  0 Multiplicity = 1

                         Standard orientation:
 ---------------------------------------------------------------------
 Center     Atomic      Atomic             Coordinates (Angstroms)
 Number     Number       Type             X           Y           Z
 ---------------------------------------------------------------------
      1          6           0       -2.572343    2.580597    0.522190
      2          6           0       -2.049977    1.960856   -0.617799
      3          6           0       -2.442669    0.664576   -0.964209
      4          6           0       -3.363754    0.014350   -0.144392
      5          6           0       -3.902147    0.605048    0.997754
      6          6           0       -3.495134    1.901912    1.324913
      7          1           0       -2.261727    3.587805    0.783812
      8          1           0       -1.333169    2.485530   -1.243058
      9          1           0       -2.054106    0.161176   -1.841150
     10          1           0       -4.615054    0.056723    1.601510
     11          1           0       -3.902470    2.380736    2.210831
     12          7           0       -3.787060   -1.358272   -0.500931
     13          8           0       -4.599923   -1.909759    0.237820
     14          8           0       -3.297969   -1.856656   -1.512385
     15          6           0        0.936887   -1.043892    0.491437
     16          6           0        2.009156   -1.662704    1.142461
     17          6           0        3.319336   -1.225938    0.925176
     18          6           0        3.521864   -0.162913    0.046399
     19          6           0        2.474410    0.474109   -0.617178
     20          6           0        1.172520    0.020662   -0.384759
     21          1           0       -0.077672   -1.389661    0.666108
     22          1           0        1.829142   -2.489672    1.823464
     23          1           0        4.167870   -1.686926    1.415990
     24          1           0        2.685277    1.296149   -1.290381
     25          1           0        0.341713    0.503134   -0.891735
     26          7           0        4.904504    0.308301   -0.191642
     27          8           0        5.056404    1.246788   -0.970619
     28          8           0        5.810137   -0.269771    0.405267
 ---------------------------------------------------------------------

 SCF Done:  E(RHF) =  -868.336266987     A.U. after   16 cycles
 E2 =    -0.2602241156D+01 EUMP2 =    -0.87093850814267D+03

 The electronic state is 1-A.
 Alpha  occ. eigenvalues --  -20.61828 -20.61818 -20.60881 -20.60870 -15.86883
 Alpha  occ. eigenvalues --  -15.85931 -11.32370 -11.31272 -11.28974 -11.28860
 Alpha  occ. eigenvalues --  -11.28583 -11.27971 -11.27882 -11.27845 -11.27820
 Alpha  occ. eigenvalues --  -11.27522 -11.26814 -11.26794  -1.60908  -1.59954
 Alpha  occ. eigenvalues --   -1.40454  -1.39509  -1.20537  -1.19439  -1.09876
 Alpha  occ. eigenvalues --   -1.08825  -1.05970  -1.04849  -0.96700  -0.95665
 Alpha  occ. eigenvalues --   -0.87315  -0.86259  -0.83545  -0.82510  -0.78605
 Alpha  occ. eigenvalues --   -0.77572  -0.73081  -0.72262  -0.72149  -0.71570
 Alpha  occ. eigenvalues --   -0.71278  -0.70516  -0.66189  -0.65918  -0.65088
 Alpha  occ. eigenvalues --   -0.64941  -0.63281  -0.62182  -0.56350  -0.55301
 Alpha  occ. eigenvalues --   -0.54321  -0.54012  -0.53159  -0.52871  -0.49855
 Alpha  occ. eigenvalues --   -0.49839  -0.48910  -0.48903  -0.45828  -0.44921
 Alpha  occ. eigenvalues --   -0.38474  -0.37589  -0.37322  -0.36439
 Alpha virt. eigenvalues --    0.03908   0.04976   0.09948   0.11251   0.15265
 Alpha virt. eigenvalues --    0.16490   0.19629   0.21888   0.25299   0.27113
 Alpha virt. eigenvalues --    0.27744   0.28626   0.29887   0.31349   0.31984

 Mulliken charges:
               1
     1  C   -0.169270
     2  C   -0.219995
     3  C   -0.182350
     4  C    0.155838
     5  C   -0.171241
     6  C   -0.217615
     7  H    0.231442
     8  H    0.224795
     9  H    0.277246
    10  H    0.278984
    11  H    0.228487
    12  N    0.486380
    13  O   -0.456661
    14  O   -0.459146
    15  C   -0.171764
    16  C   -0.218754
    17  C   -0.170961
    18  C    0.158832
    19  C   -0.174058
    20  C   -0.217022
    21  H    0.228351
    22  H    0.225618
    23  H    0.276031
    24  H    0.272112
    25  H    0.218285
    26  N    0.488102
    27  O   -0.461961
    28  O   -0.459705
 Sum of Mulliken charges =  -0.00000

 Dipole moment (field-independent basis, Debye):
    X=             -3.7067    Y=              3.2161    Z=              2.2929  Tot=              5.4167
 Quadrupole moment (field-independent basis, Debye-Ang):
   XX=           -147.0957   YY=           -102.1316   ZZ=           -100.5708
   XY=            -23.2748   XZ=             -3.4762   YZ=             -3.3677

 Normal termination of Gaussian 16 at Thu May  6 21:12:35 2021.
