 Gaussian 16, Revision A.03,
 Gaussian 16:  EM64L-G16RevA.03 25-Dec-2016

 -------------
 #p 6-31g* mp2
 -------------

 ------------------------------------------------------
 Input file generated by CHIRIPA (05-May-2021 14:55:24)
 ------------------------------------------------------
 Symbolic Z-matrix:
 Charge =  0 Multiplicity = 1

                         Standard orientation:
 ---------------------------------------------------------------------
 Center     Atomic      Atomic             Coordinates (Angstroms)
 Number     Number       Type             X           Y           Z
 ---------------------------------------------------------------------
      1          6           0       -4.949258    2.006400    0.012973
      2          6           0       -3.557376    2.120752    0.091138
      3          6           0       -2.744010    0.990494   -0.033352
      4          6           0       -3.358805   -0.244080   -0.236193
      5          6           0       -4.742673   -0.390420   -0.318548
      6          6           0       -5.536429    0.753388   -0.191260
      7          1           0       -5.573484    2.889675    0.110767
      8          1           0       -3.098617    3.092579    0.249689
      9          1           0       -1.663905    1.050425    0.023209
     10          1           0       -5.170963   -1.372667   -0.477225
     11          1           0       -6.617115    0.661583   -0.252378
     12          7           0       -2.508110   -1.447807   -0.369466
     13          8           0       -3.074250   -2.524086   -0.547641
     14          8           0       -1.291305   -1.292216   -0.293227
     15          6           0        5.015328    0.548852    0.039611
     16          6           0        6.125370   -0.112473   -0.777970
     17          6           0        7.191390    0.881411   -1.240129
     18          1           0        4.545834    1.338592   -0.562743
     19          1           0        5.459229    1.044781    0.913911
     20          1           0        5.679353   -0.608182   -1.649726
     21          1           0        6.592149   -0.900859   -0.173669
     22          1           0        7.663264    1.367778   -0.380255
     23          1           0        6.745280    1.662118   -1.864697
     24          1           0        7.975184    0.387406   -1.822782
     25          6           0        3.942136   -0.431882    0.508813
     26          6           0        2.832094    0.229443    1.326395
     27          6           0        1.766074   -0.764441    1.788553
     28          1           0        3.498235   -0.927811   -0.365488
     29          1           0        4.411631   -1.221622    1.111166
     30          1           0        2.365314    1.017830    0.722093
     31          1           0        3.278111    0.725153    2.198150
     32          1           0        2.212182   -1.545147    2.413121
     33          1           0        1.294200   -1.250807    0.928678
     34          1           0        0.982280   -0.270436    2.371206
 ---------------------------------------------------------------------

 SCF Done:  E(RHF) =  -669.535942274     A.U. after   15 cycles
 E2 =    -0.2090792048D+01 EUMP2 =    -0.67162673432162D+03

 The electronic state is 1-A.
 Alpha  occ. eigenvalues --  -20.60874 -20.60868 -15.85919 -11.31252 -11.27818
 Alpha  occ. eigenvalues --  -11.27813 -11.27560 -11.26830 -11.26820 -11.21214
 Alpha  occ. eigenvalues --  -11.20959 -11.20945 -11.20774 -11.20762 -11.19991
 Alpha  occ. eigenvalues --   -1.59940  -1.39496  -1.19423  -1.08825  -1.07898
 Alpha  occ. eigenvalues --   -1.04822  -1.02953  -0.95670  -0.95372  -0.86386
 Alpha  occ. eigenvalues --   -0.86221  -0.82500  -0.79031  -0.77711  -0.77542
 Alpha  occ. eigenvalues --   -0.72150  -0.71257  -0.70532  -0.65081  -0.64825
 Alpha  occ. eigenvalues --   -0.64527  -0.62169  -0.60339  -0.58787  -0.57003
 Alpha  occ. eigenvalues --   -0.55326  -0.54635  -0.53153  -0.52914  -0.52077
 Alpha  occ. eigenvalues --   -0.51793  -0.49313  -0.48901  -0.48861  -0.47334
 Alpha  occ. eigenvalues --   -0.46067  -0.45252  -0.45171  -0.44866  -0.43220
 Alpha  occ. eigenvalues --   -0.37404  -0.36424
 Alpha virt. eigenvalues --    0.04978   0.11229   0.16467   0.21191   0.23311
 Alpha virt. eigenvalues --    0.24566   0.26972   0.27341   0.27886   0.28083
 Alpha virt. eigenvalues --    0.29030   0.30967   0.31837   0.32307   0.32509

 Mulliken charges:
               1
     1  C   -0.170667
     2  C   -0.218601
     3  C   -0.171075
     4  C    0.157894
     5  C   -0.170734
     6  C   -0.218599
     7  H    0.225841
     8  H    0.223772
     9  H    0.276233
    10  H    0.275766
    11  H    0.223661
    12  N    0.493463
    13  O   -0.459522
    14  O   -0.465269
    15  C   -0.297577
    16  C   -0.299472
    17  C   -0.475355
    18  H    0.147490
    19  H    0.147604
    20  H    0.152902
    21  H    0.151873
    22  H    0.154163
    23  H    0.154071
    24  H    0.159541
    25  C   -0.298660
    26  C   -0.298307
    27  C   -0.482374
    28  H    0.154006
    29  H    0.149234
    30  H    0.145466
    31  H    0.147108
    32  H    0.151301
    33  H    0.182707
    34  H    0.152118
 Sum of Mulliken charges =  -0.00000

 Dipole moment (field-independent basis, Debye):
    X=             -3.1972    Y=              4.1196    Z=              0.3873  Tot=              5.2291
 Quadrupole moment (field-independent basis, Debye-Ang):
   XX=            -72.4953   YY=            -95.9330   ZZ=            -95.5836
   XY=            -12.0248   XZ=              0.2810   YZ=             -0.6639

 Normal termination of Gaussian 16 at Thu May  6 06:20:31 2021.
