 Gaussian 16, Revision A.03,
 Gaussian 16:  EM64L-G16RevA.03 25-Dec-2016

 -------------
 #p 6-31g* mp2
 -------------

 ------------------------------------------------------
 Input file generated by CHIRIPA (05-May-2021 14:55:21)
 ------------------------------------------------------
 Symbolic Z-matrix:
 Charge =  0 Multiplicity = 1

                         Standard orientation:
 ---------------------------------------------------------------------
 Center     Atomic      Atomic             Coordinates (Angstroms)
 Number     Number       Type             X           Y           Z
 ---------------------------------------------------------------------
      1          6           0        2.595505   -2.246982   -0.738216
      2          6           0        1.670478   -1.256747   -1.085028
      3          6           0        1.921598    0.085597   -0.785698
      4          6           0        3.113248    0.403590   -0.135974
      5          6           0        4.054540   -0.560118    0.222533
      6          6           0        3.782491   -1.896126   -0.086691
      7          1           0        2.392300   -3.287287   -0.974585
      8          1           0        0.747814   -1.526307   -1.591066
      9          1           0        1.222824    0.872400   -1.042745
     10          1           0        4.965501   -0.260636    0.726397
     11          1           0        4.502699   -2.663039    0.183848
     12          7           0        3.390176    1.821316    0.186151
     13          8           0        4.447447    2.075490    0.759047
     14          8           0        2.544717    2.651511   -0.140363
     15          6           0       -3.514092   -0.650108    0.717589
     16          6           0       -2.078116   -0.874075    0.242409
     17          6           0       -1.265593   -1.741372    1.204384
     18          1           0       -3.495932   -0.180558    1.710634
     19          1           0       -4.008083   -1.623802    0.841226
     20          1           0       -1.587413    0.099806    0.118377
     21          1           0       -2.099698   -1.342970   -0.749703
     22          1           0       -1.729517   -2.726186    1.320648
     23          1           0       -1.214322   -1.275213    2.193662
     24          1           0       -0.242252   -1.888685    0.845313
     25          6           0       -4.338981    0.215082   -0.233586
     26          6           0       -5.774958    0.439049    0.241593
     27          6           0       -6.587481    1.306346   -0.720382
     28          1           0       -3.844991    1.188778   -0.357223
     29          1           0       -4.357142   -0.254467   -1.226631
     30          1           0       -5.753376    0.907945    1.233706
     31          1           0       -6.265660   -0.534831    0.365626
     32          1           0       -6.638751    0.840186   -1.709658
     33          1           0       -6.123557    2.291160   -0.836646
     34          1           0       -7.610822    1.453659   -0.361311
 ---------------------------------------------------------------------

 SCF Done:  E(RHF) =  -669.535018686     A.U. after   15 cycles
 E2 =    -0.2092660931D+01 EUMP2 =    -0.67162767961665D+03

 The electronic state is 1-A.
 Alpha  occ. eigenvalues --  -20.60799 -20.60794 -15.85852 -11.31234 -11.27792
 Alpha  occ. eigenvalues --  -11.27786 -11.27541 -11.26822 -11.26793 -11.22191
 Alpha  occ. eigenvalues --  -11.21807 -11.21763 -11.21650 -11.21409 -11.21219
 Alpha  occ. eigenvalues --   -1.59874  -1.39427  -1.19412  -1.08819  -1.08766
 Alpha  occ. eigenvalues --   -1.04822  -1.03868  -0.96293  -0.95632  -0.87313
 Alpha  occ. eigenvalues --   -0.86207  -0.82462  -0.79961  -0.78592  -0.77504
 Alpha  occ. eigenvalues --   -0.72071  -0.71196  -0.70507  -0.65411  -0.65059
 Alpha  occ. eigenvalues --   -0.64825  -0.62184  -0.61264  -0.59696  -0.57941
 Alpha  occ. eigenvalues --   -0.55563  -0.55305  -0.53458  -0.52915  -0.52870
 Alpha  occ. eigenvalues --   -0.52459  -0.50226  -0.48830  -0.48824  -0.48268
 Alpha  occ. eigenvalues --   -0.46998  -0.46129  -0.46038  -0.44828  -0.44127
 Alpha  occ. eigenvalues --   -0.37368  -0.36354
 Alpha virt. eigenvalues --    0.05007   0.11150   0.16455   0.20377   0.22741
 Alpha virt. eigenvalues --    0.24059   0.25725   0.25991   0.27425   0.28210
 Alpha virt. eigenvalues --    0.28847   0.29696   0.31318   0.31674   0.32247

 Mulliken charges:
               1
     1  C   -0.171655
     2  C   -0.220658
     3  C   -0.171115
     4  C    0.158900
     5  C   -0.170915
     6  C   -0.217882
     7  H    0.226446
     8  H    0.228735
     9  H    0.276520
    10  H    0.275814
    11  H    0.223825
    12  N    0.488091
    13  O   -0.460214
    14  O   -0.460367
    15  C   -0.297860
    16  C   -0.302195
    17  C   -0.483454
    18  H    0.153161
    19  H    0.149927
    20  H    0.152207
    21  H    0.143733
    22  H    0.153306
    23  H    0.159486
    24  H    0.164171
    25  C   -0.299091
    26  C   -0.300014
    27  C   -0.476057
    28  H    0.151600
    29  H    0.147936
    30  H    0.153498
    31  H    0.151672
    32  H    0.154638
    33  H    0.156663
    34  H    0.161149
 Sum of Mulliken charges =  -0.00000

 Dipole moment (field-independent basis, Debye):
    X=             -0.9743    Y=             -4.9501    Z=             -1.0989  Tot=              5.1634
 Quadrupole moment (field-independent basis, Debye-Ang):
   XX=            -97.1924   YY=            -98.8022   ZZ=            -94.3556
   XY=            -17.0174   XZ=             -1.7755   YZ=              0.4547

 Normal termination of Gaussian 16 at Thu May  6 19:09:01 2021.
