 Gaussian 16, Revision A.03,
 Gaussian 16:  EM64L-G16RevA.03 25-Dec-2016

 -------------
 #p 6-31g* mp2
 -------------

 ------------------------------------------------------
 Input file generated by CHIRIPA (05-May-2021 14:57:21)
 ------------------------------------------------------
 Symbolic Z-matrix:
 Charge =  0 Multiplicity = 1

                         Standard orientation:
 ---------------------------------------------------------------------
 Center     Atomic      Atomic             Coordinates (Angstroms)
 Number     Number       Type             X           Y           Z
 ---------------------------------------------------------------------
      1          6           0       -3.840619   -1.861247   -0.480426
      2          6           0       -4.584591   -0.740429   -0.097290
      3          6           0       -3.964597    0.502301    0.063268
      4          6           0       -2.592710    0.588606   -0.168608
      5          6           0       -1.824257   -0.509731   -0.551265
      6          6           0       -2.465252   -1.742530   -0.705794
      7          1           0       -4.330402   -2.822773   -0.602809
      8          1           0       -5.652865   -0.829669    0.078412
      9          1           0       -4.516541    1.386203    0.359059
     10          1           0       -0.760882   -0.389610   -0.719264
     11          1           0       -1.884956   -2.611274   -1.003428
     12          7           0       -1.925234    1.898972   -0.001824
     13          8           0       -0.715304    1.948697   -0.212144
     14          8           0       -2.624635    2.851499    0.336062
     15          6           0        1.121416   -2.154538    1.026909
     16          6           0        1.036700   -0.852813    1.531743
     17          6           0        1.907689    0.142509    1.078689
     18          6           0        2.855593   -0.200375    0.115776
     19          6           0        2.964924   -1.488206   -0.406552
     20          6           0        2.083561   -2.467528    0.061075
     21          1           0        0.440780   -2.921514    1.384514
     22          1           0        0.290476   -0.606870    2.281881
     23          1           0        1.864100    1.158299    1.452440
     24          1           0        3.719231   -1.703120   -1.153714
     25          1           0        2.151657   -3.477622   -0.332775
     26          7           0        3.783161    0.844859   -0.371566
     27          8           0        4.609456    0.517236   -1.220411
     28          8           0        3.666330    1.971946    0.104526
 ---------------------------------------------------------------------

 SCF Done:  E(RHF) =  -868.336750783     A.U. after   16 cycles
 E2 =    -0.2603535149D+01 EUMP2 =    -0.87094028593143D+03

 The electronic state is 1-A.
 Alpha  occ. eigenvalues --  -20.61206 -20.61194 -20.60439 -20.60383 -15.86245
 Alpha  occ. eigenvalues --  -15.85476 -11.31602 -11.31060 -11.28216 -11.28110
 Alpha  occ. eigenvalues --  -11.27993 -11.27768 -11.27585 -11.27556 -11.27225
 Alpha  occ. eigenvalues --  -11.27202 -11.26857 -11.26682  -1.60277  -1.59483
 Alpha  occ. eigenvalues --   -1.39829  -1.39027  -1.19817  -1.19321  -1.09213
 Alpha  occ. eigenvalues --   -1.08694  -1.05213  -1.04723  -0.96034  -0.95459
 Alpha  occ. eigenvalues --   -0.86618  -0.86107  -0.82868  -0.82263  -0.77917
 Alpha  occ. eigenvalues --   -0.77242  -0.72469  -0.71699  -0.71616  -0.70921
 Alpha  occ. eigenvalues --   -0.70800  -0.70412  -0.65460  -0.65219  -0.64948
 Alpha  occ. eigenvalues --   -0.64723  -0.62572  -0.62022  -0.55745  -0.55285
 Alpha  occ. eigenvalues --   -0.53684  -0.53454  -0.52794  -0.52760  -0.49217
 Alpha  occ. eigenvalues --   -0.49214  -0.48480  -0.48422  -0.45240  -0.44381
 Alpha  occ. eigenvalues --   -0.37865  -0.37615  -0.36716  -0.36103
 Alpha virt. eigenvalues --    0.04601   0.05245   0.10444   0.11640   0.15902
 Alpha virt. eigenvalues --    0.16790   0.20742   0.21572   0.26555   0.27349
 Alpha virt. eigenvalues --    0.27902   0.28455   0.30589   0.31113   0.32198

 Mulliken charges:
               1
     1  C   -0.170406
     2  C   -0.219673
     3  C   -0.170234
     4  C    0.152973
     5  C   -0.171430
     6  C   -0.224839
     7  H    0.225686
     8  H    0.224598
     9  H    0.276825
    10  H    0.285119
    11  H    0.220094
    12  N    0.488057
    13  O   -0.461615
    14  O   -0.457878
    15  C   -0.179041
    16  C   -0.228157
    17  C   -0.153442
    18  C    0.155117
    19  C   -0.171680
    20  C   -0.223955
    21  H    0.222126
    22  H    0.225375
    23  H    0.287455
    24  H    0.275822
    25  H    0.220437
    26  N    0.488542
    27  O   -0.463562
    28  O   -0.452315
 Sum of Mulliken charges =  -0.00000

 Dipole moment (field-independent basis, Debye):
    X=             -5.5393    Y=             -7.8861    Z=              1.1919  Tot=              9.7106
 Quadrupole moment (field-independent basis, Debye-Ang):
   XX=           -107.0339   YY=           -106.9694   ZZ=           -103.3190
   XY=             -2.4517   XZ=              3.9592   YZ=              2.7484

 Normal termination of Gaussian 16 at Thu May  6 16:10:30 2021.
