 Gaussian 16, Revision A.03,
 Gaussian 16:  EM64L-G16RevA.03 25-Dec-2016

 -------------
 #p 6-31g* mp2
 -------------

 ------------------------------------------------------
 Input file generated by CHIRIPA (05-May-2021 14:57:26)
 ------------------------------------------------------
 Symbolic Z-matrix:
 Charge =  0 Multiplicity = 1

                         Standard orientation:
 ---------------------------------------------------------------------
 Center     Atomic      Atomic             Coordinates (Angstroms)
 Number     Number       Type             X           Y           Z
 ---------------------------------------------------------------------
      1          6           0       -4.052014    1.465892    1.151531
      2          6           0       -2.969670    1.809910    0.335011
      3          6           0       -2.293942    0.830085   -0.398394
      4          6           0       -2.729240   -0.489884   -0.291209
      5          6           0       -3.804173   -0.864125    0.513621
      6          6           0       -4.465083    0.132324    1.238077
      7          1           0       -4.571180    2.233501    1.717781
      8          1           0       -2.646680    2.844773    0.265859
      9          1           0       -1.452999    1.068629   -1.038183
     10          1           0       -4.103003   -1.904204    0.562132
     11          1           0       -5.305327   -0.137758    1.871394
     12          7           0       -2.021720   -1.535980   -1.062895
     13          8           0       -2.424756   -2.691717   -0.951222
     14          8           0       -1.077527   -1.180365   -1.764803
     15          6           0        3.904720   -1.633718    1.363009
     16          6           0        2.948049   -0.847779    2.013857
     17          6           0        2.354775    0.235770    1.359263
     18          6           0        2.743479    0.506109    0.048112
     19          6           0        3.693709   -0.258281   -0.627211
     20          6           0        4.273846   -1.336982    0.046872
     21          1           0        4.360488   -2.473563    1.879084
     22          1           0        2.659444   -1.075887    3.035972
     23          1           0        1.611570    0.860684    1.839419
     24          1           0        3.961002   -0.006228   -1.646251
     25          1           0        5.016540   -1.945627   -0.461069
     26          7           0        2.122360    1.650649   -0.655193
     27          8           0        2.482035    1.867994   -1.810196
     28          8           0        1.287613    2.308721   -0.038124
 ---------------------------------------------------------------------

 SCF Done:  E(RHF) =  -868.339984053     A.U. after   16 cycles
 E2 =    -0.2598933367D+01 EUMP2 =    -0.87093891742025D+03

 The electronic state is 1-A.
 Alpha  occ. eigenvalues --  -20.60885 -20.60810 -20.60435 -20.60423 -15.85876
 Alpha  occ. eigenvalues --  -15.85475 -11.30969 -11.30673 -11.27558 -11.27487
 Alpha  occ. eigenvalues --  -11.27304 -11.27238 -11.27084 -11.26986 -11.26520
 Alpha  occ. eigenvalues --  -11.26465 -11.26303 -11.26105  -1.59908  -1.59511
 Alpha  occ. eigenvalues --   -1.39473  -1.39067  -1.19121  -1.18846  -1.08573
 Alpha  occ. eigenvalues --   -1.08286  -1.04501  -1.04196  -0.95456  -0.95135
 Alpha  occ. eigenvalues --   -0.85916  -0.85616  -0.82310  -0.81952  -0.77381
 Alpha  occ. eigenvalues --   -0.77010  -0.72120  -0.71701  -0.71196  -0.70833
 Alpha  occ. eigenvalues --   -0.70259  -0.69946  -0.64797  -0.64524  -0.64488
 Alpha  occ. eigenvalues --   -0.64187  -0.61866  -0.61516  -0.55032  -0.54747
 Alpha  occ. eigenvalues --   -0.52817  -0.52612  -0.52578  -0.52268  -0.48885
 Alpha  occ. eigenvalues --   -0.48840  -0.48460  -0.48441  -0.44935  -0.44508
 Alpha  occ. eigenvalues --   -0.37076  -0.36866  -0.36079  -0.35795
 Alpha virt. eigenvalues --    0.05137   0.05486   0.11562   0.11853   0.16672
 Alpha virt. eigenvalues --    0.17001   0.21636   0.22040   0.27561   0.27934
 Alpha virt. eigenvalues --    0.28509   0.28910   0.31180   0.31555   0.32713

 Mulliken charges:
               1
     1  C   -0.172023
     2  C   -0.220492
     3  C   -0.171874
     4  C    0.155735
     5  C   -0.172787
     6  C   -0.219781
     7  H    0.224038
     8  H    0.231527
     9  H    0.286599
    10  H    0.272571
    11  H    0.220556
    12  N    0.487962
    13  O   -0.464021
    14  O   -0.460368
    15  C   -0.169024
    16  C   -0.217905
    17  C   -0.170680
    18  C    0.162207
    19  C   -0.166433
    20  C   -0.217435
    21  H    0.225644
    22  H    0.222003
    23  H    0.271696
    24  H    0.276581
    25  H    0.224177
    26  N    0.489551
    27  O   -0.455420
    28  O   -0.472601
 Sum of Mulliken charges =  -0.00000

 Dipole moment (field-independent basis, Debye):
    X=             -0.0313    Y=             -0.2851    Z=              5.0505  Tot=              5.0586
 Quadrupole moment (field-independent basis, Debye-Ang):
   XX=            -76.9234   YY=           -111.0318   ZZ=           -103.0854
   XY=            -17.9921   XZ=             -3.8304   YZ=             -2.0954

 Normal termination of Gaussian 16 at Thu May  6 06:46:53 2021.
