 Gaussian 16, Revision A.03,
 Gaussian 16:  EM64L-G16RevA.03 25-Dec-2016

 -------------
 #p 6-31g* mp2
 -------------

 ------------------------------------------------------
 Input file generated by CHIRIPA (05-May-2021 14:57:26)
 ------------------------------------------------------
 Symbolic Z-matrix:
 Charge =  0 Multiplicity = 1

                         Standard orientation:
 ---------------------------------------------------------------------
 Center     Atomic      Atomic             Coordinates (Angstroms)
 Number     Number       Type             X           Y           Z
 ---------------------------------------------------------------------
      1          6           0        0.970715   -1.248322    2.218546
      2          6           0        0.839073    0.134617    2.055229
      3          6           0        1.564553    0.804968    1.065858
      4          6           0        2.416381    0.057833    0.253782
      5          6           0        2.569148   -1.320902    0.391779
      6          6           0        1.833810   -1.970394    1.387764
      7          1           0        0.403316   -1.760965    2.989682
      8          1           0        0.169531    0.697951    2.698978
      9          1           0        1.481708    1.874818    0.917613
     10          1           0        3.244471   -1.855450   -0.265195
     11          1           0        1.938044   -3.044484    1.512311
     12          7           0        3.189632    0.756463   -0.797122
     13          8           0        3.933432    0.075431   -1.499684
     14          8           0        3.037265    1.971853   -0.898359
     15          6           0       -2.636302    2.402755    0.435659
     16          6           0       -3.532038    1.387675    0.787499
     17          6           0       -3.349402    0.084489    0.315379
     18          6           0       -2.255359   -0.169439   -0.510381
     19          6           0       -1.345523    0.820433   -0.878677
     20          6           0       -1.547822    2.116398   -0.394841
     21          1           0       -2.785816    3.412296    0.806963
     22          1           0       -4.378251    1.607161    1.432320
     23          1           0       -4.027506   -0.720301    0.572100
     24          1           0       -0.511296    0.571061   -1.523113
     25          1           0       -0.850572    2.902735   -0.669727
     26          7           0       -2.051601   -1.545242   -1.016394
     27          8           0       -1.079878   -1.743138   -1.742499
     28          8           0       -2.867476   -2.399649   -0.677319
 ---------------------------------------------------------------------

 SCF Done:  E(RHF) =  -868.337570036     A.U. after   16 cycles
 E2 =    -0.2603554236D+01 EUMP2 =    -0.87094112427251D+03

 The electronic state is 1-A.
 Alpha  occ. eigenvalues --  -20.61067 -20.61042 -20.60971 -20.60914 -15.86109
 Alpha  occ. eigenvalues --  -15.85989 -11.31459 -11.31197 -11.28111 -11.28013
 Alpha  occ. eigenvalues --  -11.27844 -11.27821 -11.27669 -11.27431 -11.27112
 Alpha  occ. eigenvalues --  -11.27003 -11.26756 -11.26639  -1.60133  -1.60023
 Alpha  occ. eigenvalues --   -1.39685  -1.39581  -1.19686  -1.19351  -1.09071
 Alpha  occ. eigenvalues --   -1.08778  -1.05106  -1.04699  -0.95902  -0.95637
 Alpha  occ. eigenvalues --   -0.86470  -0.86141  -0.82726  -0.82466  -0.77771
 Alpha  occ. eigenvalues --   -0.77538  -0.72331  -0.72206  -0.71464  -0.71355
 Alpha  occ. eigenvalues --   -0.70781  -0.70467  -0.65324  -0.65077  -0.65001
 Alpha  occ. eigenvalues --   -0.64713  -0.62429  -0.62068  -0.55590  -0.55231
 Alpha  occ. eigenvalues --   -0.53825  -0.53171  -0.52808  -0.52666  -0.49095
 Alpha  occ. eigenvalues --   -0.49079  -0.48982  -0.48939  -0.45088  -0.45015
 Alpha  occ. eigenvalues --   -0.37759  -0.37428  -0.37125  -0.35616
 Alpha virt. eigenvalues --    0.04442   0.05278   0.10883   0.11295   0.16202
 Alpha virt. eigenvalues --    0.16555   0.20703   0.21699   0.26086   0.27591
 Alpha virt. eigenvalues --    0.27931   0.28479   0.30307   0.31495   0.31907

 Mulliken charges:
               1
     1  C   -0.173501
     2  C   -0.214681
     3  C   -0.174693
     4  C    0.155625
     5  C   -0.164302
     6  C   -0.214167
     7  H    0.226900
     8  H    0.221436
     9  H    0.267520
    10  H    0.278295
    11  H    0.227717
    12  N    0.487570
    13  O   -0.455183
    14  O   -0.468395
    15  C   -0.173983
    16  C   -0.221086
    17  C   -0.173445
    18  C    0.158667
    19  C   -0.164331
    20  C   -0.228154
    21  H    0.226431
    22  H    0.223165
    23  H    0.274879
    24  H    0.279771
    25  H    0.231172
    26  N    0.487934
    27  O   -0.457996
    28  O   -0.463166
 Sum of Mulliken charges =  -0.00000

 Dipole moment (field-independent basis, Debye):
    X=             -3.3400    Y=              2.1344    Z=              5.4060  Tot=              6.7034
 Quadrupole moment (field-independent basis, Debye-Ang):
   XX=           -111.6335   YY=           -103.1328   ZZ=           -104.4085
   XY=            -18.3075   XZ=              1.6520   YZ=             -2.8920

 Normal termination of Gaussian 16 at Thu May  6 13:08:07 2021.
