 Gaussian 16, Revision A.03,
 Gaussian 16:  EM64L-G16RevA.03 25-Dec-2016

 -------------
 #p 6-31g* mp2
 -------------

 ------------------------------------------------------
 Input file generated by CHIRIPA (05-May-2021 14:57:27)
 ------------------------------------------------------
 Symbolic Z-matrix:
 Charge =  0 Multiplicity = 1

                         Standard orientation:
 ---------------------------------------------------------------------
 Center     Atomic      Atomic             Coordinates (Angstroms)
 Number     Number       Type             X           Y           Z
 ---------------------------------------------------------------------
      1          6           0       -2.703016    2.732154    0.239758
      2          6           0       -1.660151    1.818998    0.427112
      3          6           0       -1.875018    0.449242    0.247815
      4          6           0       -3.150967    0.025535   -0.120581
      5          6           0       -4.210307    0.910630   -0.314732
      6          6           0       -3.972527    2.275860   -0.129915
      7          1           0       -2.527203    3.794455    0.381184
      8          1           0       -0.673205    2.170503    0.714212
      9          1           0       -1.085586   -0.279491    0.386254
     10          1           0       -5.183322    0.530109   -0.600848
     11          1           0       -4.784308    2.982744   -0.276109
     12          7           0       -3.390565   -1.422169   -0.313316
     13          8           0       -4.523815   -1.770022   -0.637940
     14          8           0       -2.440576   -2.181613   -0.136110
     15          6           0        4.688178    1.461974   -0.860128
     16          6           0        4.118578    1.653468    0.402966
     17          6           0        3.243642    0.703700    0.938669
     18          6           0        2.959048   -0.431008    0.180556
     19          6           0        3.510587   -0.650353   -1.080786
     20          6           0        4.382903    0.312701   -1.596674
     21          1           0        5.366832    2.204936   -1.268578
     22          1           0        4.353849    2.545052    0.977222
     23          1           0        2.788585    0.826753    1.913963
     24          1           0        3.256995   -1.549206   -1.629577
     25          1           0        4.823786    0.161343   -2.577877
     26          7           0        2.034180   -1.443516    0.737192
     27          8           0        1.799548   -2.434687    0.049321
     28          8           0        1.561414   -1.226779    1.850813
 ---------------------------------------------------------------------

 SCF Done:  E(RHF) =  -868.336898088     A.U. after   16 cycles
 E2 =    -0.2600188665D+01 EUMP2 =    -0.87093708675341D+03

 The electronic state is 1-A.
 Alpha  occ. eigenvalues --  -20.61137 -20.61066 -20.60016 -20.59946 -15.86143
 Alpha  occ. eigenvalues --  -15.85038 -11.31609 -11.30586 -11.28220 -11.28126
 Alpha  occ. eigenvalues --  -11.27910 -11.27234 -11.27228 -11.27159 -11.27116
 Alpha  occ. eigenvalues --  -11.27044 -11.26296 -11.26270  -1.60180  -1.59065
 Alpha  occ. eigenvalues --   -1.39725  -1.38606  -1.19782  -1.18801  -1.09155
 Alpha  occ. eigenvalues --   -1.08178  -1.05189  -1.04230  -0.95969  -0.94969
 Alpha  occ. eigenvalues --   -0.86580  -0.85625  -0.82791  -0.81792  -0.77836
 Alpha  occ. eigenvalues --   -0.76793  -0.72327  -0.71556  -0.71236  -0.70867
 Alpha  occ. eigenvalues --   -0.70400  -0.69910  -0.65420  -0.65177  -0.64453
 Alpha  occ. eigenvalues --   -0.64251  -0.62528  -0.61557  -0.55667  -0.54766
 Alpha  occ. eigenvalues --   -0.53527  -0.53270  -0.52560  -0.52328  -0.49113
 Alpha  occ. eigenvalues --   -0.49077  -0.48047  -0.47988  -0.45089  -0.43971
 Alpha  occ. eigenvalues --   -0.37766  -0.36824  -0.36803  -0.35840
 Alpha virt. eigenvalues --    0.04662   0.05739   0.10823   0.11807   0.16142
 Alpha virt. eigenvalues --    0.17171   0.20941   0.21825   0.26733   0.27325
 Alpha virt. eigenvalues --    0.28209   0.28663   0.30742   0.31131   0.32337

 Mulliken charges:
               1
     1  C   -0.171369
     2  C   -0.219211
     3  C   -0.172525
     4  C    0.157029
     5  C   -0.171004
     6  C   -0.219310
     7  H    0.221713
     8  H    0.218302
     9  H    0.286454
    10  H    0.274412
    11  H    0.220910
    12  N    0.486409
    13  O   -0.465230
    14  O   -0.449924
    15  C   -0.170944
    16  C   -0.218885
    17  C   -0.176536
    18  C    0.156402
    19  C   -0.170301
    20  C   -0.218227
    21  H    0.226721
    22  H    0.223171
    23  H    0.273874
    24  H    0.279422
    25  H    0.225732
    26  N    0.484287
    27  O   -0.447706
    28  O   -0.463663
 Sum of Mulliken charges =  -0.00000

 Dipole moment (field-independent basis, Debye):
    X=              4.3589    Y=              8.3473    Z=             -1.3672  Tot=              9.5156
 Quadrupole moment (field-independent basis, Debye-Ang):
   XX=            -87.2591   YY=           -106.9378   ZZ=           -103.0962
   XY=             -8.1205   XZ=             -7.3108   YZ=              3.2887

 Normal termination of Gaussian 16 at Thu May  6 21:26:09 2021.
