 Gaussian 16, Revision A.03,
 Gaussian 16:  EM64L-G16RevA.03 25-Dec-2016

 -------------
 #p 6-31g* mp2
 -------------

 ------------------------------------------------------
 Input file generated by CHIRIPA (05-May-2021 14:53:14)
 ------------------------------------------------------
 Symbolic Z-matrix:
 Charge =  0 Multiplicity = 1

                         Standard orientation:
 ---------------------------------------------------------------------
 Center     Atomic      Atomic             Coordinates (Angstroms)
 Number     Number       Type             X           Y           Z
 ---------------------------------------------------------------------
      1          6           0       -3.793514   -0.220741   -0.022593
      2          6           0       -3.450699   -1.688911    0.232240
      3          6           0       -4.682972   -2.594008    0.222448
      4          1           0       -4.506831    0.120361    0.740147
      5          1           0       -4.305799   -0.133771   -0.990784
      6          1           0       -2.937980   -1.772907    1.199028
      7          1           0       -2.737967   -2.026503   -0.531083
      8          1           0       -5.193064   -2.539844   -0.744751
      9          1           0       -5.394213   -2.284807    0.995190
     10          1           0       -4.414985   -3.639057    0.406610
     11          6           0       -2.571966    0.696594   -0.015834
     12          6           0       -2.914781    2.164764   -0.270667
     13          6           0       -1.682508    3.069861   -0.260875
     14          1           0       -2.059681    0.609624    0.952357
     15          1           0       -1.858649    0.355492   -0.778575
     16          1           0       -3.627513    2.502356    0.492655
     17          1           0       -3.427500    2.248760   -1.237456
     18          1           0       -0.971267    2.760660   -1.033618
     19          1           0       -1.172416    3.015697    0.706323
     20          1           0       -1.950495    4.114910   -0.445037
     21          6           0        2.478980    0.077729    2.524269
     22          6           0        1.341075    0.410560    1.782031
     23          6           0        1.333954    0.268522    0.391231
     24          6           0        2.487244   -0.211365   -0.227575
     25          6           0        3.636537   -0.551458    0.484289
     26          6           0        3.621066   -0.401374    1.874175
     27          1           0        2.475735    0.191193    3.604321
     28          1           0        0.452691    0.782873    2.284229
     29          1           0        0.466766    0.518701   -0.207777
     30          1           0        4.507113   -0.920117   -0.044490
     31          1           0        4.506217   -0.660639    2.448051
     32          7           0        2.491665   -0.365993   -1.699469
     33          8           0        3.520387   -0.790868   -2.220861
     34          8           0        1.466324   -0.059390   -2.303876
 ---------------------------------------------------------------------

 SCF Done:  E(RHF) =  -669.535523902     A.U. after   15 cycles
 E2 =    -0.2092798093D+01 EUMP2 =    -0.67162832199532D+03

 The electronic state is 1-A.
 Alpha  occ. eigenvalues --  -20.60745 -20.60737 -15.85790 -11.31078 -11.27679
 Alpha  occ. eigenvalues --  -11.27577 -11.27422 -11.26684 -11.26653 -11.22025
 Alpha  occ. eigenvalues --  -11.21957 -11.21823 -11.21703 -11.21525 -11.21219
 Alpha  occ. eigenvalues --   -1.59814  -1.39371  -1.19265  -1.08837  -1.08679
 Alpha  occ. eigenvalues --   -1.04660  -1.03866  -0.96335  -0.95520  -0.87349
 Alpha  occ. eigenvalues --   -0.86068  -0.82360  -0.79947  -0.78727  -0.77367
 Alpha  occ. eigenvalues --   -0.72013  -0.71133  -0.70383  -0.65483  -0.64917
 Alpha  occ. eigenvalues --   -0.64651  -0.62040  -0.61242  -0.59688  -0.57954
 Alpha  occ. eigenvalues --   -0.55623  -0.55185  -0.53035  -0.52986  -0.52800
 Alpha  occ. eigenvalues --   -0.52707  -0.50269  -0.48772  -0.48765  -0.48232
 Alpha  occ. eigenvalues --   -0.46954  -0.46178  -0.46084  -0.44790  -0.44143
 Alpha  occ. eigenvalues --   -0.37259  -0.36251
 Alpha virt. eigenvalues --    0.05103   0.11366   0.16576   0.19521   0.22914
 Alpha virt. eigenvalues --    0.23838   0.24354   0.26063   0.27624   0.28294
 Alpha virt. eigenvalues --    0.29542   0.30281   0.31501   0.31619   0.32193

 Mulliken charges:
               1
     1  C   -0.296947
     2  C   -0.301186
     3  C   -0.476070
     4  H    0.149557
     5  H    0.154150
     6  H    0.148401
     7  H    0.157463
     8  H    0.157308
     9  H    0.154329
    10  H    0.161456
    11  C   -0.311154
    12  C   -0.298397
    13  C   -0.482975
    14  H    0.139787
    15  H    0.160429
    16  H    0.152086
    17  H    0.157832
    18  H    0.164296
    19  H    0.146949
    20  H    0.165098
    21  C   -0.170361
    22  C   -0.226000
    23  C   -0.176820
    24  C    0.156687
    25  C   -0.169785
    26  C   -0.219345
    27  H    0.225168
    28  H    0.224512
    29  H    0.291004
    30  H    0.275164
    31  H    0.222990
    32  N    0.487660
    33  O   -0.460239
    34  O   -0.463047
 Sum of Mulliken charges =  -0.00000

 Dipole moment (field-independent basis, Debye):
    X=             -0.1877    Y=              0.5479    Z=              5.0235  Tot=              5.0567
 Quadrupole moment (field-independent basis, Debye-Ang):
   XX=            -90.6140   YY=            -95.5214   ZZ=            -96.7801
   XY=             -1.1383   XZ=             13.5761   YZ=             -1.3095

 Normal termination of Gaussian 16 at Thu May  6 10:31:42 2021.
