 Gaussian 16, Revision A.03,
 Gaussian 16:  EM64L-G16RevA.03 25-Dec-2016

 -------------
 #p 6-31g* mp2
 -------------

 ------------------------------------------------------
 Input file generated by CHIRIPA (05-May-2021 14:55:21)
 ------------------------------------------------------
 Symbolic Z-matrix:
 Charge =  0 Multiplicity = 1

                         Standard orientation:
 ---------------------------------------------------------------------
 Center     Atomic      Atomic             Coordinates (Angstroms)
 Number     Number       Type             X           Y           Z
 ---------------------------------------------------------------------
      1          6           0       -4.354805    0.859478   -0.143801
      2          6           0       -3.588439    0.906482    1.025385
      3          6           0       -2.443523    0.114896    1.156172
      4          6           0       -2.092528   -0.716013    0.093306
      5          6           0       -2.835471   -0.785084   -1.084214
      6          6           0       -3.976542    0.015333   -1.193019
      7          1           0       -5.242710    1.477831   -0.236862
      8          1           0       -3.879810    1.561118    1.841840
      9          1           0       -1.832046    0.131662    2.050170
     10          1           0       -2.519799   -1.447533   -1.881038
     11          1           0       -4.569806   -0.023228   -2.102192
     12          7           0       -0.882492   -1.558704    0.220129
     13          8           0       -0.594557   -2.282398   -0.730659
     14          8           0       -0.244912   -1.479555    1.267920
     15          6           0        2.968717    0.017066    0.155149
     16          6           0        4.178300   -0.749907   -0.380244
     17          6           0        4.234485   -2.192110    0.124421
     18          1           0        2.996256    0.012209    1.253403
     19          1           0        2.050174   -0.510595   -0.136821
     20          1           0        5.094238   -0.220210   -0.088531
     21          1           0        4.147981   -0.743059   -1.477354
     22          1           0        3.337580   -2.741683   -0.179113
     23          1           0        4.289213   -2.215863    1.217601
     24          1           0        5.106920   -2.721950   -0.270534
     25          6           0        2.898692    1.460380   -0.340504
     26          6           0        1.689109    2.227354    0.194888
     27          6           0        1.632923    3.669557   -0.309776
     28          1           0        3.817235    1.988041   -0.048534
     29          1           0        2.871152    1.465237   -1.438758
     30          1           0        1.719428    2.220506    1.291998
     31          1           0        0.773171    1.697656   -0.096825
     32          1           0        1.578195    3.693310   -1.402956
     33          1           0        2.529828    4.219129   -0.006243
     34          1           0        0.760489    4.199396    0.085178
 ---------------------------------------------------------------------

 SCF Done:  E(RHF) =  -669.536239856     A.U. after   15 cycles
 E2 =    -0.2092414706D+01 EUMP2 =    -0.67162865456150D+03

 The electronic state is 1-A.
 Alpha  occ. eigenvalues --  -20.60993 -20.60971 -15.85996 -11.31324 -11.27878
 Alpha  occ. eigenvalues --  -11.27874 -11.27610 -11.26877 -11.26865 -11.21126
 Alpha  occ. eigenvalues --  -11.20781 -11.20608 -11.20477 -11.20075 -11.19757
 Alpha  occ. eigenvalues --   -1.60041  -1.39593  -1.19483  -1.08889  -1.07529
 Alpha  occ. eigenvalues --   -1.04873  -1.02684  -0.95731  -0.95117  -0.86275
 Alpha  occ. eigenvalues --   -0.86133  -0.82563  -0.78805  -0.77620  -0.77244
 Alpha  occ. eigenvalues --   -0.72211  -0.71363  -0.70586  -0.65135  -0.64875
 Alpha  occ. eigenvalues --   -0.64166  -0.62219  -0.60089  -0.58550  -0.56712
 Alpha  occ. eigenvalues --   -0.55379  -0.54398  -0.53207  -0.52963  -0.51880
 Alpha  occ. eigenvalues --   -0.51519  -0.49114  -0.48985  -0.48936  -0.47096
 Alpha  occ. eigenvalues --   -0.45862  -0.45219  -0.44734  -0.44447  -0.42905
 Alpha  occ. eigenvalues --   -0.37454  -0.36469
 Alpha virt. eigenvalues --    0.04877   0.11159   0.16373   0.21311   0.23558
 Alpha virt. eigenvalues --    0.25187   0.27204   0.27292   0.27825   0.28506
 Alpha virt. eigenvalues --    0.28836   0.31020   0.32201   0.32298   0.32371

 Mulliken charges:
               1
     1  C   -0.170353
     2  C   -0.218616
     3  C   -0.170115
     4  C    0.158794
     5  C   -0.171112
     6  C   -0.218580
     7  H    0.226178
     8  H    0.224073
     9  H    0.276546
    10  H    0.275808
    11  H    0.223924
    12  N    0.486571
    13  O   -0.461283
    14  O   -0.456707
    15  C   -0.301240
    16  C   -0.298963
    17  C   -0.476900
    18  H    0.150462
    19  H    0.166118
    20  H    0.145783
    21  H    0.148544
    22  H    0.168891
    23  H    0.154023
    24  H    0.153504
    25  C   -0.298643
    26  C   -0.296865
    27  C   -0.474620
    28  H    0.146230
    29  H    0.146909
    30  H    0.151457
    31  H    0.146136
    32  H    0.154029
    33  H    0.155008
    34  H    0.155009
 Sum of Mulliken charges =  -0.00000

 Dipole moment (field-independent basis, Debye):
    X=             -4.4939    Y=              2.7696    Z=             -0.3738  Tot=              5.2921
 Quadrupole moment (field-independent basis, Debye-Ang):
   XX=            -77.9192   YY=           -100.4829   ZZ=            -90.1828
   XY=             -2.9026   XZ=              1.9874   YZ=              3.1497

 Normal termination of Gaussian 16 at Wed May  5 23:49:48 2021.
