 Gaussian 16, Revision A.03,
 Gaussian 16:  EM64L-G16RevA.03 25-Dec-2016

 -------------
 #p 6-31g* mp2
 -------------

 ------------------------------------------------------
 Input file generated by CHIRIPA (05-May-2021 14:57:22)
 ------------------------------------------------------
 Symbolic Z-matrix:
 Charge =  0 Multiplicity = 1

                         Standard orientation:
 ---------------------------------------------------------------------
 Center     Atomic      Atomic             Coordinates (Angstroms)
 Number     Number       Type             X           Y           Z
 ---------------------------------------------------------------------
      1          6           0        1.723734    1.140598   -0.325066
      2          6           0        2.908097    1.878897   -0.231697
      3          6           0        4.143035    1.230749   -0.134841
      4          6           0        4.156836   -0.163202   -0.134247
      5          6           0        2.994094   -0.926692   -0.225924
      6          6           0        1.770430   -0.257376   -0.321887
      7          1           0        0.768783    1.652316   -0.399959
      8          1           0        2.874859    2.964685   -0.233928
      9          1           0        5.075168    1.777694   -0.061369
     10          1           0        3.059120   -2.007973   -0.221193
     11          1           0        0.852235   -0.833330   -0.394273
     12          7           0        5.458242   -0.860572   -0.032183
     13          8           0        5.443475   -2.089562   -0.033776
     14          8           0        6.468409   -0.164975    0.047476
     15          6           0       -5.873926   -1.326111   -0.712654
     16          6           0       -5.174397   -1.739665    0.425833
     17          6           0       -4.102516   -0.986019    0.913315
     18          6           0       -3.755610    0.181136    0.234570
     19          6           0       -4.433029    0.619452   -0.902211
     20          6           0       -5.501666   -0.149946   -1.371880
     21          1           0       -6.705329   -1.917679   -1.084424
     22          1           0       -5.461279   -2.652656    0.939826
     23          1           0       -3.543722   -1.282987    1.792507
     24          1           0       -4.123674    1.534136   -1.393202
     25          1           0       -6.043123    0.173656   -2.256274
     26          7           0       -2.622575    0.987326    0.741216
     27          8           0       -2.336686    2.011734    0.125188
     28          8           0       -2.041846    0.579543    1.744763
 ---------------------------------------------------------------------

 SCF Done:  E(RHF) =  -868.340320094     A.U. after   16 cycles
 E2 =    -0.2598461040D+01 EUMP2 =    -0.87093878113385D+03

 The electronic state is 1-A.
 Alpha  occ. eigenvalues --  -20.62012 -20.61990 -20.60089 -20.60083 -15.87008
 Alpha  occ. eigenvalues --  -15.85138 -11.32076 -11.30294 -11.28607 -11.28594
 Alpha  occ. eigenvalues --  -11.28272 -11.27537 -11.27525 -11.26884 -11.26867
 Alpha  occ. eigenvalues --  -11.26350 -11.25777 -11.25746  -1.61069  -1.59170
 Alpha  occ. eigenvalues --   -1.40623  -1.38730  -1.20217  -1.18440  -1.09666
 Alpha  occ. eigenvalues --   -1.07827  -1.05567  -1.03833  -0.96547  -0.94702
 Alpha  occ. eigenvalues --   -0.86978  -0.85217  -0.83383  -0.81564  -0.78471
 Alpha  occ. eigenvalues --   -0.76680  -0.73220  -0.72389  -0.71360  -0.71307
 Alpha  occ. eigenvalues --   -0.70492  -0.69421  -0.65864  -0.65556  -0.64076
 Alpha  occ. eigenvalues --   -0.63827  -0.62913  -0.61207  -0.56068  -0.54175
 Alpha  occ. eigenvalues --   -0.53911  -0.53646  -0.52150  -0.51918  -0.50000
 Alpha  occ. eigenvalues --   -0.49959  -0.48127  -0.48097  -0.46082  -0.44184
 Alpha  occ. eigenvalues --   -0.38177  -0.37158  -0.36328  -0.35457
 Alpha virt. eigenvalues --    0.03994   0.05880   0.10501   0.12220   0.15555
 Alpha virt. eigenvalues --    0.17448   0.20702   0.22476   0.26643   0.27551
 Alpha virt. eigenvalues --    0.28126   0.29463   0.30399   0.31681   0.32331

 Mulliken charges:
               1
     1  C   -0.173248
     2  C   -0.220561
     3  C   -0.171627
     4  C    0.156866
     5  C   -0.172154
     6  C   -0.217388
     7  H    0.245145
     8  H    0.223218
     9  H    0.272649
    10  H    0.271453
    11  H    0.219394
    12  N    0.488380
    13  O   -0.463589
    14  O   -0.462737
    15  C   -0.169543
    16  C   -0.218511
    17  C   -0.171516
    18  C    0.156216
    19  C   -0.170992
    20  C   -0.218443
    21  H    0.228876
    22  H    0.226552
    23  H    0.276861
    24  H    0.275663
    25  H    0.226136
    26  N    0.486570
    27  O   -0.466299
    28  O   -0.457373
 Sum of Mulliken charges =  -0.00000

 Dipole moment (field-independent basis, Debye):
    X=             -9.1633    Y=             -0.3509    Z=             -2.1127  Tot=              9.4102
 Quadrupole moment (field-independent basis, Debye-Ang):
   XX=           -112.9029   YY=           -101.0967   ZZ=           -103.9014
   XY=             23.7408   XZ=              5.9178   YZ=             -3.9383

 Normal termination of Gaussian 16 at Fri May  7 06:22:13 2021.
