 Gaussian 16, Revision A.03,
 Gaussian 16:  EM64L-G16RevA.03 25-Dec-2016

 -------------
 #p 6-31g* mp2
 -------------

 ------------------------------------------------------
 Input file generated by CHIRIPA (05-May-2021 14:57:21)
 ------------------------------------------------------
 Symbolic Z-matrix:
 Charge =  0 Multiplicity = 1

                         Standard orientation:
 ---------------------------------------------------------------------
 Center     Atomic      Atomic             Coordinates (Angstroms)
 Number     Number       Type             X           Y           Z
 ---------------------------------------------------------------------
      1          6           0       -1.217751   -2.209177   -0.430448
      2          6           0       -0.730892   -1.003528    0.085207
      3          6           0       -1.596437    0.068618    0.321605
      4          6           0       -2.949025   -0.100309    0.029614
      5          6           0       -3.464445   -1.288992   -0.484842
      6          6           0       -2.580571   -2.347816   -0.713327
      7          1           0       -0.538256   -3.036871   -0.611014
      8          1           0        0.327009   -0.893010    0.305834
      9          1           0       -1.246306    1.013051    0.720192
     10          1           0       -4.524104   -1.369148   -0.694882
     11          1           0       -2.961480   -3.282980   -1.113856
     12          7           0       -3.875041    1.027672    0.275690
     13          8           0       -5.062375    0.853508    0.010094
     14          8           0       -3.395983    2.064589    0.729501
     15          6           0        3.185987   -2.085908    0.777225
     16          6           0        3.258742   -1.768876   -0.583186
     17          6           0        3.044674   -0.457898   -1.019146
     18          6           0        2.758743    0.515542   -0.063140
     19          6           0        2.679410    0.231035    1.299230
     20          6           0        2.897062   -1.086703    1.712442
     21          1           0        3.353673   -3.106932    1.107053
     22          1           0        3.482945   -2.542828   -1.311729
     23          1           0        3.094957   -0.184791   -2.066191
     24          1           0        2.454028    1.024080    2.001868
     25          1           0        2.839926   -1.330013    2.769599
     26          7           0        2.530221    1.906993   -0.512630
     27          8           0        2.279907    2.746417    0.349546
     28          8           0        2.605747    2.131842   -1.718605
 ---------------------------------------------------------------------

 SCF Done:  E(RHF) =  -868.336349186     A.U. after   16 cycles
 E2 =    -0.2603685082D+01 EUMP2 =    -0.87094003426755D+03

 The electronic state is 1-A.
 Alpha  occ. eigenvalues --  -20.61591 -20.61585 -20.60524 -20.60501 -15.86653
 Alpha  occ. eigenvalues --  -15.85567 -11.32334 -11.31006 -11.28906 -11.28890
 Alpha  occ. eigenvalues --  -11.28712 -11.28007 -11.27967 -11.27591 -11.27510
 Alpha  occ. eigenvalues --  -11.27359 -11.26661 -11.26433  -1.60663  -1.59590
 Alpha  occ. eigenvalues --   -1.40204  -1.39140  -1.20599  -1.19175  -1.09883
 Alpha  occ. eigenvalues --   -1.08571  -1.05979  -1.04584  -0.96651  -0.95396
 Alpha  occ. eigenvalues --   -0.87327  -0.85987  -0.83447  -0.82227  -0.78455
 Alpha  occ. eigenvalues --   -0.77261  -0.72846  -0.72019  -0.71785  -0.71578
 Alpha  occ. eigenvalues --   -0.70914  -0.70321  -0.66158  -0.65903  -0.64827
 Alpha  occ. eigenvalues --   -0.64676  -0.63258  -0.62008  -0.56411  -0.55264
 Alpha  occ. eigenvalues --   -0.54452  -0.53995  -0.52927  -0.52237  -0.49636
 Alpha  occ. eigenvalues --   -0.49592  -0.48542  -0.48535  -0.45532  -0.44530
 Alpha  occ. eigenvalues --   -0.38630  -0.37723  -0.37135  -0.36132
 Alpha virt. eigenvalues --    0.04035   0.05277   0.09983   0.11449   0.15453
 Alpha virt. eigenvalues --    0.16763   0.20355   0.21744   0.26283   0.27205
 Alpha virt. eigenvalues --    0.27752   0.28306   0.30117   0.31362   0.31676

 Mulliken charges:
               1
     1  C   -0.175697
     2  C   -0.225726
     3  C   -0.177706
     4  C    0.159633
     5  C   -0.171941
     6  C   -0.218126
     7  H    0.218957
     8  H    0.239315
     9  H    0.279323
    10  H    0.275021
    11  H    0.221150
    12  N    0.487801
    13  O   -0.461873
    14  O   -0.457211
    15  C   -0.176662
    16  C   -0.221350
    17  C   -0.172045
    18  C    0.156049
    19  C   -0.186375
    20  C   -0.218049
    21  H    0.229655
    22  H    0.227330
    23  H    0.280756
    24  H    0.281213
    25  H    0.229894
    26  N    0.488159
    27  O   -0.456340
    28  O   -0.455154
 Sum of Mulliken charges =  -0.00000

 Dipole moment (field-independent basis, Debye):
    X=              4.3993    Y=             -8.6762    Z=              0.7255  Tot=              9.7548
 Quadrupole moment (field-independent basis, Debye-Ang):
   XX=           -117.0197   YY=           -108.0792   ZZ=           -100.4949
   XY=              0.1745   XZ=              7.6288   YZ=              3.5893

 Normal termination of Gaussian 16 at Thu May  6 06:31:24 2021.
