 Gaussian 16, Revision A.03,
 Gaussian 16:  EM64L-G16RevA.03 25-Dec-2016

 -------------
 #p 6-31g* mp2
 -------------

 ------------------------------------------------------
 Input file generated by CHIRIPA (05-May-2021 14:55:25)
 ------------------------------------------------------
 Symbolic Z-matrix:
 Charge =  0 Multiplicity = 1

                         Standard orientation:
 ---------------------------------------------------------------------
 Center     Atomic      Atomic             Coordinates (Angstroms)
 Number     Number       Type             X           Y           Z
 ---------------------------------------------------------------------
      1          6           0       -1.265672   -2.662307   -1.129001
      2          6           0       -2.212394   -1.738927   -1.584641
      3          6           0       -2.494169   -0.586960   -0.844288
      4          6           0       -1.807497   -0.389100    0.352635
      5          6           0       -0.858823   -1.290464    0.833104
      6          6           0       -0.593094   -2.435529    0.076292
      7          1           0       -1.053014   -3.554502   -1.710517
      8          1           0       -2.736259   -1.912449   -2.520323
      9          1           0       -3.222296    0.144323   -1.173643
     10          1           0       -0.352752   -1.090118    1.769678
     11          1           0        0.142645   -3.150915    0.432599
     12          7           0       -2.097306    0.826782    1.145125
     13          8           0       -1.478719    0.977988    2.196374
     14          8           0       -2.937559    1.605562    0.700025
     15          6           0        2.771300    0.445991    0.183813
     16          6           0        3.012631   -1.041570   -0.074851
     17          6           0        4.053162   -1.644578    0.869326
     18          1           0        3.720934    0.988512    0.079833
     19          1           0        2.445945    0.582001    1.224505
     20          1           0        3.336102   -1.174880   -1.115145
     21          1           0        2.062276   -1.580585    0.029569
     22          1           0        3.733785   -1.540885    1.911366
     23          1           0        5.014849   -1.132875    0.760148
     24          1           0        4.210136   -2.708644    0.666882
     25          6           0        1.733617    1.063110   -0.752193
     26          6           0        1.492286    2.550670   -0.493527
     27          6           0        0.451755    3.153678   -1.437704
     28          1           0        2.058972    0.927099   -1.792884
     29          1           0        0.783983    0.520589   -0.648212
     30          1           0        2.442641    3.089686   -0.597948
     31          1           0        1.168815    2.683980    0.546766
     32          1           0       -0.509931    2.641975   -1.328526
     33          1           0        0.771132    3.049985   -2.479744
     34          1           0        0.294781    4.217745   -1.235261
 ---------------------------------------------------------------------

 SCF Done:  E(RHF) =  -669.533911667     A.U. after   15 cycles
 E2 =    -0.2096753541D+01 EUMP2 =    -0.67163066520772D+03

 The electronic state is 1-A.
 Alpha  occ. eigenvalues --  -20.60978 -20.60971 -15.86004 -11.31332 -11.27916
 Alpha  occ. eigenvalues --  -11.27897 -11.27645 -11.26922 -11.26904 -11.21782
 Alpha  occ. eigenvalues --  -11.21385 -11.21354 -11.21162 -11.21094 -11.20611
 Alpha  occ. eigenvalues --   -1.60035  -1.39590  -1.19545  -1.08927  -1.08347
 Alpha  occ. eigenvalues --   -1.04941  -1.03442  -0.95895  -0.95758  -0.86915
 Alpha  occ. eigenvalues --   -0.86325  -0.82603  -0.79537  -0.78131  -0.77642
 Alpha  occ. eigenvalues --   -0.72223  -0.71375  -0.70625  -0.65199  -0.65040
 Alpha  occ. eigenvalues --   -0.64914  -0.62290  -0.60823  -0.59298  -0.57491
 Alpha  occ. eigenvalues --   -0.55415  -0.55232  -0.53359  -0.53017  -0.52572
 Alpha  occ. eigenvalues --   -0.52299  -0.49870  -0.48986  -0.48982  -0.47848
 Alpha  occ. eigenvalues --   -0.46613  -0.45624  -0.45521  -0.44938  -0.43670
 Alpha  occ. eigenvalues --   -0.37454  -0.36405
 Alpha virt. eigenvalues --    0.04848   0.10994   0.16208   0.20496   0.23002
 Alpha virt. eigenvalues --    0.23990   0.26321   0.27035   0.27889   0.28133
 Alpha virt. eigenvalues --    0.28646   0.30385   0.31397   0.31776   0.32425

 Mulliken charges:
               1
     1  C   -0.171713
     2  C   -0.217193
     3  C   -0.172345
     4  C    0.159797
     5  C   -0.173873
     6  C   -0.214531
     7  H    0.226833
     8  H    0.224502
     9  H    0.276587
    10  H    0.276414
    11  H    0.225631
    12  N    0.489222
    13  O   -0.460045
    14  O   -0.459270
    15  C   -0.299155
    16  C   -0.305669
    17  C   -0.475701
    18  H    0.150758
    19  H    0.152028
    20  H    0.151281
    21  H    0.148621
    22  H    0.154204
    23  H    0.158378
    24  H    0.156078
    25  C   -0.304236
    26  C   -0.304499
    27  C   -0.475457
    28  H    0.146283
    29  H    0.154626
    30  H    0.149937
    31  H    0.162897
    32  H    0.155693
    33  H    0.150266
    34  H    0.163648
 Sum of Mulliken charges =  -0.00000

 Dipole moment (field-independent basis, Debye):
    X=              0.8395    Y=             -4.2504    Z=             -2.7472  Tot=              5.1301
 Quadrupole moment (field-independent basis, Debye-Ang):
   XX=            -96.8402   YY=            -91.6947   ZZ=            -94.7839
   XY=              7.1328   XZ=              7.3318   YZ=             -0.9896

 Normal termination of Gaussian 16 at Thu May  6 17:45:38 2021.
