 Gaussian 16, Revision A.03,
 Gaussian 16:  EM64L-G16RevA.03 25-Dec-2016

 -------------
 #p 6-31g* mp2
 -------------

 ------------------------------------------------------
 Input file generated by CHIRIPA (05-May-2021 14:51:08)
 ------------------------------------------------------
 Symbolic Z-matrix:
 Charge =  0 Multiplicity = 1

                         Standard orientation:
 ---------------------------------------------------------------------
 Center     Atomic      Atomic             Coordinates (Angstroms)
 Number     Number       Type             X           Y           Z
 ---------------------------------------------------------------------
      1          6           0       -2.624419    1.573759   -0.057378
      2          6           0       -1.282422    2.069389    0.482417
      3          6           0       -1.162983    3.593545    0.460549
      4          1           0       -2.756288    1.938601   -1.085213
      5          1           0       -3.436355    2.014674    0.537391
      6          1           0       -0.473208    1.626581   -0.112319
      7          1           0       -1.153647    1.703165    1.509019
      8          1           0       -1.949844    4.050398    1.069430
      9          1           0       -1.265539    3.973379   -0.561121
     10          1           0       -0.195990    3.926102    0.850665
     11          6           0       -2.758902    0.052114   -0.041942
     12          6           0       -4.100900   -0.443516   -0.581736
     13          6           0       -4.220338   -1.967672   -0.559868
     14          1           0       -1.946966   -0.388801   -0.636710
     15          1           0       -2.627034   -0.312729    0.985894
     16          1           0       -4.229674   -0.077292   -1.608339
     17          1           0       -4.910113   -0.000708    0.013000
     18          1           0       -4.117782   -2.347506    0.461801
     19          1           0       -3.433477   -2.424526   -1.168749
     20          1           0       -5.187331   -2.300229   -0.949985
     21          6           0        2.306346   -1.271481    0.523687
     22          6           0        0.958349   -1.727291   -0.035889
     23          6           0        0.199349   -2.644046    0.923941
     24          1           0        2.919148   -2.154437    0.751297
     25          1           0        2.142423   -0.750545    1.477180
     26          1           0        1.124642   -2.246001   -0.988729
     27          1           0        0.348757   -0.843144   -0.262373
     28          1           0        0.004360   -2.132477    1.872032
     29          1           0        0.784653   -3.543305    1.141549
     30          1           0       -0.761356   -2.957938    0.503967
     31          6           0        3.076976   -0.354392   -0.424367
     32          6           0        4.424972    0.101419    0.135209
     33          6           0        5.183972    1.018173   -0.824622
     34          1           0        3.240898   -0.875328   -1.377862
     35          1           0        2.464172    0.528563   -0.651978
     36          1           0        5.034563   -0.782730    0.361692
     37          1           0        4.258679    0.620129    1.088048
     38          1           0        4.598668    1.917432   -1.042230
     39          1           0        5.378962    0.506604   -1.772713
     40          1           0        6.144678    1.332065   -0.404649
 ---------------------------------------------------------------------

 SCF Done:  E(RHF) =  -470.732872280     A.U. after   11 cycles
 E2 =    -0.1584356020D+01 EUMP2 =    -0.47231722829963D+03

 The electronic state is 1-A.
 Alpha  occ. eigenvalues --  -11.21687 -11.21619 -11.21589 -11.21503 -11.21433
 Alpha  occ. eigenvalues --  -11.21380 -11.21351 -11.21310 -11.21137 -11.21100
 Alpha  occ. eigenvalues --  -11.21064 -11.20987  -1.08491  -1.08378  -1.03578
 Alpha  occ. eigenvalues --   -1.03488  -0.96028  -0.95932  -0.87039  -0.86954
 Alpha  occ. eigenvalues --   -0.79648  -0.79565  -0.78400  -0.78112  -0.65208
 Alpha  occ. eigenvalues --   -0.64937  -0.60979  -0.60892  -0.59435  -0.59272
 Alpha  occ. eigenvalues --   -0.57664  -0.57528  -0.55320  -0.55215  -0.52729
 Alpha  occ. eigenvalues --   -0.52625  -0.52441  -0.52365  -0.49983  -0.49872
 Alpha  occ. eigenvalues --   -0.48002  -0.47859  -0.46804  -0.46685  -0.46103
 Alpha  occ. eigenvalues --   -0.45782  -0.45711  -0.45080  -0.43822  -0.43737
 Alpha virt. eigenvalues --    0.20596   0.22298   0.23680   0.24247   0.25107
 Alpha virt. eigenvalues --    0.26435   0.26988   0.27417   0.27861   0.29846
 Alpha virt. eigenvalues --    0.31119   0.31533   0.31614   0.31804   0.32710

 Mulliken charges:
               1
     1  C   -0.298268
     2  C   -0.304077
     3  C   -0.475529
     4  H    0.149542
     5  H    0.149740
     6  H    0.154934
     7  H    0.151830
     8  H    0.155643
     9  H    0.155469
    10  H    0.160109
    11  C   -0.304608
    12  C   -0.299254
    13  C   -0.476824
    14  H    0.156344
    15  H    0.150885
    16  H    0.151840
    17  H    0.151917
    18  H    0.155893
    19  H    0.155453
    20  H    0.160469
    21  C   -0.297110
    22  C   -0.309092
    23  C   -0.476505
    24  H    0.149391
    25  H    0.149634
    26  H    0.150600
    27  H    0.161254
    28  H    0.154615
    29  H    0.154413
    30  H    0.162481
    31  C   -0.299642
    32  C   -0.299566
    33  C   -0.475725
    34  H    0.149356
    35  H    0.149917
    36  H    0.152028
    37  H    0.151996
    38  H    0.155115
    39  H    0.155099
    40  H    0.160233
 Sum of Mulliken charges =  -0.00000

 Dipole moment (field-independent basis, Debye):
    X=             -0.0438    Y=              0.0159    Z=              0.0001  Tot=              0.0466
 Quadrupole moment (field-independent basis, Debye-Ang):
   XX=            -84.9402   YY=            -85.7996   ZZ=            -84.0545
   XY=             -1.0681   XZ=             -0.1838   YZ=              0.7377

 Normal termination of Gaussian 16 at Thu May  6 02:06:53 2021.
