 Gaussian 16, Revision A.03,
 Gaussian 16:  EM64L-G16RevA.03 25-Dec-2016

 -------------
 #p 6-31g* mp2
 -------------

 ------------------------------------------------------
 Input file generated by CHIRIPA (05-May-2021 14:57:25)
 ------------------------------------------------------
 Symbolic Z-matrix:
 Charge =  0 Multiplicity = 1

                         Standard orientation:
 ---------------------------------------------------------------------
 Center     Atomic      Atomic             Coordinates (Angstroms)
 Number     Number       Type             X           Y           Z
 ---------------------------------------------------------------------
      1          6           0       -6.295949   -1.015407   -0.408138
      2          6           0       -5.256153   -1.051611   -1.343036
      3          6           0       -4.015197   -0.479680   -1.047280
      4          6           0       -3.848027    0.122951    0.198586
      5          6           0       -4.864565    0.175121    1.151066
      6          6           0       -6.097187   -0.403235    0.833740
      7          1           0       -7.256716   -1.462192   -0.646266
      8          1           0       -5.407660   -1.526357   -2.308285
      9          1           0       -3.193072   -0.493503   -1.752500
     10          1           0       -4.683459    0.655478    2.104941
     11          1           0       -6.902908   -0.373629    1.561739
     12          7           0       -2.538695    0.731830    0.523107
     13          8           0       -2.416811    1.256749    1.627753
     14          8           0       -1.659116    0.672621   -0.333323
     15          6           0        2.530710    1.783764   -1.012593
     16          6           0        2.160176    0.439361   -1.121246
     17          6           0        3.001763   -0.569874   -0.644043
     18          6           0        4.212036   -0.197233   -0.061235
     19          6           0        4.609295    1.133332    0.061539
     20          6           0        3.751935    2.125856   -0.422588
     21          1           0        1.870819    2.561271   -1.385985
     22          1           0        1.212354    0.170747   -1.578987
     23          1           0        2.739689   -1.618517   -0.715348
     24          1           0        5.560427    1.370103    0.522738
     25          1           0        4.042294    3.169114   -0.336863
     26          7           0        5.111337   -1.256819    0.447623
     27          8           0        6.172273   -0.902351    0.956940
     28          8           0        4.738244   -2.421727    0.327514
 ---------------------------------------------------------------------

 SCF Done:  E(RHF) =  -868.339522585     A.U. after   16 cycles
 E2 =    -0.2598309653D+01 EUMP2 =    -0.87093783223843D+03

 The electronic state is 1-A.
 Alpha  occ. eigenvalues --  -20.61589 -20.61527 -20.59981 -20.59976 -15.86608
 Alpha  occ. eigenvalues --  -15.85025 -11.31772 -11.30177 -11.28343 -11.28292
 Alpha  occ. eigenvalues --  -11.28007 -11.27290 -11.27263 -11.26739 -11.26667
 Alpha  occ. eigenvalues --  -11.26331 -11.25717 -11.25531  -1.60623  -1.59060
 Alpha  occ. eigenvalues --   -1.40187  -1.38620  -1.19922  -1.18304  -1.09350
 Alpha  occ. eigenvalues --   -1.07723  -1.05297  -1.03672  -0.96222  -0.94606
 Alpha  occ. eigenvalues --   -0.86704  -0.85068  -0.83067  -0.81449  -0.78139
 Alpha  occ. eigenvalues --   -0.76537  -0.72846  -0.71930  -0.71251  -0.71028
 Alpha  occ. eigenvalues --   -0.70378  -0.69395  -0.65581  -0.65296  -0.63949
 Alpha  occ. eigenvalues --   -0.63644  -0.62651  -0.61027  -0.55796  -0.54141
 Alpha  occ. eigenvalues --   -0.53633  -0.53387  -0.52010  -0.51750  -0.49598
 Alpha  occ. eigenvalues --   -0.49552  -0.48017  -0.47984  -0.45636  -0.44075
 Alpha  occ. eigenvalues --   -0.37884  -0.36891  -0.36237  -0.35262
 Alpha virt. eigenvalues --    0.04389   0.05981   0.10767   0.12399   0.15925
 Alpha virt. eigenvalues --    0.17556   0.20895   0.22537   0.26823   0.27574
 Alpha virt. eigenvalues --    0.28535   0.29382   0.30489   0.31742   0.32407

 Mulliken charges:
               1
     1  C   -0.170006
     2  C   -0.218217
     3  C   -0.170451
     4  C    0.158209
     5  C   -0.170292
     6  C   -0.218341
     7  H    0.227716
     8  H    0.224752
     9  H    0.271903
    10  H    0.276885
    11  H    0.225558
    12  N    0.491816
    13  O   -0.455551
    14  O   -0.472780
    15  C   -0.168487
    16  C   -0.212692
    17  C   -0.173483
    18  C    0.158099
    19  C   -0.172748
    20  C   -0.218839
    21  H    0.227641
    22  H    0.233651
    23  H    0.271760
    24  H    0.272006
    25  H    0.220119
    26  N    0.488281
    27  O   -0.463265
    28  O   -0.463246
 Sum of Mulliken charges =  -0.00000

 Dipole moment (field-independent basis, Debye):
    X=             -8.3153    Y=              1.6482    Z=             -2.9180  Tot=              8.9652
 Quadrupole moment (field-independent basis, Debye-Ang):
   XX=            -94.5663   YY=           -105.2380   ZZ=           -101.3707
   XY=             26.6828   XZ=             -4.8247   YZ=              2.1952

 Normal termination of Gaussian 16 at Thu May  6 14:42:38 2021.
