 Gaussian 16, Revision A.03,
 Gaussian 16:  EM64L-G16RevA.03 25-Dec-2016

 -------------
 #p 6-31g* mp2
 -------------

 ------------------------------------------------------
 Input file generated by CHIRIPA (05-May-2021 14:51:12)
 ------------------------------------------------------
 Symbolic Z-matrix:
 Charge =  0 Multiplicity = 1

                         Standard orientation:
 ---------------------------------------------------------------------
 Center     Atomic      Atomic             Coordinates (Angstroms)
 Number     Number       Type             X           Y           Z
 ---------------------------------------------------------------------
      1          6           0       -2.638395   -0.722131    0.687639
      2          6           0       -1.777689   -1.914459    0.268682
      3          6           0       -1.660495   -2.973328    1.365430
      4          1           0       -2.210546   -0.269119    1.592443
      5          1           0       -3.640476   -1.080359    0.961322
      6          1           0       -0.777948   -1.553924   -0.005453
      7          1           0       -2.207528   -2.364568   -0.635340
      8          1           0       -2.648587   -3.360871    1.633916
      9          1           0       -1.210885   -2.545621    2.267382
     10          1           0       -1.040976   -3.816654    1.044716
     11          6           0       -2.765017    0.344912   -0.398232
     12          6           0       -3.625723    1.537239    0.020725
     13          6           0       -3.742917    2.596108   -1.076023
     14          1           0       -1.762936    0.703140   -0.671915
     15          1           0       -3.192866   -0.108100   -1.303036
     16          1           0       -3.195884    1.987348    0.924747
     17          1           0       -4.625464    1.176704    0.294859
     18          1           0       -4.192527    2.168401   -1.977976
     19          1           0       -2.754825    2.983651   -1.344509
     20          1           0       -4.362436    3.439435   -0.755309
     21          6           0        3.107959    0.716092    0.229667
     22          6           0        2.471902    2.106213    0.198399
     23          6           0        3.296339    3.150612    0.951612
     24          1           0        3.234797    0.401291    1.274538
     25          1           0        4.115807    0.771798   -0.204538
     26          1           0        1.465022    2.047629    0.631270
     27          1           0        2.346387    2.417661   -0.846523
     28          1           0        4.297105    3.238426    0.516458
     29          1           0        3.410733    2.866291    2.002647
     30          1           0        2.823391    4.136993    0.916528
     31          6           0        2.295453   -0.338872   -0.519074
     32          6           0        2.931510   -1.728994   -0.487806
     33          6           0        2.107072   -2.773392   -1.241018
     34          1           0        1.287606   -0.394579   -0.084870
     35          1           0        2.168615   -0.024071   -1.563946
     36          1           0        3.057025   -2.040441    0.557116
     37          1           0        3.938390   -1.670409   -0.920677
     38          1           0        1.992680   -2.489072   -2.292054
     39          1           0        1.106308   -2.861207   -0.805865
     40          1           0        2.580021   -3.759774   -1.205935
 ---------------------------------------------------------------------

 SCF Done:  E(RHF) =  -470.732781736     A.U. after   11 cycles
 E2 =    -0.1584034497D+01 EUMP2 =    -0.47231681623297D+03

 The electronic state is 1-A.
 Alpha  occ. eigenvalues --  -11.21663 -11.21620 -11.21603 -11.21596 -11.21452
 Alpha  occ. eigenvalues --  -11.21417 -11.21392 -11.21354 -11.21115 -11.21115
 Alpha  occ. eigenvalues --  -11.21065 -11.21033  -1.08494  -1.08430  -1.03595
 Alpha  occ. eigenvalues --   -1.03518  -0.96028  -0.95978  -0.87031  -0.87006
 Alpha  occ. eigenvalues --   -0.79710  -0.79547  -0.78396  -0.78157  -0.65286
 Alpha  occ. eigenvalues --   -0.64929  -0.61147  -0.60793  -0.59439  -0.59300
 Alpha  occ. eigenvalues --   -0.57711  -0.57525  -0.55337  -0.55235  -0.52699
 Alpha  occ. eigenvalues --   -0.52691  -0.52467  -0.52385  -0.49963  -0.49936
 Alpha  occ. eigenvalues --   -0.48133  -0.47820  -0.46945  -0.46501  -0.46145
 Alpha  occ. eigenvalues --   -0.45793  -0.45770  -0.45113  -0.43822  -0.43792
 Alpha virt. eigenvalues --    0.20408   0.22702   0.23582   0.25111   0.25119
 Alpha virt. eigenvalues --    0.26468   0.27005   0.27141   0.28658   0.30156
 Alpha virt. eigenvalues --    0.30584   0.30771   0.31691   0.31749   0.31977

 Mulliken charges:
               1
     1  C   -0.297116
     2  C   -0.311586
     3  C   -0.477126
     4  H    0.148792
     5  H    0.149698
     6  H    0.162179
     7  H    0.152632
     8  H    0.155874
     9  H    0.154695
    10  H    0.161338
    11  C   -0.299753
    12  C   -0.299556
    13  C   -0.475795
    14  H    0.150778
    15  H    0.149887
    16  H    0.151709
    17  H    0.151942
    18  H    0.155178
    19  H    0.155524
    20  H    0.160196
    21  C   -0.297652
    22  C   -0.299879
    23  C   -0.475721
    24  H    0.149668
    25  H    0.149974
    26  H    0.151157
    27  H    0.152121
    28  H    0.155468
    29  H    0.155275
    30  H    0.160384
    31  C   -0.306164
    32  C   -0.299365
    33  C   -0.482754
    34  H    0.155792
    35  H    0.149922
    36  H    0.151799
    37  H    0.152109
    38  H    0.155096
    39  H    0.163211
    40  H    0.160068
 Sum of Mulliken charges =  -0.00000

 Dipole moment (field-independent basis, Debye):
    X=              0.0042    Y=             -0.0018    Z=             -0.0122  Tot=              0.0131
 Quadrupole moment (field-independent basis, Debye-Ang):
   XX=            -84.0892   YY=            -85.9925   ZZ=            -84.6492
   XY=              0.2999   XZ=             -0.4660   YZ=              0.1373

 Normal termination of Gaussian 16 at Thu May  6 05:29:40 2021.
