 Gaussian 16, Revision A.03,
 Gaussian 16:  EM64L-G16RevA.03 25-Dec-2016

 -------------
 #p 6-31g* mp2
 -------------

 ------------------------------------------------------
 Input file generated by CHIRIPA (05-May-2021 14:53:14)
 ------------------------------------------------------
 Symbolic Z-matrix:
 Charge =  0 Multiplicity = 1

                         Standard orientation:
 ---------------------------------------------------------------------
 Center     Atomic      Atomic             Coordinates (Angstroms)
 Number     Number       Type             X           Y           Z
 ---------------------------------------------------------------------
      1          6           0       -5.343033    0.040767    0.055225
      2          6           0       -5.818586    1.407281   -0.439218
      3          6           0       -7.314835    1.628886   -0.215786
      4          1           0       -5.912376   -0.746251   -0.457996
      5          1           0       -5.572957   -0.054507    1.125483
      6          1           0       -5.586586    1.500495   -1.507910
      7          1           0       -5.247910    2.191133    0.075099
      8          1           0       -7.559252    1.562691    0.849334
      9          1           0       -7.899852    0.868130   -0.742670
     10          1           0       -7.633360    2.611884   -0.576503
     11          6           0       -3.849376   -0.195613   -0.161207
     12          6           0       -3.373823   -1.562127    0.333236
     13          6           0       -1.877573   -1.783733    0.109804
     14          1           0       -3.619452   -0.100339   -1.231465
     15          1           0       -3.280032    0.591405    0.352014
     16          1           0       -3.944498   -2.345979   -0.181081
     17          1           0       -3.605822   -1.655342    1.401928
     18          1           0       -1.292557   -1.022976    0.636688
     19          1           0       -1.633157   -1.717538   -0.955316
     20          1           0       -1.559049   -2.766731    0.470521
     21          6           0        5.211318    1.986567   -0.131831
     22          6           0        5.396590    0.843192   -0.915979
     23          6           0        4.504968   -0.230055   -0.828241
     24          6           0        3.434117   -0.125720    0.058147
     25          6           0        3.222644    1.000025    0.852670
     26          6           0        4.126849    2.061203    0.748439
     27          1           0        5.908840    2.815603   -0.206394
     28          1           0        6.237913    0.782456   -1.600474
     29          1           0        4.624678   -1.127066   -1.423606
     30          1           0        2.374582    1.031358    1.525893
     31          1           0        3.980478    2.947921    1.358646
     32          7           0        2.483536   -1.255529    0.159761
     33          8           0        1.548043   -1.138947    0.948366
     34          8           0        2.691964   -2.236263   -0.551123
 ---------------------------------------------------------------------

 SCF Done:  E(RHF) =  -669.535709437     A.U. after   15 cycles
 E2 =    -0.2090875257D+01 EUMP2 =    -0.67162658469355D+03

 The electronic state is 1-A.
 Alpha  occ. eigenvalues --  -20.60861 -20.60848 -15.85892 -11.31250 -11.27820
 Alpha  occ. eigenvalues --  -11.27814 -11.27560 -11.26833 -11.26823 -11.21164
 Alpha  occ. eigenvalues --  -11.20792 -11.20719 -11.20607 -11.20488 -11.19420
 Alpha  occ. eigenvalues --   -1.59916  -1.39473  -1.19421  -1.08818  -1.07707
 Alpha  occ. eigenvalues --   -1.04824  -1.02696  -0.95658  -0.95104  -0.86225
 Alpha  occ. eigenvalues --   -0.86109  -0.82490  -0.78789  -0.77546  -0.77475
 Alpha  occ. eigenvalues --   -0.72115  -0.71232  -0.70531  -0.65078  -0.64827
 Alpha  occ. eigenvalues --   -0.64350  -0.62172  -0.60099  -0.58557  -0.56717
 Alpha  occ. eigenvalues --   -0.55327  -0.54399  -0.53154  -0.52917  -0.51762
 Alpha  occ. eigenvalues --   -0.51538  -0.49126  -0.48868  -0.48798  -0.47085
 Alpha  occ. eigenvalues --   -0.45865  -0.45096  -0.44964  -0.44711  -0.42939
 Alpha  occ. eigenvalues --   -0.37401  -0.36427
 Alpha virt. eigenvalues --    0.04977   0.11228   0.16453   0.21350   0.23519
 Alpha virt. eigenvalues --    0.25185   0.27252   0.27333   0.28083   0.28224
 Alpha virt. eigenvalues --    0.29019   0.30898   0.32149   0.32385   0.32621

 Mulliken charges:
               1
     1  C   -0.297381
     2  C   -0.298847
     3  C   -0.475233
     4  H    0.148890
     5  H    0.148429
     6  H    0.150952
     7  H    0.150159
     8  H    0.154564
     9  H    0.154901
    10  H    0.158311
    11  C   -0.296863
    12  C   -0.301537
    13  C   -0.472510
    14  H    0.147655
    15  H    0.147076
    16  H    0.147771
    17  H    0.148793
    18  H    0.166981
    19  H    0.149677
    20  H    0.164891
    21  C   -0.170730
    22  C   -0.218535
    23  C   -0.170789
    24  C    0.158177
    25  C   -0.170740
    26  C   -0.218491
    27  H    0.225814
    28  H    0.223664
    29  H    0.275805
    30  H    0.275213
    31  H    0.223611
    32  N    0.489930
    33  O   -0.460288
    34  O   -0.459319
 Sum of Mulliken charges =  -0.00000

 Dipole moment (field-independent basis, Debye):
    X=              3.6593    Y=              3.9252    Z=             -0.3197  Tot=              5.3758
 Quadrupole moment (field-independent basis, Debye-Ang):
   XX=            -73.1984   YY=            -94.9422   ZZ=            -92.1224
   XY=             12.4810   XZ=             -3.0155   YZ=              2.6375

 Normal termination of Gaussian 16 at Wed May  5 20:14:17 2021.
