 Gaussian 16, Revision A.03,
 Gaussian 16:  EM64L-G16RevA.03 25-Dec-2016

 -------------
 #p 6-31g* mp2
 -------------

 ------------------------------------------------------
 Input file generated by CHIRIPA (05-May-2021 14:53:13)
 ------------------------------------------------------
 Symbolic Z-matrix:
 Charge =  0 Multiplicity = 1

                         Standard orientation:
 ---------------------------------------------------------------------
 Center     Atomic      Atomic             Coordinates (Angstroms)
 Number     Number       Type             X           Y           Z
 ---------------------------------------------------------------------
      1          6           0        3.431479   -0.852082    0.658993
      2          6           0        1.948077   -1.098418    0.936162
      3          6           0        1.713558   -2.233332    1.933540
      4          1           0        3.885207   -1.777025    0.277473
      5          1           0        3.940681   -0.621221    1.604938
      6          1           0        1.441565   -1.327386   -0.010218
      7          1           0        1.497786   -0.172727    1.316885
      8          1           0        2.193049   -2.009195    2.891899
      9          1           0        2.136508   -3.170414    1.557256
     10          1           0        0.646376   -2.392352    2.117106
     11          6           0        3.682070    0.279528   -0.336192
     12          6           0        5.165472    0.525863   -0.613361
     13          6           0        5.399991    1.660777   -1.610739
     14          1           0        3.172868    0.048667   -1.282137
     15          1           0        3.228342    1.204470    0.045328
     16          1           0        5.615763   -0.399828   -0.994084
     17          1           0        5.671984    0.754831    0.333019
     18          1           0        4.977041    2.597860   -1.234455
     19          1           0        4.920500    1.436640   -2.569098
     20          1           0        6.467173    1.819797   -1.794305
     21          6           0       -2.479464    2.411485    1.094463
     22          6           0       -3.686373    2.131508    0.445230
     23          6           0       -3.863329    0.922504   -0.234140
     24          6           0       -2.807662    0.012143   -0.244093
     25          6           0       -1.593293    0.261998    0.393222
     26          6           0       -1.438611    1.477483    1.066436
     27          1           0       -2.350652    3.353186    1.619823
     28          1           0       -4.496438    2.854997    0.465334
     29          1           0       -4.787182    0.680086   -0.745166
     30          1           0       -0.803945   -0.478906    0.355666
     31          1           0       -0.500208    1.692226    1.569757
     32          7           0       -2.983207   -1.271205   -0.960054
     33          8           0       -2.037827   -2.056609   -0.954036
     34          8           0       -4.062856   -1.467392   -1.513685
 ---------------------------------------------------------------------

 SCF Done:  E(RHF) =  -669.535248128     A.U. after   15 cycles
 E2 =    -0.2092327588D+01 EUMP2 =    -0.67162757571578D+03

 The electronic state is 1-A.
 Alpha  occ. eigenvalues --  -20.60733 -20.60727 -15.85779 -11.31087 -11.27684
 Alpha  occ. eigenvalues --  -11.27582 -11.27431 -11.26695 -11.26667 -11.22222
 Alpha  occ. eigenvalues --  -11.21873 -11.21798 -11.21719 -11.21384 -11.21298
 Alpha  occ. eigenvalues --   -1.59805  -1.39360  -1.19273  -1.08830  -1.08684
 Alpha  occ. eigenvalues --   -1.04678  -1.03905  -0.96312  -0.95521  -0.87323
 Alpha  occ. eigenvalues --   -0.86078  -0.82365  -0.80037  -0.78684  -0.77375
 Alpha  occ. eigenvalues --   -0.72001  -0.71126  -0.70392  -0.65464  -0.64926
 Alpha  occ. eigenvalues --   -0.64687  -0.62096  -0.61287  -0.59649  -0.57930
 Alpha  occ. eigenvalues --   -0.55573  -0.55180  -0.53014  -0.53006  -0.52775
 Alpha  occ. eigenvalues --   -0.52711  -0.50239  -0.48763  -0.48755  -0.48282
 Alpha  occ. eigenvalues --   -0.47033  -0.46182  -0.46084  -0.44776  -0.44148
 Alpha  occ. eigenvalues --   -0.37268  -0.36271
 Alpha virt. eigenvalues --    0.05114   0.11359   0.16615   0.20016   0.22744
 Alpha virt. eigenvalues --    0.23906   0.24838   0.26098   0.27140   0.28324
 Alpha virt. eigenvalues --    0.29376   0.29719   0.31465   0.31557   0.32214

 Mulliken charges:
               1
     1  C   -0.296066
     2  C   -0.314972
     3  C   -0.476436
     4  H    0.154670
     5  H    0.149707
     6  H    0.162685
     7  H    0.140320
     8  H    0.154547
     9  H    0.162097
    10  H    0.164041
    11  C   -0.298850
    12  C   -0.300064
    13  C   -0.475928
    14  H    0.153241
    15  H    0.144503
    16  H    0.154188
    17  H    0.151629
    18  H    0.153709
    19  H    0.156897
    20  H    0.161352
    21  C   -0.170374
    22  C   -0.219391
    23  C   -0.169794
    24  C    0.157471
    25  C   -0.181408
    26  C   -0.226257
    27  H    0.225223
    28  H    0.223064
    29  H    0.275224
    30  H    0.295546
    31  H    0.224484
    32  N    0.487324
    33  O   -0.461966
    34  O   -0.460416
 Sum of Mulliken charges =  -0.00000

 Dipole moment (field-independent basis, Debye):
    X=              0.7851    Y=              4.3702    Z=              2.4660  Tot=              5.0789
 Quadrupole moment (field-independent basis, Debye-Ang):
   XX=            -93.7430   YY=            -94.7707   ZZ=            -96.3756
   XY=            -14.8673   XZ=             -5.8188   YZ=             -0.4429

 Normal termination of Gaussian 16 at Wed May  5 15:31:26 2021.
