 Gaussian 16, Revision A.03,
 Gaussian 16:  EM64L-G16RevA.03 25-Dec-2016

 -------------
 #p 6-31g* mp2
 -------------

 ------------------------------------------------------
 Input file generated by CHIRIPA (05-May-2021 14:51:10)
 ------------------------------------------------------
 Symbolic Z-matrix:
 Charge =  0 Multiplicity = 1

                         Standard orientation:
 ---------------------------------------------------------------------
 Center     Atomic      Atomic             Coordinates (Angstroms)
 Number     Number       Type             X           Y           Z
 ---------------------------------------------------------------------
      1          6           0       -5.174245   -0.590357    0.205801
      2          6           0       -6.385166   -0.211649   -0.647566
      3          6           0       -7.500740   -1.255500   -0.587031
      4          1           0       -4.787278   -1.562494   -0.129088
      5          1           0       -5.496227   -0.724253    1.247816
      6          1           0       -6.060747   -0.077155   -1.687411
      7          1           0       -6.769179    0.759790   -0.310731
      8          1           0       -7.852394   -1.384300    0.441731
      9          1           0       -7.139936   -2.226000   -0.942771
     10          1           0       -8.356550   -0.964725   -1.204201
     11          6           0       -4.050589    0.443376    0.155577
     12          6           0       -2.839668    0.064668    1.008944
     13          6           0       -1.724095    1.108519    0.948409
     14          1           0       -3.728607    0.577272   -0.886438
     15          1           0       -4.437557    1.415513    0.490466
     16          1           0       -2.455655   -0.906770    0.672110
     17          1           0       -3.164087   -0.069826    2.048790
     18          1           0       -2.084898    2.079019    1.304150
     19          1           0       -1.372441    1.237320   -0.080352
     20          1           0       -0.868284    0.817744    1.565579
     21          6           0        5.057211   -0.425782    0.188523
     22          6           0        6.442380   -0.583795   -0.439429
     23          6           0        7.320553   -1.585954    0.310427
     24          1           0        5.169692   -0.106727    1.233748
     25          1           0        4.559281   -1.405010    0.212484
     26          1           0        6.937003    0.395687   -0.463461
     27          1           0        6.326582   -0.902326   -1.483338
     28          1           0        6.851740   -2.575227    0.322842
     29          1           0        7.465629   -1.269839    1.348514
     30          1           0        8.306118   -1.683405   -0.155431
     31          6           0        4.167624    0.572763   -0.549902
     32          6           0        2.782455    0.730776    0.078051
     33          6           0        1.904282    1.732935   -0.671804
     34          1           0        4.665554    1.551990   -0.573862
     35          1           0        4.055142    0.253708   -1.595127
     36          1           0        2.898252    1.049307    1.121960
     37          1           0        2.287830   -0.248706    0.102083
     38          1           0        1.759205    1.416820   -1.709892
     39          1           0        2.373095    2.722207   -0.684221
     40          1           0        0.918716    1.830387   -0.205947
 ---------------------------------------------------------------------

 SCF Done:  E(RHF) =  -470.732939825     A.U. after   11 cycles
 E2 =    -0.1582465417D+01 EUMP2 =    -0.47231540524211D+03

 The electronic state is 1-A.
 Alpha  occ. eigenvalues --  -11.21624 -11.21610 -11.21578 -11.21538 -11.21419
 Alpha  occ. eigenvalues --  -11.21365 -11.21359 -11.21304 -11.21098 -11.21078
 Alpha  occ. eigenvalues --  -11.21053 -11.20900  -1.08447  -1.08384  -1.03560
 Alpha  occ. eigenvalues --   -1.03466  -0.96041  -0.95889  -0.87088  -0.86882
 Alpha  occ. eigenvalues --   -0.79648  -0.79514  -0.78258  -0.78200  -0.65080
 Alpha  occ. eigenvalues --   -0.65015  -0.60984  -0.60864  -0.59486  -0.59203
 Alpha  occ. eigenvalues --   -0.57612  -0.57550  -0.55316  -0.55187  -0.52940
 Alpha  occ. eigenvalues --   -0.52549  -0.52401  -0.52195  -0.49938  -0.49841
 Alpha  occ. eigenvalues --   -0.47974  -0.47808  -0.46637  -0.46573  -0.45802
 Alpha  occ. eigenvalues --   -0.45741  -0.45719  -0.45669  -0.43864  -0.43626
 Alpha virt. eigenvalues --    0.22352   0.22998   0.23563   0.24880   0.26584
 Alpha virt. eigenvalues --    0.26702   0.26906   0.27347   0.27686   0.29038
 Alpha virt. eigenvalues --    0.30661   0.30948   0.31454   0.31609   0.32285

 Mulliken charges:
               1
     1  C   -0.298323
     2  C   -0.299661
     3  C   -0.475715
     4  H    0.149648
     5  H    0.149571
     6  H    0.151975
     7  H    0.151982
     8  H    0.155196
     9  H    0.155175
    10  H    0.160298
    11  C   -0.298709
    12  C   -0.299654
    13  C   -0.480066
    14  H    0.149857
    15  H    0.149725
    16  H    0.152104
    17  H    0.151990
    18  H    0.155577
    19  H    0.158289
    20  H    0.161587
    21  C   -0.298199
    22  C   -0.299598
    23  C   -0.475671
    24  H    0.149525
    25  H    0.149319
    26  H    0.151905
    27  H    0.151854
    28  H    0.155100
    29  H    0.155137
    30  H    0.160165
    31  C   -0.298186
    32  C   -0.298962
    33  C   -0.485042
    34  H    0.149491
    35  H    0.149428
    36  H    0.151366
    37  H    0.151399
    38  H    0.153451
    39  H    0.154282
    40  H    0.172388
 Sum of Mulliken charges =  -0.00000

 Dipole moment (field-independent basis, Debye):
    X=             -0.0537    Y=              0.0071    Z=              0.0141  Tot=              0.0559
 Quadrupole moment (field-independent basis, Debye-Ang):
   XX=            -86.0157   YY=            -84.9043   ZZ=            -84.0018
   XY=             -0.0360   XZ=             -0.4636   YZ=              1.1586

 Normal termination of Gaussian 16 at Thu May  6 02:13:27 2021.
