 Gaussian 16, Revision A.03,
 Gaussian 16:  EM64L-G16RevA.03 25-Dec-2016

 -------------
 #p 6-31g* mp2
 -------------

 ------------------------------------------------------
 Input file generated by CHIRIPA (05-May-2021 14:57:27)
 ------------------------------------------------------
 Symbolic Z-matrix:
 Charge =  0 Multiplicity = 1

                         Standard orientation:
 ---------------------------------------------------------------------
 Center     Atomic      Atomic             Coordinates (Angstroms)
 Number     Number       Type             X           Y           Z
 ---------------------------------------------------------------------
      1          6           0        2.986727    2.316034   -0.239615
      2          6           0        4.384295    2.293828   -0.292846
      3          6           0        5.079930    1.086175   -0.182336
      4          6           0        4.342887   -0.085702   -0.018748
      5          6           0        2.950065   -0.096205    0.038038
      6          6           0        2.275327    1.123050   -0.074633
      7          1           0        2.454458    3.258674   -0.326301
      8          1           0        4.939391    3.218769   -0.420900
      9          1           0        6.161535    1.040195   -0.220236
     10          1           0        2.424256   -1.034529    0.166456
     11          1           0        1.189922    1.137277   -0.032946
     12          7           0        5.068264   -1.370332    0.099388
     13          8           0        4.395678   -2.388998    0.242862
     14          8           0        6.295665   -1.334234    0.046272
     15          6           0       -6.733260    0.019278   -0.174133
     16          6           0       -5.997768    1.142490    0.218255
     17          6           0       -4.606668    1.073511    0.339221
     18          6           0       -3.980687   -0.140067    0.058748
     19          6           0       -4.685729   -1.276593   -0.334336
     20          6           0       -6.076052   -1.184555   -0.448693
     21          1           0       -7.813599    0.081819   -0.265536
     22          1           0       -6.505500    2.078712    0.432121
     23          1           0       -4.012791    1.927672    0.641109
     24          1           0       -4.151518   -2.196059   -0.540783
     25          1           0       -6.644679   -2.058469   -0.753624
     26          7           0       -2.508402   -0.225297    0.183311
     27          8           0       -1.980617   -1.306119   -0.069482
     28          8           0       -1.910090    0.790335    0.531377
 ---------------------------------------------------------------------

 SCF Done:  E(RHF) =  -868.340778160     A.U. after   16 cycles
 E2 =    -0.2598324874D+01 EUMP2 =    -0.87093910303337D+03

 The electronic state is 1-A.
 Alpha  occ. eigenvalues --  -20.61742 -20.61731 -20.59846 -20.59829 -15.86736
 Alpha  occ. eigenvalues --  -15.84881 -11.31815 -11.30070 -11.28362 -11.28325
 Alpha  occ. eigenvalues --  -11.28034 -11.27302 -11.27277 -11.26674 -11.26464
 Alpha  occ. eigenvalues --  -11.26310 -11.25700 -11.25329  -1.60785  -1.58919
 Alpha  occ. eigenvalues --   -1.40345  -1.38476  -1.19957  -1.18209  -1.09408
 Alpha  occ. eigenvalues --   -1.07647  -1.05315  -1.03550  -0.96291  -0.94515
 Alpha  occ. eigenvalues --   -0.86727  -0.84964  -0.83133  -0.81326  -0.78212
 Alpha  occ. eigenvalues --   -0.76389  -0.72970  -0.72073  -0.71106  -0.71061
 Alpha  occ. eigenvalues --   -0.70239  -0.69336  -0.65614  -0.65316  -0.63847
 Alpha  occ. eigenvalues --   -0.63508  -0.62665  -0.60867  -0.55828  -0.54099
 Alpha  occ. eigenvalues --   -0.53660  -0.53403  -0.51941  -0.51610  -0.49733
 Alpha  occ. eigenvalues --   -0.49703  -0.47870  -0.47844  -0.45807  -0.43920
 Alpha  occ. eigenvalues --   -0.37919  -0.36904  -0.36219  -0.35156
 Alpha virt. eigenvalues --    0.04300   0.06084   0.10755   0.12484   0.15853
 Alpha virt. eigenvalues --    0.17625   0.20921   0.22728   0.26855   0.27768
 Alpha virt. eigenvalues --    0.28833   0.29447   0.30519   0.31946   0.32346

 Mulliken charges:
               1
     1  C   -0.173018
     2  C   -0.218842
     3  C   -0.173632
     4  C    0.157848
     5  C   -0.174051
     6  C   -0.228662
     7  H    0.222757
     8  H    0.218481
     9  H    0.271458
    10  H    0.281420
    11  H    0.248872
    12  N    0.487954
    13  O   -0.460357
    14  O   -0.464666
    15  C   -0.169685
    16  C   -0.218533
    17  C   -0.170529
    18  C    0.157668
    19  C   -0.170053
    20  C   -0.218576
    21  H    0.227837
    22  H    0.224863
    23  H    0.274385
    24  H    0.277560
    25  H    0.225970
    26  N    0.490054
    27  O   -0.457194
    28  O   -0.469331
 Sum of Mulliken charges =  -0.00000

 Dipole moment (field-independent basis, Debye):
    X=             -8.4187    Y=              4.6947    Z=             -0.8585  Tot=              9.6774
 Quadrupole moment (field-independent basis, Debye-Ang):
   XX=            -83.1889   YY=           -100.6124   ZZ=           -106.1884
   XY=             21.9934   XZ=             -0.5055   YZ=              1.3944

 Normal termination of Gaussian 16 at Thu May  6 09:59:48 2021.
