 Gaussian 16, Revision A.03,
 Gaussian 16:  EM64L-G16RevA.03 25-Dec-2016

 -------------
 #p 6-31g* mp2
 -------------

 ------------------------------------------------------
 Input file generated by CHIRIPA (05-May-2021 14:53:13)
 ------------------------------------------------------
 Symbolic Z-matrix:
 Charge =  0 Multiplicity = 1

                         Standard orientation:
 ---------------------------------------------------------------------
 Center     Atomic      Atomic             Coordinates (Angstroms)
 Number     Number       Type             X           Y           Z
 ---------------------------------------------------------------------
      1          6           0        3.234254   -0.305255    0.190042
      2          6           0        4.312517   -1.334182   -0.151489
      3          6           0        4.451392   -2.421092    0.914875
      4          1           0        3.471020    0.156994    1.158139
      5          1           0        2.272255   -0.820891    0.316815
      6          1           0        5.271927   -0.816587   -0.278942
      7          1           0        4.073259   -1.793898   -1.118977
      8          1           0        3.508230   -2.963351    1.037361
      9          1           0        4.713709   -1.980488    1.882170
     10          1           0        5.227634   -3.145971    0.650570
     11          6           0        3.083525    0.787766   -0.866517
     12          6           0        2.005263    1.816693   -0.524986
     13          6           0        1.866388    2.903603   -1.591351
     14          1           0        4.045525    1.303402   -0.993291
     15          1           0        2.846760    0.325517   -1.834615
     16          1           0        2.244521    2.276409    0.442502
     17          1           0        1.045853    1.299098   -0.397533
     18          1           0        1.604071    2.462999   -2.558645
     19          1           0        2.809549    3.445862   -1.713837
     20          1           0        1.090145    3.628483   -1.327046
     21          6           0       -3.533083   -1.900766   -1.252114
     22          6           0       -2.306385   -2.175596   -0.638762
     23          6           0       -1.706946   -1.234276    0.203341
     24          6           0       -2.364903   -0.022944    0.410844
     25          6           0       -3.587740    0.280356   -0.185785
     26          6           0       -4.168726   -0.675826   -1.024069
     27          1           0       -3.991574   -2.637778   -1.904796
     28          1           0       -1.810457   -3.126058   -0.814041
     29          1           0       -0.757849   -1.421029    0.690943
     30          1           0       -4.058082    1.236698    0.008143
     31          1           0       -5.121456   -0.459663   -1.499069
     32          7           0       -1.740072    0.981457    1.300319
     33          8           0       -2.340015    2.041150    1.466920
     34          8           0       -0.662218    0.689995    1.814048
 ---------------------------------------------------------------------

 SCF Done:  E(RHF) =  -669.535808139     A.U. after   15 cycles
 E2 =    -0.2092075925D+01 EUMP2 =    -0.67162788406414D+03

 The electronic state is 1-A.
 Alpha  occ. eigenvalues --  -20.60913 -20.60892 -15.85922 -11.31283 -11.27851
 Alpha  occ. eigenvalues --  -11.27840 -11.27583 -11.26861 -11.26850 -11.21347
 Alpha  occ. eigenvalues --  -11.20951 -11.20915 -11.20855 -11.20719 -11.20420
 Alpha  occ. eigenvalues --   -1.59961  -1.39517  -1.19451  -1.08849  -1.07942
 Alpha  occ. eigenvalues --   -1.04851  -1.03046  -0.95686  -0.95532  -0.86551
 Alpha  occ. eigenvalues --   -0.86250  -0.82519  -0.79103  -0.77748  -0.77523
 Alpha  occ. eigenvalues --   -0.72148  -0.71278  -0.70558  -0.65106  -0.64861
 Alpha  occ. eigenvalues --   -0.64586  -0.62198  -0.60458  -0.58897  -0.57108
 Alpha  occ. eigenvalues --   -0.55353  -0.54846  -0.53180  -0.52944  -0.52226
 Alpha  occ. eigenvalues --   -0.51944  -0.49503  -0.48921  -0.48911  -0.47438
 Alpha  occ. eigenvalues --   -0.46183  -0.45510  -0.45196  -0.44536  -0.43299
 Alpha  occ. eigenvalues --   -0.37429  -0.36452
 Alpha virt. eigenvalues --    0.04943   0.11147   0.16418   0.20677   0.22980
 Alpha virt. eigenvalues --    0.24699   0.25313   0.27507   0.27616   0.28274
 Alpha virt. eigenvalues --    0.29133   0.31227   0.31717   0.32176   0.32237

 Mulliken charges:
               1
     1  C   -0.295921
     2  C   -0.299666
     3  C   -0.474206
     4  H    0.155437
     5  H    0.145493
     6  H    0.152269
     7  H    0.148140
     8  H    0.150491
     9  H    0.157709
    10  H    0.158650
    11  C   -0.299306
    12  C   -0.297823
    13  C   -0.477158
    14  H    0.147940
    15  H    0.144075
    16  H    0.160068
    17  H    0.153623
    18  H    0.149569
    19  H    0.152822
    20  H    0.163434
    21  C   -0.170578
    22  C   -0.218846
    23  C   -0.173879
    24  C    0.157859
    25  C   -0.170657
    26  C   -0.218490
    27  H    0.225987
    28  H    0.223869
    29  H    0.278259
    30  H    0.275869
    31  H    0.223855
    32  N    0.487448
    33  O   -0.459066
    34  O   -0.457272
 Sum of Mulliken charges =  -0.00000

 Dipole moment (field-independent basis, Debye):
    X=             -2.3307    Y=             -3.4491    Z=             -2.9719  Tot=              5.1147
 Quadrupole moment (field-independent basis, Debye-Ang):
   XX=            -81.3113   YY=            -93.6223   ZZ=            -98.4023
   XY=              6.6355   XZ=              8.0472   YZ=             -0.7183

 Normal termination of Gaussian 16 at Thu May  6 05:45:42 2021.
