 Gaussian 16, Revision A.03,
 Gaussian 16:  EM64L-G16RevA.03 25-Dec-2016

 -------------
 #p 6-31g* mp2
 -------------

 ------------------------------------------------------
 Input file generated by CHIRIPA (05-May-2021 14:51:13)
 ------------------------------------------------------
 Symbolic Z-matrix:
 Charge =  0 Multiplicity = 1

                         Standard orientation:
 ---------------------------------------------------------------------
 Center     Atomic      Atomic             Coordinates (Angstroms)
 Number     Number       Type             X           Y           Z
 ---------------------------------------------------------------------
      1          6           0        3.010944   -0.650222    0.092602
      2          6           0        4.163132   -0.430226   -0.888239
      3          6           0        4.613025   -1.722169   -1.571081
      4          1           0        3.319670   -1.380355    0.853219
      5          1           0        2.162440   -1.097310   -0.443633
      6          1           0        5.008721    0.017592   -0.350601
      7          1           0        3.851694    0.299613   -1.646499
      8          1           0        3.786140   -2.169510   -2.132106
      9          1           0        4.949742   -2.453133   -0.828845
     10          1           0        5.437481   -1.541872   -2.267950
     11          6           0        2.550028    0.632107    0.783193
     12          6           0        1.397839    0.412111    1.764034
     13          6           0        0.947946    1.704054    2.446876
     14          1           0        3.398532    1.079195    1.319428
     15          1           0        2.241301    1.362240    0.022576
     16          1           0        1.709278   -0.317727    2.522294
     17          1           0        0.552250   -0.035706    1.226396
     18          1           0        0.611230    2.435018    1.704640
     19          1           0        1.774831    2.151395    3.007901
     20          1           0        0.123490    1.523757    3.143745
     21          6           0       -2.391869    0.659722   -0.342794
     22          6           0       -2.453283    1.585832   -1.557921
     23          6           0       -1.671068    2.883402   -1.352383
     24          1           0       -2.784148    1.190851    0.535251
     25          1           0       -1.341363    0.424678   -0.122372
     26          1           0       -3.503434    1.817947   -1.776828
     27          1           0       -2.060989    1.052370   -2.433216
     28          1           0       -0.615344    2.669860   -1.156301
     29          1           0       -2.065985    3.439787   -0.496183
     30          1           0       -1.728399    3.530546   -2.233166
     31          6           0       -3.169103   -0.641608   -0.533000
     32          6           0       -3.107689   -1.567718    0.682126
     33          6           0       -3.889904   -2.865287    0.476588
     34          1           0       -4.219609   -0.406563   -0.753422
     35          1           0       -2.776823   -1.172737   -1.411046
     36          1           0       -3.499982   -1.034256    1.557421
     37          1           0       -2.057537   -1.799833    0.901033
     38          1           0       -3.494987   -3.421672   -0.379611
     39          1           0       -4.945627   -2.651746    0.280506
     40          1           0       -3.832573   -3.512430    1.357371
 ---------------------------------------------------------------------

 SCF Done:  E(RHF) =  -470.733337357     A.U. after   11 cycles
 E2 =    -0.1583604191D+01 EUMP2 =    -0.47231694154795D+03

 The electronic state is 1-A.
 Alpha  occ. eigenvalues --  -11.21650 -11.21628 -11.21627 -11.21583 -11.21437
 Alpha  occ. eigenvalues --  -11.21432 -11.21377 -11.21372 -11.21140 -11.21095
 Alpha  occ. eigenvalues --  -11.21087 -11.21028  -1.08486  -1.08435  -1.03573
 Alpha  occ. eigenvalues --   -1.03529  -0.96019  -0.95982  -0.87036  -0.86997
 Alpha  occ. eigenvalues --   -0.79629  -0.79606  -0.78347  -0.78205  -0.65260
 Alpha  occ. eigenvalues --   -0.64946  -0.61032  -0.60875  -0.59381  -0.59353
 Alpha  occ. eigenvalues --   -0.57669  -0.57553  -0.55332  -0.55252  -0.52713
 Alpha  occ. eigenvalues --   -0.52672  -0.52452  -0.52401  -0.50006  -0.49892
 Alpha  occ. eigenvalues --   -0.48012  -0.47885  -0.46749  -0.46651  -0.46061
 Alpha  occ. eigenvalues --   -0.45794  -0.45759  -0.45304  -0.43820  -0.43792
 Alpha virt. eigenvalues --    0.19641   0.23003   0.23608   0.24225   0.25657
 Alpha virt. eigenvalues --    0.26055   0.26819   0.27930   0.28669   0.29334
 Alpha virt. eigenvalues --    0.30701   0.31626   0.31696   0.31774   0.32329

 Mulliken charges:
               1
     1  C   -0.298060
     2  C   -0.299671
     3  C   -0.475709
     4  H    0.149967
     5  H    0.148401
     6  H    0.152164
     7  H    0.151936
     8  H    0.155026
     9  H    0.155265
    10  H    0.160394
    11  C   -0.299143
    12  C   -0.306566
    13  C   -0.476858
    14  H    0.150064
    15  H    0.149384
    16  H    0.152171
    17  H    0.157642
    18  H    0.157319
    19  H    0.154834
    20  H    0.160466
    21  C   -0.306284
    22  C   -0.299212
    23  C   -0.477300
    24  H    0.150205
    25  H    0.157343
    26  H    0.152331
    27  H    0.151648
    28  H    0.155307
    29  H    0.155978
    30  H    0.160634
    31  C   -0.297887
    32  C   -0.301058
    33  C   -0.475698
    34  H    0.149756
    35  H    0.149252
    36  H    0.152097
    37  H    0.152936
    38  H    0.155174
    39  H    0.155294
    40  H    0.160456
 Sum of Mulliken charges =  -0.00000

 Dipole moment (field-independent basis, Debye):
    X=             -0.0191    Y=              0.0062    Z=              0.0073  Tot=              0.0214
 Quadrupole moment (field-independent basis, Debye-Ang):
   XX=            -84.0058   YY=            -86.2312   ZZ=            -84.4025
   XY=             -0.6644   XZ=              0.4324   YZ=             -0.4409

 Normal termination of Gaussian 16 at Wed May  5 15:21:33 2021.
