 Gaussian 16, Revision A.03,
 Gaussian 16:  EM64L-G16RevA.03 25-Dec-2016

 -------------
 #p 6-31g* mp2
 -------------

 ------------------------------------------------------
 Input file generated by CHIRIPA (05-May-2021 14:57:25)
 ------------------------------------------------------
 Symbolic Z-matrix:
 Charge =  0 Multiplicity = 1

                         Standard orientation:
 ---------------------------------------------------------------------
 Center     Atomic      Atomic             Coordinates (Angstroms)
 Number     Number       Type             X           Y           Z
 ---------------------------------------------------------------------
      1          6           0        5.384782    0.127512   -0.320335
      2          6           0        4.869824   -0.421056    0.858822
      3          6           0        3.497048   -0.647143    0.996366
      4          6           0        2.664308   -0.311389   -0.069985
      5          6           0        3.147070    0.236598   -1.257394
      6          6           0        4.523280    0.454013   -1.372825
      7          1           0        6.452521    0.299774   -0.418594
      8          1           0        5.536510   -0.675587    1.677839
      9          1           0        3.071646   -1.070560    1.898125
     10          1           0        2.457539    0.480140   -2.056552
     11          1           0        4.920401    0.880171   -2.289738
     12          7           0        1.209193   -0.546147    0.063922
     13          8           0        0.496608   -0.241747   -0.890123
     14          8           0        0.808813   -1.030104    1.120386
     15          6           0       -1.757490    2.395490    0.830224
     16          6           0       -1.782396    1.282479    1.677044
     17          6           0       -2.414825    0.101078    1.278456
     18          6           0       -3.014981    0.067474    0.020690
     19          6           0       -3.007068    1.159598   -0.845620
     20          6           0       -2.368828    2.330613   -0.426190
     21          1           0       -1.263946    3.309197    1.147952
     22          1           0       -1.308448    1.329993    2.653344
     23          1           0       -2.449021   -0.775401    1.914092
     24          1           0       -3.488232    1.081986   -1.813027
     25          1           0       -2.351048    3.193439   -1.085932
     26          7           0       -3.687582   -1.177724   -0.412309
     27          8           0       -4.208967   -1.181791   -1.525313
     28          8           0       -3.680646   -2.126064    0.369509
 ---------------------------------------------------------------------

 SCF Done:  E(RHF) =  -868.338060701     A.U. after   16 cycles
 E2 =    -0.2601889315D+01 EUMP2 =    -0.87093995001554D+03

 The electronic state is 1-A.
 Alpha  occ. eigenvalues --  -20.61231 -20.61187 -20.59314 -20.59297 -15.86224
 Alpha  occ. eigenvalues --  -15.84354 -11.31560 -11.29471 -11.28123 -11.28110
 Alpha  occ. eigenvalues --  -11.27843 -11.27120 -11.27109 -11.26174 -11.26056
 Alpha  occ. eigenvalues --  -11.26004 -11.25225 -11.25110  -1.60254  -1.58377
 Alpha  occ. eigenvalues --   -1.39816  -1.37942  -1.19724  -1.17689  -1.09124
 Alpha  occ. eigenvalues --   -1.07184  -1.05119  -1.03108  -0.95969  -0.94044
 Alpha  occ. eigenvalues --   -0.86517  -0.84564  -0.82806  -0.80903  -0.77857
 Alpha  occ. eigenvalues --   -0.75934  -0.72465  -0.71573  -0.70826  -0.70610
 Alpha  occ. eigenvalues --   -0.69663  -0.68959  -0.65377  -0.65119  -0.63421
 Alpha  occ. eigenvalues --   -0.63217  -0.62466  -0.60505  -0.55624  -0.53773
 Alpha  occ. eigenvalues --   -0.53460  -0.53208  -0.51607  -0.51288  -0.49220
 Alpha  occ. eigenvalues --   -0.48958  -0.47358  -0.47339  -0.45232  -0.43404
 Alpha  occ. eigenvalues --   -0.37703  -0.36723  -0.35710  -0.34563
 Alpha virt. eigenvalues --    0.04649   0.06661   0.10933   0.12979   0.16165
 Alpha virt. eigenvalues --    0.18129   0.21094   0.22741   0.27002   0.27976
 Alpha virt. eigenvalues --    0.28652   0.29618   0.30662   0.32156   0.32229

 Mulliken charges:
               1
     1  C   -0.170654
     2  C   -0.218517
     3  C   -0.171504
     4  C    0.158858
     5  C   -0.171195
     6  C   -0.218596
     7  H    0.226671
     8  H    0.224275
     9  H    0.274905
    10  H    0.276016
    11  H    0.224368
    12  N    0.489540
    13  O   -0.456913
    14  O   -0.464087
    15  C   -0.173138
    16  C   -0.216944
    17  C   -0.147647
    18  C    0.165969
    19  C   -0.166034
    20  C   -0.216401
    21  H    0.216046
    22  H    0.217131
    23  H    0.274699
    24  H    0.269574
    25  H    0.214484
    26  N    0.488487
    27  O   -0.466894
    28  O   -0.462500
 Sum of Mulliken charges =  -0.00000

 Dipole moment (field-independent basis, Debye):
    X=              7.7923    Y=              4.9640    Z=              1.0492  Tot=              9.2985
 Quadrupole moment (field-independent basis, Debye-Ang):
   XX=            -93.2976   YY=           -105.3577   ZZ=            -97.1236
   XY=            -12.9215   XZ=             -4.5255   YZ=             -4.0350

 Normal termination of Gaussian 16 at Thu May  6 09:53:04 2021.
