 Gaussian 16, Revision A.03,
 Gaussian 16:  EM64L-G16RevA.03 25-Dec-2016

 -------------
 #p 6-31g* mp2
 -------------

 ------------------------------------------------------
 Input file generated by CHIRIPA (05-May-2021 14:51:11)
 ------------------------------------------------------
 Symbolic Z-matrix:
 Charge =  0 Multiplicity = 1

                         Standard orientation:
 ---------------------------------------------------------------------
 Center     Atomic      Atomic             Coordinates (Angstroms)
 Number     Number       Type             X           Y           Z
 ---------------------------------------------------------------------
      1          6           0        4.504137    0.503643   -0.231699
      2          6           0        5.120705   -0.872847    0.019507
      3          6           0        6.582676   -0.954977   -0.420593
      4          1           0        4.580592    0.742973   -1.301195
      5          1           0        5.091784    1.263762    0.301485
      6          1           0        4.531254   -1.630303   -0.512869
      7          1           0        5.042601   -1.109011    1.088498
      8          1           0        7.189357   -0.220818    0.119361
      9          1           0        6.675104   -0.745072   -1.491106
     10          1           0        7.003587   -1.947494   -0.231904
     11          6           0        3.042923    0.601424    0.203064
     12          6           0        2.426356    1.977914   -0.048143
     13          6           0        0.964384    2.060045    0.391957
     14          1           0        2.455276   -0.158695   -0.330121
     15          1           0        2.966468    0.362094    1.272559
     16          1           0        2.504460    2.214078   -1.117134
     17          1           0        3.015807    2.735370    0.484234
     18          1           0        0.871956    1.850139    1.462470
     19          1           0        0.357704    1.325885   -0.147996
     20          1           0        0.543473    3.052562    0.203269
     21          6           0       -3.286935   -1.116980   -0.153184
     22          6           0       -1.963798   -1.022575    0.607329
     23          6           0       -1.000832   -2.158764    0.261546
     24          1           0       -3.761955   -2.082430    0.068642
     25          1           0       -3.082596   -1.109897   -1.232810
     26          1           0       -2.170667   -1.028439    1.685191
     27          1           0       -1.491964   -0.057157    0.383818
     28          1           0       -0.765316   -2.152189   -0.807607
     29          1           0       -1.447875   -3.128990    0.501161
     30          1           0       -0.061464   -2.071734    0.816409
     31          6           0       -4.260125    0.011913    0.181820
     32          6           0       -5.583263   -0.082493   -0.578694
     33          6           0       -6.546228    1.053696   -0.232911
     34          1           0       -4.464464    0.004831    1.261445
     35          1           0       -3.785105    0.977363   -0.040006
     36          1           0       -6.055097   -1.047911   -0.355182
     37          1           0       -5.376393   -0.076629   -1.656555
     38          1           0       -6.099185    2.023923   -0.472525
     39          1           0       -6.781744    1.047123    0.836242
     40          1           0       -7.485596    0.966666   -0.787773
 ---------------------------------------------------------------------

 SCF Done:  E(RHF) =  -470.733278407     A.U. after   11 cycles
 E2 =    -0.1582735977D+01 EUMP2 =    -0.47231601438422D+03

 The electronic state is 1-A.
 Alpha  occ. eigenvalues --  -11.21622 -11.21600 -11.21574 -11.21513 -11.21412
 Alpha  occ. eigenvalues --  -11.21364 -11.21353 -11.21305 -11.21090 -11.21070
 Alpha  occ. eigenvalues --  -11.21048 -11.21042  -1.08441  -1.08388  -1.03552
 Alpha  occ. eigenvalues --   -1.03482  -0.95999  -0.95941  -0.87022  -0.86952
 Alpha  occ. eigenvalues --   -0.79653  -0.79512  -0.78267  -0.78183  -0.65105
 Alpha  occ. eigenvalues --   -0.64998  -0.61040  -0.60814  -0.59389  -0.59282
 Alpha  occ. eigenvalues --   -0.57649  -0.57506  -0.55322  -0.55201  -0.52689
 Alpha  occ. eigenvalues --   -0.52638  -0.52454  -0.52349  -0.50012  -0.49831
 Alpha  occ. eigenvalues --   -0.48046  -0.47774  -0.46736  -0.46469  -0.45862
 Alpha  occ. eigenvalues --   -0.45736  -0.45708  -0.45522  -0.43796  -0.43742
 Alpha virt. eigenvalues --    0.21367   0.23066   0.23622   0.24975   0.26009
 Alpha virt. eigenvalues --    0.26654   0.27037   0.27135   0.28402   0.29033
 Alpha virt. eigenvalues --    0.30535   0.31497   0.31650   0.31682   0.32112

 Mulliken charges:
               1
     1  C   -0.298272
     2  C   -0.299744
     3  C   -0.475712
     4  H    0.149625
     5  H    0.149547
     6  H    0.152232
     7  H    0.151891
     8  H    0.155148
     9  H    0.155168
    10  H    0.160316
    11  C   -0.299430
    12  C   -0.299520
    13  C   -0.480632
    14  H    0.150931
    15  H    0.149479
    16  H    0.151785
    17  H    0.152043
    18  H    0.155925
    19  H    0.159908
    20  H    0.160179
    21  C   -0.297670
    22  C   -0.307169
    23  C   -0.476616
    24  H    0.149387
    25  H    0.148859
    26  H    0.151763
    27  H    0.159838
    28  H    0.153873
    29  H    0.155179
    30  H    0.161746
    31  C   -0.298339
    32  C   -0.299600
    33  C   -0.475684
    34  H    0.149524
    35  H    0.149947
    36  H    0.151851
    37  H    0.151766
    38  H    0.155200
    39  H    0.155159
    40  H    0.160118
 Sum of Mulliken charges =  -0.00000

 Dipole moment (field-independent basis, Debye):
    X=              0.0210    Y=              0.0168    Z=              0.0099  Tot=              0.0287
 Quadrupole moment (field-independent basis, Debye-Ang):
   XX=            -86.4112   YY=            -85.0359   ZZ=            -83.4161
   XY=              1.1125   XZ=              0.3550   YZ=             -0.3254

 Normal termination of Gaussian 16 at Thu May  6 02:15:18 2021.
