 Gaussian 16, Revision A.03,
 Gaussian 16:  EM64L-G16RevA.03 25-Dec-2016

 -------------
 #p 6-31g* mp2
 -------------

 ------------------------------------------------------
 Input file generated by CHIRIPA (05-May-2021 14:57:25)
 ------------------------------------------------------
 Symbolic Z-matrix:
 Charge =  0 Multiplicity = 1

                         Standard orientation:
 ---------------------------------------------------------------------
 Center     Atomic      Atomic             Coordinates (Angstroms)
 Number     Number       Type             X           Y           Z
 ---------------------------------------------------------------------
      1          6           0       -3.365404   -2.231079   -0.293218
      2          6           0       -2.291406   -1.538223   -0.861549
      3          6           0       -2.188383   -0.150875   -0.722989
      4          6           0       -3.181647    0.514874   -0.006403
      5          6           0       -4.263767   -0.147200    0.571493
      6          6           0       -4.346427   -1.534584    0.420231
      7          1           0       -3.437526   -3.308819   -0.405788
      8          1           0       -1.528065   -2.076523   -1.416156
      9          1           0       -1.367581    0.410426   -1.152690
     10          1           0       -5.009260    0.416874    1.118739
     11          1           0       -5.181624   -2.070054    0.862683
     12          7           0       -3.083359    1.983617    0.147008
     13          8           0       -3.971464    2.546950    0.783060
     14          8           0       -2.120079    2.543672   -0.371707
     15          6           0        1.522629   -2.158752    0.084472
     16          6           0        2.374897   -1.948825    1.173551
     17          6           0        3.306948   -0.906956    1.155241
     18          6           0        3.359799   -0.090481    0.026583
     19          6           0        2.524275   -0.274132   -1.074080
     20          6           0        1.599903   -1.322210   -1.033896
     21          1           0        0.801572   -2.970513    0.107193
     22          1           0        2.317117   -2.596923    2.043422
     23          1           0        3.978755   -0.721933    1.984614
     24          1           0        2.605397    0.388485   -1.927179
     25          1           0        0.939279   -1.482883   -1.881131
     26          7           0        4.342456    1.015785   -0.004380
     27          8           0        4.369157    1.721119   -1.010575
     28          8           0        5.067356    1.156597    0.978132
 ---------------------------------------------------------------------

 SCF Done:  E(RHF) =  -868.335869224     A.U. after   16 cycles
 E2 =    -0.2601232088D+01 EUMP2 =    -0.87093710131267D+03

 The electronic state is 1-A.
 Alpha  occ. eigenvalues --  -20.61143 -20.61136 -20.60912 -20.60904 -15.86205
 Alpha  occ. eigenvalues --  -15.85976 -11.31750 -11.31535 -11.28401 -11.28336
 Alpha  occ. eigenvalues --  -11.28199 -11.28193 -11.28138 -11.28038 -11.27542
 Alpha  occ. eigenvalues --  -11.27373 -11.27355 -11.27182  -1.60214  -1.59981
 Alpha  occ. eigenvalues --   -1.39762  -1.39529  -1.19969  -1.19764  -1.09338
 Alpha  occ. eigenvalues --   -1.09137  -1.05426  -1.05202  -0.96128  -0.95928
 Alpha  occ. eigenvalues --   -0.86823  -0.86610  -0.82973  -0.82763  -0.78012
 Alpha  occ. eigenvalues --   -0.77731  -0.72419  -0.72195  -0.71541  -0.71303
 Alpha  occ. eigenvalues --   -0.71084  -0.70910  -0.65679  -0.65597  -0.65403
 Alpha  occ. eigenvalues --   -0.65147  -0.62865  -0.62426  -0.55922  -0.55762
 Alpha  occ. eigenvalues --   -0.53766  -0.53562  -0.53446  -0.53291  -0.49194
 Alpha  occ. eigenvalues --   -0.49161  -0.48970  -0.48931  -0.45127  -0.44892
 Alpha  occ. eigenvalues --   -0.37999  -0.37826  -0.37013  -0.36700
 Alpha virt. eigenvalues --    0.04557   0.04811   0.10578   0.10754   0.15953
 Alpha virt. eigenvalues --    0.16212   0.18317   0.22155   0.24870   0.26478
 Alpha virt. eigenvalues --    0.28196   0.28893   0.29879   0.31033   0.31962

 Mulliken charges:
               1
     1  C   -0.171903
     2  C   -0.220924
     3  C   -0.166812
     4  C    0.158403
     5  C   -0.169417
     6  C   -0.218596
     7  H    0.224896
     8  H    0.212683
     9  H    0.275157
    10  H    0.278003
    11  H    0.225287
    12  N    0.488072
    13  O   -0.458698
    14  O   -0.457767
    15  C   -0.166795
    16  C   -0.218418
    17  C   -0.168427
    18  C    0.159939
    19  C   -0.168374
    20  C   -0.224484
    21  H    0.219996
    22  H    0.224682
    23  H    0.278077
    24  H    0.278829
    25  H    0.214930
    26  N    0.488298
    27  O   -0.457690
    28  O   -0.458945
 Sum of Mulliken charges =  -0.00000

 Dipole moment (field-independent basis, Debye):
    X=             -3.7320    Y=             -8.8381    Z=             -0.2468  Tot=              9.5969
 Quadrupole moment (field-independent basis, Debye-Ang):
   XX=           -121.3196   YY=           -110.6178   ZZ=           -100.0402
   XY=              3.0632   XZ=              1.0339   YZ=             -2.0608

 Normal termination of Gaussian 16 at Thu May  6 06:44:40 2021.
