 Gaussian 16, Revision A.03,
 Gaussian 16:  EM64L-G16RevA.03 25-Dec-2016

 -------------
 #p 6-31g* mp2
 -------------

 ------------------------------------------------------
 Input file generated by CHIRIPA (05-May-2021 14:51:11)
 ------------------------------------------------------
 Symbolic Z-matrix:
 Charge =  0 Multiplicity = 1

                         Standard orientation:
 ---------------------------------------------------------------------
 Center     Atomic      Atomic             Coordinates (Angstroms)
 Number     Number       Type             X           Y           Z
 ---------------------------------------------------------------------
      1          6           0        3.658336   -0.282194    0.295970
      2          6           0        4.631571    0.071095   -0.829191
      3          6           0        5.816036    0.908105   -0.345197
      4          1           0        3.290162    0.644041    0.758010
      5          1           0        4.198949   -0.829445    1.080603
      6          1           0        4.088983    0.616309   -1.612105
      7          1           0        4.997324   -0.856085   -1.288731
      8          1           0        6.382421    0.367745    0.420192
      9          1           0        5.468919    1.848506    0.094980
     10          1           0        6.499083    1.149296   -1.165645
     11          6           0        2.468944   -1.118774   -0.172226
     12          6           0        1.495710   -1.472063    0.952934
     13          6           0        0.311244   -2.309074    0.468941
     14          1           0        1.928331   -0.571524   -0.956860
     15          1           0        2.837118   -2.045010   -0.634266
     16          1           0        1.129957   -0.544883    1.412475
     17          1           0        2.038298   -2.017278    1.735849
     18          1           0        0.658361   -3.249475    0.028763
     19          1           0       -0.255140   -1.768714   -0.296448
     20          1           0       -0.371803   -2.550265    1.289388
     21          6           0       -3.219707   -0.023618    0.124545
     22          6           0       -4.335127   -0.640305   -0.720156
     23          6           0       -4.635854   -2.089194   -0.335347
     24          1           0       -2.309550   -0.629461    0.017250
     25          1           0       -3.503502   -0.070974    1.185023
     26          1           0       -4.049922   -0.590547   -1.778834
     27          1           0       -5.242680   -0.032814   -0.610989
     28          1           0       -4.945294   -2.153103    0.712872
     29          1           0       -3.745759   -2.714006   -0.461608
     30          1           0       -5.436239   -2.510409   -0.951644
     31          6           0       -2.907574    1.424587   -0.248288
     32          6           0       -1.792153    2.041274    0.596412
     33          6           0       -1.491426    3.490163    0.211603
     34          1           0       -2.623779    1.471942   -1.308766
     35          1           0       -3.817730    2.030430   -0.140994
     36          1           0       -0.884599    1.433783    0.487246
     37          1           0       -2.077359    1.991516    1.655090
     38          1           0       -2.381522    4.114973    0.337864
     39          1           0       -1.181986    3.554072   -0.836616
     40          1           0       -0.691042    3.911378    0.827900
 ---------------------------------------------------------------------

 SCF Done:  E(RHF) =  -470.733161061     A.U. after   11 cycles
 E2 =    -0.1583306048D+01 EUMP2 =    -0.47231646710926D+03

 The electronic state is 1-A.
 Alpha  occ. eigenvalues --  -11.21647 -11.21636 -11.21625 -11.21563 -11.21444
 Alpha  occ. eigenvalues --  -11.21384 -11.21383 -11.21283 -11.21123 -11.21105
 Alpha  occ. eigenvalues --  -11.21086 -11.21026  -1.08474  -1.08411  -1.03569
 Alpha  occ. eigenvalues --   -1.03522  -0.96031  -0.95958  -0.87055  -0.86970
 Alpha  occ. eigenvalues --   -0.79665  -0.79556  -0.78286  -0.78221  -0.65217
 Alpha  occ. eigenvalues --   -0.64956  -0.60970  -0.60924  -0.59387  -0.59332
 Alpha  occ. eigenvalues --   -0.57631  -0.57579  -0.55438  -0.55152  -0.52725
 Alpha  occ. eigenvalues --   -0.52662  -0.52457  -0.52378  -0.50107  -0.49799
 Alpha  occ. eigenvalues --   -0.47968  -0.47905  -0.46795  -0.46516  -0.45911
 Alpha  occ. eigenvalues --   -0.45751  -0.45730  -0.45487  -0.43815  -0.43769
 Alpha virt. eigenvalues --    0.20048   0.23023   0.24020   0.24153   0.26076
 Alpha virt. eigenvalues --    0.26770   0.27294   0.27450   0.27933   0.29476
 Alpha virt. eigenvalues --    0.30594   0.31533   0.31763   0.31983   0.32236

 Mulliken charges:
               1
     1  C   -0.298346
     2  C   -0.299678
     3  C   -0.475745
     4  H    0.149792
     5  H    0.149693
     6  H    0.151917
     7  H    0.151968
     8  H    0.155225
     9  H    0.155304
    10  H    0.160333
    11  C   -0.298610
    12  C   -0.302420
    13  C   -0.479631
    14  H    0.149162
    15  H    0.149864
    16  H    0.154521
    17  H    0.152495
    18  H    0.155591
    19  H    0.157301
    20  H    0.161856
    21  C   -0.307515
    22  C   -0.299028
    23  C   -0.476205
    24  H    0.160003
    25  H    0.148996
    26  H    0.151364
    27  H    0.151660
    28  H    0.154931
    29  H    0.156215
    30  H    0.160009
    31  C   -0.297745
    32  C   -0.302397
    33  C   -0.475609
    34  H    0.148843
    35  H    0.149757
    36  H    0.153333
    37  H    0.152219
    38  H    0.155568
    39  H    0.155010
    40  H    0.160002
 Sum of Mulliken charges =  -0.00000

 Dipole moment (field-independent basis, Debye):
    X=              0.0266    Y=             -0.0233    Z=              0.0170  Tot=              0.0392
 Quadrupole moment (field-independent basis, Debye-Ang):
   XX=            -85.0383   YY=            -85.3956   ZZ=            -84.3540
   XY=             -1.5870   XZ=             -0.5128   YZ=              0.0944

 Normal termination of Gaussian 16 at Wed May  5 19:53:08 2021.
