 Gaussian 16, Revision A.03,
 Gaussian 16:  EM64L-G16RevA.03 25-Dec-2016

 -------------
 #p 6-31g* mp2
 -------------

 ------------------------------------------------------
 Input file generated by CHIRIPA (05-May-2021 14:53:17)
 ------------------------------------------------------
 Symbolic Z-matrix:
 Charge =  0 Multiplicity = 1

                         Standard orientation:
 ---------------------------------------------------------------------
 Center     Atomic      Atomic             Coordinates (Angstroms)
 Number     Number       Type             X           Y           Z
 ---------------------------------------------------------------------
      1          6           0        2.853359   -0.186098    0.223296
      2          6           0        4.320188    0.215389    0.064535
      3          6           0        4.787647    1.187439    1.148230
      4          1           0        2.228247    0.717082    0.202147
      5          1           0        2.710293   -0.642151    1.212712
      6          1           0        4.460730    0.669291   -0.924826
      7          1           0        4.941864   -0.688868    0.085873
      8          1           0        4.676123    0.740018    2.141194
      9          1           0        4.192255    2.105894    1.124752
     10          1           0        5.838995    1.461188    1.015604
     11          6           0        2.371293   -1.157546   -0.852635
     12          6           0        0.904463   -1.559033   -0.693874
     13          6           0        0.437005   -2.531084   -1.777568
     14          1           0        2.514359   -0.701494   -1.842050
     15          1           0        2.996404   -2.060726   -0.831486
     16          1           0        0.282788   -0.654776   -0.715212
     17          1           0        0.763922   -2.012936    0.295488
     18          1           0        1.032397   -3.449538   -1.754090
     19          1           0        0.548528   -2.083662   -2.770532
     20          1           0       -0.614343   -2.804833   -1.644943
     21          6           0       -1.386776    2.496278   -1.186501
     22          6           0       -2.382975    1.615549   -1.620580
     23          6           0       -2.753476    0.519908   -0.835183
     24          6           0       -2.104116    0.334272    0.384308
     25          6           0       -1.107882    1.194087    0.844226
     26          6           0       -0.753525    2.283113    0.042351
     27          1           0       -1.105233    3.344829   -1.803016
     28          1           0       -2.876471    1.778622   -2.574474
     29          1           0       -3.521437   -0.177521   -1.147028
     30          1           0       -0.633908    1.005461    1.799833
     31          1           0        0.020477    2.965464    0.382000
     32          7           0       -2.487803   -0.822132    1.224495
     33          8           0       -1.900545   -0.963671    2.294884
     34          8           0       -3.368530   -1.565086    0.796736
 ---------------------------------------------------------------------

 SCF Done:  E(RHF) =  -669.534358044     A.U. after   15 cycles
 E2 =    -0.2095114725D+01 EUMP2 =    -0.67162947276841D+03

 The electronic state is 1-A.
 Alpha  occ. eigenvalues --  -20.60832 -20.60821 -15.85871 -11.31207 -11.27851
 Alpha  occ. eigenvalues --  -11.27796 -11.27618 -11.26874 -11.26859 -11.21800
 Alpha  occ. eigenvalues --  -11.21537 -11.21373 -11.21354 -11.21281 -11.20865
 Alpha  occ. eigenvalues --   -1.59894  -1.39449  -1.19464  -1.08841  -1.08479
 Alpha  occ. eigenvalues --   -1.04860  -1.03553  -0.96023  -0.95668  -0.87038
 Alpha  occ. eigenvalues --   -0.86246  -0.82500  -0.79646  -0.78323  -0.77534
 Alpha  occ. eigenvalues --   -0.72096  -0.71211  -0.70553  -0.65150  -0.65087
 Alpha  occ. eigenvalues --   -0.64845  -0.62196  -0.60980  -0.59409  -0.57639
 Alpha  occ. eigenvalues --   -0.55359  -0.55331  -0.53341  -0.52938  -0.52659
 Alpha  occ. eigenvalues --   -0.52439  -0.49965  -0.48855  -0.48851  -0.47939
 Alpha  occ. eigenvalues --   -0.46654  -0.45831  -0.45694  -0.44822  -0.43804
 Alpha  occ. eigenvalues --   -0.37378  -0.36400
 Alpha virt. eigenvalues --    0.04952   0.11131   0.16344   0.20921   0.22954
 Alpha virt. eigenvalues --    0.24121   0.26024   0.26683   0.27654   0.28099
 Alpha virt. eigenvalues --    0.28914   0.30483   0.31440   0.31655   0.32100

 Mulliken charges:
               1
     1  C   -0.300337
     2  C   -0.299484
     3  C   -0.475012
     4  H    0.142020
     5  H    0.153041
     6  H    0.150412
     7  H    0.154319
     8  H    0.157243
     9  H    0.149282
    10  H    0.161239
    11  C   -0.295880
    12  C   -0.314294
    13  C   -0.476027
    14  H    0.146540
    15  H    0.150711
    16  H    0.160439
    17  H    0.159589
    18  H    0.156080
    19  H    0.150755
    20  H    0.163935
    21  C   -0.171827
    22  C   -0.217694
    23  C   -0.171643
    24  C    0.160972
    25  C   -0.173806
    26  C   -0.216488
    27  H    0.226225
    28  H    0.224076
    29  H    0.276099
    30  H    0.276824
    31  H    0.224199
    32  N    0.489704
    33  O   -0.460251
    34  O   -0.460960
 Sum of Mulliken charges =  -0.00000

 Dipole moment (field-independent basis, Debye):
    X=              1.2562    Y=              4.0293    Z=             -2.9098  Tot=              5.1264
 Quadrupole moment (field-independent basis, Debye-Ang):
   XX=            -98.8414   YY=            -92.0891   ZZ=            -95.3212
   XY=             -7.8669   XZ=              9.4705   YZ=              0.4656

 Normal termination of Gaussian 16 at Thu May  6 06:00:04 2021.
