 Gaussian 16, Revision A.03,
 Gaussian 16:  EM64L-G16RevA.03 25-Dec-2016

 -------------
 #p 6-31g* mp2
 -------------

 ------------------------------------------------------
 Input file generated by CHIRIPA (05-May-2021 14:51:09)
 ------------------------------------------------------
 Symbolic Z-matrix:
 Charge =  0 Multiplicity = 1

                         Standard orientation:
 ---------------------------------------------------------------------
 Center     Atomic      Atomic             Coordinates (Angstroms)
 Number     Number       Type             X           Y           Z
 ---------------------------------------------------------------------
      1          6           0       -3.276894    0.159471   -0.256097
      2          6           0       -2.834653   -1.168450   -0.871754
      3          6           0       -3.990627   -2.154286   -1.043938
      4          1           0       -3.744465   -0.033486    0.719142
      5          1           0       -4.052514    0.609721   -0.890986
      6          1           0       -2.059112   -1.615393   -0.236622
      7          1           0       -2.367909   -0.972291   -1.845555
      8          1           0       -4.762966   -1.732395   -1.695167
      9          1           0       -4.452415   -2.379151   -0.077093
     10          1           0       -3.652117   -3.096729   -1.485608
     11          6           0       -2.132393    1.155464   -0.077651
     12          6           0       -2.574635    2.483385    0.538006
     13          6           0       -1.418661    3.469221    0.710190
     14          1           0       -1.356774    0.705214    0.557238
     15          1           0       -1.664823    1.348421   -1.052890
     16          1           0       -3.041379    2.287226    1.511806
     17          1           0       -3.350176    2.930328   -0.097126
     18          1           0       -0.956873    3.694086   -0.256655
     19          1           0       -0.646322    3.047330    1.361419
     20          1           0       -1.757171    4.411664    1.151860
     21          6           0        2.456430   -1.354626    0.356059
     22          6           0        1.051329   -1.355060    0.959117
     23          6           0        0.568703   -2.757013    1.332470
     24          1           0        2.466191   -1.996798   -0.535268
     25          1           0        3.156003   -1.805255    1.073643
     26          1           0        0.354852   -0.903304    0.241165
     27          1           0        1.044863   -0.712660    1.849002
     28          1           0        1.240537   -3.212837    2.066951
     29          1           0        0.546606   -3.404564    0.449979
     30          1           0       -0.437822   -2.734048    1.761702
     31          6           0        2.952859    0.039691   -0.022312
     32          6           0        4.357959    0.040124   -0.625368
     33          6           0        4.840585    1.442078   -0.998721
     34          1           0        2.253285    0.490320   -0.739895
     35          1           0        2.943096    0.681863    0.869016
     36          1           0        4.364424   -0.602275   -1.515254
     37          1           0        5.054435   -0.411632    0.092583
     38          1           0        4.862681    2.089629   -0.116231
     39          1           0        4.168750    1.897902   -1.733204
     40          1           0        5.847110    1.419112   -1.427953
 ---------------------------------------------------------------------

 SCF Done:  E(RHF) =  -470.732690523     A.U. after   11 cycles
 E2 =    -0.1584102839D+01 EUMP2 =    -0.47231679336183D+03

 The electronic state is 1-A.
 Alpha  occ. eigenvalues --  -11.21594 -11.21581 -11.21577 -11.21575 -11.21399
 Alpha  occ. eigenvalues --  -11.21375 -11.21339 -11.21300 -11.21118 -11.21067
 Alpha  occ. eigenvalues --  -11.21060 -11.21045  -1.08463  -1.08385  -1.03553
 Alpha  occ. eigenvalues --   -1.03503  -0.95993  -0.95962  -0.87018  -0.86966
 Alpha  occ. eigenvalues --   -0.79637  -0.79577  -0.78413  -0.78064  -0.65184
 Alpha  occ. eigenvalues --   -0.64947  -0.61029  -0.60836  -0.59397  -0.59294
 Alpha  occ. eigenvalues --   -0.57621  -0.57564  -0.55282  -0.55251  -0.52702
 Alpha  occ. eigenvalues --   -0.52648  -0.52459  -0.52351  -0.49966  -0.49876
 Alpha  occ. eigenvalues --   -0.48013  -0.47872  -0.46785  -0.46603  -0.46120
 Alpha  occ. eigenvalues --   -0.45768  -0.45704  -0.45062  -0.43789  -0.43758
 Alpha virt. eigenvalues --    0.21182   0.23161   0.23489   0.24453   0.25792
 Alpha virt. eigenvalues --    0.26301   0.27008   0.27719   0.27985   0.29723
 Alpha virt. eigenvalues --    0.31074   0.31185   0.31698   0.31879   0.32090

 Mulliken charges:
               1
     1  C   -0.297519
     2  C   -0.307595
     3  C   -0.475203
     4  H    0.149154
     5  H    0.149367
     6  H    0.160611
     7  H    0.150901
     8  H    0.155139
     9  H    0.155037
    10  H    0.160201
    11  C   -0.305474
    12  C   -0.299127
    13  C   -0.475623
    14  H    0.158225
    15  H    0.148143
    16  H    0.151685
    17  H    0.151682
    18  H    0.155017
    19  H    0.155456
    20  H    0.160054
    21  C   -0.297317
    22  C   -0.309376
    23  C   -0.476585
    24  H    0.149646
    25  H    0.149270
    26  H    0.162404
    27  H    0.150563
    28  H    0.155674
    29  H    0.155738
    30  H    0.159701
    31  C   -0.298572
    32  C   -0.299655
    33  C   -0.475663
    34  H    0.150242
    35  H    0.149389
    36  H    0.151880
    37  H    0.151871
    38  H    0.155277
    39  H    0.155211
    40  H    0.160175
 Sum of Mulliken charges =  -0.00000

 Dipole moment (field-independent basis, Debye):
    X=              0.0174    Y=             -0.0103    Z=              0.0027  Tot=              0.0204
 Quadrupole moment (field-independent basis, Debye-Ang):
   XX=            -85.5094   YY=            -86.2540   ZZ=            -83.1909
   XY=             -1.0447   XZ=              0.5154   YZ=             -0.0780

 Normal termination of Gaussian 16 at Thu May  6 00:34:44 2021.
