 Gaussian 16, Revision A.03,
 Gaussian 16:  EM64L-G16RevA.03 25-Dec-2016

 -------------
 #p 6-31g* mp2
 -------------

 ------------------------------------------------------
 Input file generated by CHIRIPA (05-May-2021 14:55:23)
 ------------------------------------------------------
 Symbolic Z-matrix:
 Charge =  0 Multiplicity = 1

                         Standard orientation:
 ---------------------------------------------------------------------
 Center     Atomic      Atomic             Coordinates (Angstroms)
 Number     Number       Type             X           Y           Z
 ---------------------------------------------------------------------
      1          6           0        4.285962   -0.305361   -1.401837
      2          6           0        3.721117   -1.512275   -0.976599
      3          6           0        2.685033   -1.519536   -0.037969
      4          6           0        2.236196   -0.296014    0.456834
      5          6           0        2.778536    0.922988    0.052864
      6          6           0        3.813702    0.906283   -0.886657
      7          1           0        5.090460   -0.309029   -2.131334
      8          1           0        4.085874   -2.454764   -1.374985
      9          1           0        2.229722   -2.439309    0.308625
     10          1           0        2.393791    1.846592    0.468010
     11          1           0        4.250479    1.845117   -1.215080
     12          7           0        1.139826   -0.291015    1.450991
     13          8           0        0.762244    0.800347    1.871704
     14          8           0        0.678834   -1.378552    1.790675
     15          6           0       -3.711297   -0.049327   -0.242258
     16          6           0       -3.540272   -1.506981   -0.671187
     17          6           0       -4.784406   -2.353105   -0.399163
     18          1           0       -3.952874   -0.014896    0.828909
     19          1           0       -4.572348    0.382547   -0.770907
     20          1           0       -2.678955   -1.935573   -0.142925
     21          1           0       -3.298885   -1.537938   -1.741416
     22          1           0       -5.648522   -1.952115   -0.938711
     23          1           0       -5.025071   -2.352009    0.668863
     24          1           0       -4.640261   -3.391541   -0.713383
     25          6           0       -2.475943    0.809232   -0.507782
     26          6           0       -2.646968    2.266886   -0.078854
     27          6           0       -1.402833    3.113010   -0.350878
     28          1           0       -1.614892    0.377358    0.020867
     29          1           0       -2.234366    0.774800   -1.578951
     30          1           0       -2.888355    2.297843    0.991374
     31          1           0       -3.508284    2.695478   -0.607117
     32          1           0       -1.162168    3.111914   -1.418904
     33          1           0       -0.538718    2.712020    0.188669
     34          1           0       -1.546979    4.151446   -0.036657
 ---------------------------------------------------------------------

 SCF Done:  E(RHF) =  -669.536593987     A.U. after   15 cycles
 E2 =    -0.2092409977D+01 EUMP2 =    -0.67162900396346D+03

 The electronic state is 1-A.
 Alpha  occ. eigenvalues --  -20.61078 -20.61071 -15.86078 -11.31322 -11.27880
 Alpha  occ. eigenvalues --  -11.27874 -11.27608 -11.26872 -11.26860 -11.20834
 Alpha  occ. eigenvalues --  -11.20726 -11.20557 -11.20470 -11.20429 -11.20241
 Alpha  occ. eigenvalues --   -1.60127  -1.39684  -1.19486  -1.08908  -1.07585
 Alpha  occ. eigenvalues --   -1.04871  -1.02728  -0.95763  -0.95197  -0.86279
 Alpha  occ. eigenvalues --   -0.86222  -0.82600  -0.78810  -0.77668  -0.77417
 Alpha  occ. eigenvalues --   -0.72309  -0.71439  -0.70599  -0.65146  -0.64876
 Alpha  occ. eigenvalues --   -0.64177  -0.62222  -0.60097  -0.58576  -0.56822
 Alpha  occ. eigenvalues --   -0.55383  -0.54468  -0.53204  -0.52965  -0.51919
 Alpha  occ. eigenvalues --   -0.51649  -0.49260  -0.49066  -0.48931  -0.47149
 Alpha  occ. eigenvalues --   -0.45881  -0.45177  -0.44946  -0.44653  -0.42986
 Alpha  occ. eigenvalues --   -0.37461  -0.36464
 Alpha virt. eigenvalues --    0.04803   0.11166   0.16277   0.21144   0.23747
 Alpha virt. eigenvalues --    0.24917   0.26552   0.27345   0.27859   0.28341
 Alpha virt. eigenvalues --    0.29042   0.30562   0.31570   0.32392   0.32619

 Mulliken charges:
               1
     1  C   -0.170245
     2  C   -0.218639
     3  C   -0.170465
     4  C    0.157967
     5  C   -0.170432
     6  C   -0.218816
     7  H    0.226183
     8  H    0.223951
     9  H    0.275763
    10  H    0.277116
    11  H    0.224309
    12  N    0.488572
    13  O   -0.459921
    14  O   -0.458674
    15  C   -0.297327
    16  C   -0.301734
    17  C   -0.475180
    18  H    0.153910
    19  H    0.145430
    20  H    0.159625
    21  H    0.146805
    22  H    0.152522
    23  H    0.156918
    24  H    0.157444
    25  C   -0.301927
    26  C   -0.295555
    27  C   -0.486054
    28  H    0.158759
    29  H    0.142469
    30  H    0.157780
    31  H    0.146814
    32  H    0.146690
    33  H    0.169688
    34  H    0.156253
 Sum of Mulliken charges =  -0.00000

 Dipole moment (field-independent basis, Debye):
    X=              4.0940    Y=             -0.1207    Z=             -3.2979  Tot=              5.2585
 Quadrupole moment (field-independent basis, Debye-Ang):
   XX=            -79.0403   YY=            -90.7446   ZZ=            -98.0399
   XY=             -1.5830   XZ=             -6.4934   YZ=              1.3452

 Normal termination of Gaussian 16 at Thu May  6 12:36:19 2021.
