 Gaussian 16, Revision A.03,
 Gaussian 16:  EM64L-G16RevA.03 25-Dec-2016

 -------------
 #p 6-31g* mp2
 -------------

 ------------------------------------------------------
 Input file generated by CHIRIPA (05-May-2021 14:53:11)
 ------------------------------------------------------
 Symbolic Z-matrix:
 Charge =  0 Multiplicity = 1

                         Standard orientation:
 ---------------------------------------------------------------------
 Center     Atomic      Atomic             Coordinates (Angstroms)
 Number     Number       Type             X           Y           Z
 ---------------------------------------------------------------------
      1          6           0       -5.072841   -0.572649   -0.174441
      2          6           0       -6.529724   -0.289184   -0.542035
      3          6           0       -7.195911   -1.460749   -1.264133
      4          1           0       -4.510365   -0.809907   -1.087827
      5          1           0       -5.029812   -1.468298    0.460662
      6          1           0       -6.570122    0.606466   -1.175119
      7          1           0       -7.088754   -0.052386    0.372310
      8          1           0       -7.185112   -2.357070   -0.635568
      9          1           0       -6.663533   -1.694475   -2.191789
     10          1           0       -8.236777   -1.236624   -1.517560
     11          6           0       -4.393246    0.589216    0.548020
     12          6           0       -2.936363    0.305751    0.915614
     13          6           0       -2.270175    1.477316    1.637711
     14          1           0       -4.436275    1.484865   -0.087083
     15          1           0       -4.955721    0.826474    1.461406
     16          1           0       -2.377332    0.068952    0.001269
     17          1           0       -2.895965   -0.589899    1.548697
     18          1           0       -2.802553    1.711042    2.565368
     19          1           0       -2.280974    2.373637    1.009147
     20          1           0       -1.229309    1.253191    1.891139
     21          6           0        2.321541    2.056634   -0.610401
     22          6           0        1.815209    1.049189    0.217369
     23          6           0        2.568914   -0.098258    0.481652
     24          6           0        3.830731   -0.205925   -0.101026
     25          6           0        4.362771    0.780483   -0.930015
     26          6           0        3.591467    1.919308   -1.180447
     27          1           0        1.729211    2.944649   -0.810323
     28          1           0        0.829287    1.153141    0.661435
     29          1           0        2.201255   -0.893484    1.118725
     30          1           0        5.348941    0.648444   -1.358330
     31          1           0        3.987240    2.700100   -1.823698
     32          7           0        4.637959   -1.416112    0.171426
     33          8           0        5.746792   -1.486978   -0.354030
     34          8           0        4.146548   -2.270875    0.905274
 ---------------------------------------------------------------------

 SCF Done:  E(RHF) =  -669.535536342     A.U. after   15 cycles
 E2 =    -0.2090750217D+01 EUMP2 =    -0.67162628655908D+03

 The electronic state is 1-A.
 Alpha  occ. eigenvalues --  -20.60731 -20.60725 -15.85783 -11.31143 -11.27714
 Alpha  occ. eigenvalues --  -11.27702 -11.27450 -11.26730 -11.26685 -11.22418
 Alpha  occ. eigenvalues --  -11.22166 -11.22012 -11.21984 -11.21837 -11.21369
 Alpha  occ. eigenvalues --   -1.59806  -1.39360  -1.19314  -1.09020  -1.08710
 Alpha  occ. eigenvalues --   -1.04717  -1.04161  -0.96624  -0.95546  -0.87643
 Alpha  occ. eigenvalues --   -0.86113  -0.82380  -0.80225  -0.78789  -0.77429
 Alpha  occ. eigenvalues --   -0.72002  -0.71129  -0.70424  -0.65647  -0.64965
 Alpha  occ. eigenvalues --   -0.64750  -0.62115  -0.61540  -0.60015  -0.58217
 Alpha  occ. eigenvalues --   -0.55896  -0.55218  -0.53430  -0.53092  -0.53047
 Alpha  occ. eigenvalues --   -0.52652  -0.50545  -0.48762  -0.48757  -0.48535
 Alpha  occ. eigenvalues --   -0.47244  -0.46340  -0.46238  -0.44767  -0.44403
 Alpha  occ. eigenvalues --   -0.37296  -0.36320
 Alpha virt. eigenvalues --    0.05106   0.11325   0.16595   0.19697   0.22561
 Alpha virt. eigenvalues --    0.23663   0.25964   0.26151   0.26957   0.28212
 Alpha virt. eigenvalues --    0.28831   0.29984   0.30827   0.31519   0.32281

 Mulliken charges:
               1
     1  C   -0.298976
     2  C   -0.300106
     3  C   -0.476076
     4  H    0.150407
     5  H    0.151282
     6  H    0.151870
     7  H    0.152640
     8  H    0.156237
     9  H    0.155756
    10  H    0.161320
    11  C   -0.298667
    12  C   -0.301542
    13  C   -0.480730
    14  H    0.149438
    15  H    0.151579
    16  H    0.151426
    17  H    0.155642
    18  H    0.162269
    19  H    0.154347
    20  H    0.153189
    21  C   -0.173221
    22  C   -0.226874
    23  C   -0.173499
    24  C    0.158796
    25  C   -0.171277
    26  C   -0.218461
    27  H    0.226053
    28  H    0.236031
    29  H    0.275624
    30  H    0.275412
    31  H    0.223152
    32  N    0.488111
    33  O   -0.460666
    34  O   -0.460484
 Sum of Mulliken charges =  -0.00000

 Dipole moment (field-independent basis, Debye):
    X=             -3.0725    Y=              4.2462    Z=             -0.9559  Tot=              5.3277
 Quadrupole moment (field-independent basis, Debye-Ang):
   XX=           -113.6983   YY=            -96.9077   ZZ=            -92.8723
   XY=             18.2775   XZ=             -6.6171   YZ=             -2.2430

 Normal termination of Gaussian 16 at Wed May  5 20:04:34 2021.
