 Gaussian 16, Revision A.03,
 Gaussian 16:  EM64L-G16RevA.03 25-Dec-2016

 -------------
 #p 6-31g* mp2
 -------------

 ------------------------------------------------------
 Input file generated by CHIRIPA (05-May-2021 14:55:24)
 ------------------------------------------------------
 Symbolic Z-matrix:
 Charge =  0 Multiplicity = 1

                         Standard orientation:
 ---------------------------------------------------------------------
 Center     Atomic      Atomic             Coordinates (Angstroms)
 Number     Number       Type             X           Y           Z
 ---------------------------------------------------------------------
      1          6           0       -2.755213    1.990209    1.296773
      2          6           0       -3.789840    1.069126    1.490872
      3          6           0       -3.787280   -0.154479    0.814608
      4          6           0       -2.729728   -0.425540   -0.052225
      5          6           0       -1.684500    0.471550   -0.266742
      6          6           0       -1.707692    1.689012    0.420131
      7          1           0       -2.765215    2.938349    1.826232
      8          1           0       -4.604642    1.300354    2.171074
      9          1           0       -4.575544   -0.885735    0.946227
     10          1           0       -0.885792    0.212759   -0.951221
     11          1           0       -0.902855    2.402432    0.267437
     12          7           0       -2.716097   -1.717664   -0.773771
     13          8           0       -1.772972   -1.932584   -1.532033
     14          8           0       -3.648796   -2.491045   -0.567394
     15          6           0        3.355154    0.733719   -0.677184
     16          6           0        2.147823    1.646219   -0.458817
     17          6           0        1.876919    2.563775   -1.651500
     18          1           0        4.242066    1.350909   -0.875700
     19          1           0        3.188929    0.126532   -1.577788
     20          1           0        2.315670    2.250515    0.441889
     21          1           0        1.263721    1.026791   -0.260608
     22          1           0        1.683698    1.975261   -2.554230
     23          1           0        2.741625    3.205939   -1.847741
     24          1           0        1.009676    3.207401   -1.474027
     25          6           0        3.638702   -0.189508    0.506446
     26          6           0        4.846032   -1.102008    0.288080
     27          6           0        5.116937   -2.019565    1.480764
     28          1           0        3.804926    0.417678    1.407051
     29          1           0        2.751790   -0.806697    0.704962
     30          1           0        5.730135   -0.482580    0.089870
     31          1           0        4.678186   -1.706304   -0.612626
     32          1           0        4.252231   -2.661727    1.677004
     33          1           0        5.310158   -1.431051    2.383492
     34          1           0        5.984180   -2.663190    1.303290
 ---------------------------------------------------------------------

 SCF Done:  E(RHF) =  -669.535008027     A.U. after   15 cycles
 E2 =    -0.2092458577D+01 EUMP2 =    -0.67162746660425D+03

 The electronic state is 1-A.
 Alpha  occ. eigenvalues --  -20.60770 -20.60765 -15.85822 -11.31168 -11.27735
 Alpha  occ. eigenvalues --  -11.27708 -11.27464 -11.26753 -11.26702 -11.22379
 Alpha  occ. eigenvalues --  -11.21898 -11.21803 -11.21709 -11.21601 -11.21106
 Alpha  occ. eigenvalues --   -1.59845  -1.39399  -1.19338  -1.08830  -1.08733
 Alpha  occ. eigenvalues --   -1.04748  -1.03958  -0.96391  -0.95575  -0.87404
 Alpha  occ. eigenvalues --   -0.86135  -0.82420  -0.80069  -0.78596  -0.77447
 Alpha  occ. eigenvalues --   -0.72042  -0.71168  -0.70461  -0.65488  -0.64979
 Alpha  occ. eigenvalues --   -0.64748  -0.62246  -0.61248  -0.59772  -0.57986
 Alpha  occ. eigenvalues --   -0.55649  -0.55225  -0.53134  -0.53088  -0.52925
 Alpha  occ. eigenvalues --   -0.52673  -0.50315  -0.48801  -0.48796  -0.48355
 Alpha  occ. eigenvalues --   -0.47081  -0.46130  -0.46009  -0.44809  -0.44190
 Alpha  occ. eigenvalues --   -0.37318  -0.36316
 Alpha virt. eigenvalues --    0.05042   0.11299   0.16490   0.19521   0.22768
 Alpha virt. eigenvalues --    0.23818   0.25494   0.26180   0.27106   0.28245
 Alpha virt. eigenvalues --    0.29250   0.29982   0.31194   0.31625   0.32593

 Mulliken charges:
               1
     1  C   -0.171830
     2  C   -0.218334
     3  C   -0.171221
     4  C    0.159087
     5  C   -0.176241
     6  C   -0.221425
     7  H    0.225786
     8  H    0.223353
     9  H    0.275451
    10  H    0.277862
    11  H    0.231290
    12  N    0.488422
    13  O   -0.461160
    14  O   -0.460345
    15  C   -0.298477
    16  C   -0.308771
    17  C   -0.480011
    18  H    0.151141
    19  H    0.154605
    20  H    0.151824
    21  H    0.149008
    22  H    0.161244
    23  H    0.161032
    24  H    0.152856
    25  C   -0.299421
    26  C   -0.300397
    27  C   -0.476289
    28  H    0.148289
    29  H    0.153081
    30  H    0.151422
    31  H    0.155120
    32  H    0.157602
    33  H    0.154106
    34  H    0.161340
 Sum of Mulliken charges =  -0.00000

 Dipole moment (field-independent basis, Debye):
    X=              0.1027    Y=              4.4935    Z=              2.5141  Tot=              5.1500
 Quadrupole moment (field-independent basis, Debye-Ang):
   XX=            -90.1428   YY=            -98.9914   ZZ=            -95.0254
   XY=            -10.6964   XZ=             -9.4955   YZ=             -1.0920

 Normal termination of Gaussian 16 at Thu May  6 01:35:57 2021.
