 Gaussian 16, Revision A.03,
 Gaussian 16:  EM64L-G16RevA.03 25-Dec-2016

 -------------
 #p 6-31g* mp2
 -------------

 ------------------------------------------------------
 Input file generated by CHIRIPA (05-May-2021 14:57:26)
 ------------------------------------------------------
 Symbolic Z-matrix:
 Charge =  0 Multiplicity = 1

                         Standard orientation:
 ---------------------------------------------------------------------
 Center     Atomic      Atomic             Coordinates (Angstroms)
 Number     Number       Type             X           Y           Z
 ---------------------------------------------------------------------
      1          6           0       -3.149151    2.552644    0.423725
      2          6           0       -2.541167    1.811558    1.442385
      3          6           0       -2.332703    0.437224    1.293061
      4          6           0       -2.746474   -0.166471    0.106623
      5          6           0       -3.354963    0.544678   -0.926478
      6          6           0       -3.553396    1.917957   -0.755377
      7          1           0       -3.307195    3.619850    0.548182
      8          1           0       -2.226206    2.301813    2.359170
      9          1           0       -1.864438   -0.160511    2.065627
     10          1           0       -3.658199    0.028038   -1.829002
     11          1           0       -4.025818    2.490978   -1.548163
     12          7           0       -2.531093   -1.620859   -0.062986
     13          8           0       -2.904687   -2.129136   -1.117842
     14          8           0       -1.992761   -2.224992    0.862140
     15          6           0        3.797896    2.232163   -0.272379
     16          6           0        4.503328    1.191888    0.341390
     17          6           0        3.950203   -0.089466    0.423447
     18          6           0        2.683757   -0.296106   -0.121255
     19          6           0        1.956057    0.719814   -0.739033
     20          6           0        2.528749    1.993227   -0.809685
     21          1           0        4.235176    3.224465   -0.331692
     22          1           0        5.489146    1.374543    0.759536
     23          1           0        4.474393   -0.912929    0.893078
     24          1           0        0.975262    0.507117   -1.146729
     25          1           0        1.978602    2.799220   -1.286925
     26          7           0        2.087830   -1.648414   -0.040423
     27          8           0        0.970472   -1.804615   -0.528016
     28          8           0        2.749387   -2.526548    0.508997
 ---------------------------------------------------------------------

 SCF Done:  E(RHF) =  -868.335772007     A.U. after   16 cycles
 E2 =    -0.2601538553D+01 EUMP2 =    -0.87093731055992D+03

 The electronic state is 1-A.
 Alpha  occ. eigenvalues --  -20.60351 -20.60301 -20.59932 -20.59841 -15.85389
 Alpha  occ. eigenvalues --  -15.84963 -11.31042 -11.30864 -11.27654 -11.27632
 Alpha  occ. eigenvalues --  -11.27484 -11.27460 -11.27447 -11.27329 -11.26740
 Alpha  occ. eigenvalues --  -11.26710 -11.26623 -11.26607  -1.59390  -1.58927
 Alpha  occ. eigenvalues --   -1.38943  -1.38479  -1.19244  -1.19081  -1.08585
 Alpha  occ. eigenvalues --   -1.08372  -1.04688  -1.04554  -0.95369  -0.95117
 Alpha  occ. eigenvalues --   -0.86074  -0.85921  -0.82204  -0.81953  -0.77210
 Alpha  occ. eigenvalues --   -0.76900  -0.71659  -0.71189  -0.70759  -0.70363
 Alpha  occ. eigenvalues --   -0.70173  -0.70128  -0.64888  -0.64712  -0.64694
 Alpha  occ. eigenvalues --   -0.64553  -0.62032  -0.61883  -0.55183  -0.55041
 Alpha  occ. eigenvalues --   -0.53017  -0.52899  -0.52748  -0.52641  -0.48367
 Alpha  occ. eigenvalues --   -0.48343  -0.47961  -0.47902  -0.44424  -0.43600
 Alpha  occ. eigenvalues --   -0.37249  -0.37094  -0.36329  -0.36173
 Alpha virt. eigenvalues --    0.05322   0.05680   0.11291   0.11504   0.16752
 Alpha virt. eigenvalues --    0.17071   0.21420   0.21569   0.27287   0.27459
 Alpha virt. eigenvalues --    0.28275   0.28510   0.30801   0.31158   0.32448

 Mulliken charges:
               1
     1  C   -0.174463
     2  C   -0.219808
     3  C   -0.172265
     4  C    0.160890
     5  C   -0.174064
     6  C   -0.220244
     7  H    0.222558
     8  H    0.221587
     9  H    0.277696
    10  H    0.276221
    11  H    0.221368
    12  N    0.492737
    13  O   -0.462178
    14  O   -0.449392
    15  C   -0.172065
    16  C   -0.218657
    17  C   -0.171348
    18  C    0.158795
    19  C   -0.171715
    20  C   -0.219018
    21  H    0.223850
    22  H    0.222819
    23  H    0.276346
    24  H    0.274520
    25  H    0.220768
    26  N    0.488462
    27  O   -0.453947
    28  O   -0.459453
 Sum of Mulliken charges =  -0.00000

 Dipole moment (field-independent basis, Debye):
    X=              1.3753    Y=              9.4848    Z=              0.3593  Tot=              9.5907
 Quadrupole moment (field-independent basis, Debye-Ang):
   XX=            -86.7818   YY=           -110.1285   ZZ=           -100.2552
   XY=             -3.1020   XZ=              1.6910   YZ=             -1.2688

 Normal termination of Gaussian 16 at Fri May  7 03:31:25 2021.
