 Gaussian 16, Revision A.03,
 Gaussian 16:  EM64L-G16RevA.03 25-Dec-2016

 -------------
 #p 6-31g* mp2
 -------------

 ------------------------------------------------------
 Input file generated by CHIRIPA (05-May-2021 14:53:15)
 ------------------------------------------------------
 Symbolic Z-matrix:
 Charge =  0 Multiplicity = 1

                         Standard orientation:
 ---------------------------------------------------------------------
 Center     Atomic      Atomic             Coordinates (Angstroms)
 Number     Number       Type             X           Y           Z
 ---------------------------------------------------------------------
      1          6           0       -2.674932    0.962786   -0.125908
      2          6           0       -3.567717    2.203903   -0.102495
      3          6           0       -2.774351    3.499665    0.068864
      4          1           0       -2.094729    0.918648    0.805950
      5          1           0       -1.946799    1.058804   -0.943220
      6          1           0       -4.294845    2.104944    0.713659
      7          1           0       -4.146004    2.244989   -1.034435
      8          1           0       -2.060091    3.625374   -0.751278
      9          1           0       -2.209778    3.484533    1.006749
     10          1           0       -3.432150    4.374286    0.082924
     11          6           0       -3.453534   -0.340429   -0.296607
     12          6           0       -2.560748   -1.581546   -0.320020
     13          6           0       -3.354115   -2.877309   -0.491379
     14          1           0       -4.181667   -0.436447    0.520704
     15          1           0       -4.033737   -0.296291   -1.228465
     16          1           0       -1.982462   -1.622632    0.611920
     17          1           0       -1.833620   -1.482587   -1.136175
     18          1           0       -3.918688   -2.862176   -1.429264
     19          1           0       -4.068375   -3.003017    0.328762
     20          1           0       -2.696315   -3.751930   -0.505439
     21          6           0        0.805173   -2.033949    0.961699
     22          6           0        0.846173   -0.795466    1.610547
     23          6           0        1.722518    0.204160    1.177752
     24          6           0        2.547528   -0.069976    0.088027
     25          6           0        2.530010   -1.293803   -0.579228
     26          6           0        1.645740   -2.278733   -0.129193
     27          1           0        0.121329   -2.804774    1.304600
     28          1           0        0.194530   -0.602566    2.458011
     29          1           0        1.774846    1.171865    1.661721
     30          1           0        3.191752   -1.456614   -1.421254
     31          1           0        1.616058   -3.239620   -0.635020
     32          7           0        3.479469    0.980504   -0.379278
     33          8           0        4.196043    0.714099   -1.341664
     34          8           0        3.475706    2.050385    0.225683
 ---------------------------------------------------------------------

 SCF Done:  E(RHF) =  -669.534344562     A.U. after   15 cycles
 E2 =    -0.2093336372D+01 EUMP2 =    -0.67162768093410D+03

 The electronic state is 1-A.
 Alpha  occ. eigenvalues --  -20.60753 -20.60748 -15.85810 -11.31165 -11.27773
 Alpha  occ. eigenvalues --  -11.27767 -11.27499 -11.26760 -11.26749 -11.22218
 Alpha  occ. eigenvalues --  -11.21893 -11.21879 -11.21805 -11.21759 -11.21247
 Alpha  occ. eigenvalues --   -1.59830  -1.39384  -1.19362  -1.08921  -1.08734
 Alpha  occ. eigenvalues --   -1.04767  -1.04001  -0.96442  -0.95591  -0.87452
 Alpha  occ. eigenvalues --   -0.86169  -0.82428  -0.80075  -0.78698  -0.77462
 Alpha  occ. eigenvalues --   -0.72029  -0.71155  -0.70494  -0.65555  -0.65015
 Alpha  occ. eigenvalues --   -0.64764  -0.62118  -0.61399  -0.59852  -0.58059
 Alpha  occ. eigenvalues --   -0.55734  -0.55256  -0.53262  -0.53023  -0.52876
 Alpha  occ. eigenvalues --   -0.52831  -0.50374  -0.48787  -0.48782  -0.48373
 Alpha  occ. eigenvalues --   -0.47111  -0.46237  -0.46142  -0.44792  -0.44246
 Alpha  occ. eigenvalues --   -0.37225  -0.36352
 Alpha virt. eigenvalues --    0.05060   0.11144   0.16461   0.20114   0.22856
 Alpha virt. eigenvalues --    0.23656   0.25519   0.26634   0.26801   0.28360
 Alpha virt. eigenvalues --    0.28899   0.30666   0.30829   0.31407   0.32095

 Mulliken charges:
               1
     1  C   -0.297154
     2  C   -0.300378
     3  C   -0.475625
     4  H    0.143886
     5  H    0.153354
     6  H    0.150920
     7  H    0.153279
     8  H    0.158873
     9  H    0.153220
    10  H    0.161668
    11  C   -0.298846
    12  C   -0.299710
    13  C   -0.476199
    14  H    0.148593
    15  H    0.151788
    16  H    0.143846
    17  H    0.155799
    18  H    0.159242
    19  H    0.155804
    20  H    0.153763
    21  C   -0.165093
    22  C   -0.217058
    23  C   -0.170291
    24  C    0.157601
    25  C   -0.170789
    26  C   -0.220999
    27  H    0.226527
    28  H    0.222518
    29  H    0.275668
    30  H    0.275594
    31  H    0.223282
    32  N    0.488133
    33  O   -0.460762
    34  O   -0.460456
 Sum of Mulliken charges =  -0.00000

 Dipole moment (field-independent basis, Debye):
    X=             -3.3075    Y=             -3.6358    Z=              1.5647  Tot=              5.1582
 Quadrupole moment (field-independent basis, Debye-Ang):
   XX=           -111.9266   YY=            -93.8277   ZZ=            -91.2314
   XY=            -11.0541   XZ=              2.6520   YZ=              1.8479

 Normal termination of Gaussian 16 at Wed May  5 17:10:50 2021.
