 Gaussian 16, Revision A.03,
 Gaussian 16:  EM64L-G16RevA.03 25-Dec-2016

 -------------
 #p 6-31g* mp2
 -------------

 ------------------------------------------------------
 Input file generated by CHIRIPA (05-May-2021 14:57:27)
 ------------------------------------------------------
 Symbolic Z-matrix:
 Charge =  0 Multiplicity = 1

                         Standard orientation:
 ---------------------------------------------------------------------
 Center     Atomic      Atomic             Coordinates (Angstroms)
 Number     Number       Type             X           Y           Z
 ---------------------------------------------------------------------
      1          6           0       -3.556574    2.277260    0.139952
      2          6           0       -2.327564    1.823094    0.629635
      3          6           0       -2.017520    0.459931    0.615302
      4          6           0       -2.964081   -0.425291    0.101792
      5          6           0       -4.197146   -0.003678   -0.393266
      6          6           0       -4.485805    1.364034   -0.369038
      7          1           0       -3.789118    3.337965    0.154930
      8          1           0       -1.603993    2.530038    1.025514
      9          1           0       -1.073625    0.081080    0.988067
     10          1           0       -4.898219   -0.732415   -0.781669
     11          1           0       -5.441063    1.713889   -0.749995
     12          7           0       -2.647171   -1.870819    0.081381
     13          8           0       -3.498163   -2.630422   -0.376281
     14          8           0       -1.553786   -2.216851    0.523431
     15          6           0        2.223214    2.579000   -0.229663
     16          6           0        3.574249    2.300654    0.002176
     17          6           0        4.024900    0.979129    0.073119
     18          6           0        3.092985   -0.044194   -0.093119
     19          6           0        1.740487    0.200945   -0.325384
     20          6           0        1.312252    1.530106   -0.392417
     21          1           0        1.881844    3.608558   -0.283254
     22          1           0        4.283963    3.113231    0.128950
     23          1           0        5.065154    0.735246    0.251474
     24          1           0        1.056692   -0.630236   -0.447779
     25          1           0        0.262426    1.743295   -0.572584
     26          7           0        3.558204   -1.447276   -0.020085
     27          8           0        2.717192   -2.330956   -0.169900
     28          8           0        4.755046   -1.636762    0.185591
 ---------------------------------------------------------------------

 SCF Done:  E(RHF) =  -868.335483208     A.U. after   16 cycles
 E2 =    -0.2603469248D+01 EUMP2 =    -0.87093895245631D+03

 The electronic state is 1-A.
 Alpha  occ. eigenvalues --  -20.61258 -20.61252 -20.60519 -20.60462 -15.86295
 Alpha  occ. eigenvalues --  -15.85554 -11.31903 -11.31208 -11.28527 -11.28459
 Alpha  occ. eigenvalues --  -11.28276 -11.27837 -11.27754 -11.27686 -11.27616
 Alpha  occ. eigenvalues --  -11.27497 -11.26910 -11.26862  -1.60313  -1.59571
 Alpha  occ. eigenvalues --   -1.39862  -1.39110  -1.20117  -1.19428  -1.09449
 Alpha  occ. eigenvalues --   -1.08783  -1.05593  -1.04859  -0.96242  -0.95559
 Alpha  occ. eigenvalues --   -0.86938  -0.86264  -0.83097  -0.82379  -0.78151
 Alpha  occ. eigenvalues --   -0.77317  -0.72494  -0.71767  -0.71641  -0.71203
 Alpha  occ. eigenvalues --   -0.70906  -0.70532  -0.65803  -0.65606  -0.65063
 Alpha  occ. eigenvalues --   -0.64845  -0.63060  -0.61989  -0.56014  -0.55403
 Alpha  occ. eigenvalues --   -0.53935  -0.53660  -0.53172  -0.52843  -0.49275
 Alpha  occ. eigenvalues --   -0.49251  -0.48561  -0.48495  -0.45200  -0.44453
 Alpha  occ. eigenvalues --   -0.38087  -0.37462  -0.37163  -0.36465
 Alpha virt. eigenvalues --    0.04375   0.05124   0.10369   0.11070   0.15684
 Alpha virt. eigenvalues --    0.16433   0.20292   0.22028   0.26301   0.26786
 Alpha virt. eigenvalues --    0.27977   0.29013   0.30201   0.31372   0.31572

 Mulliken charges:
               1
     1  C   -0.170991
     2  C   -0.227066
     3  C   -0.180891
     4  C    0.159747
     5  C   -0.169161
     6  C   -0.217981
     7  H    0.227188
     8  H    0.222849
     9  H    0.281080
    10  H    0.279090
    11  H    0.226629
    12  N    0.488128
    13  O   -0.455779
    14  O   -0.456693
    15  C   -0.173540
    16  C   -0.218274
    17  C   -0.170198
    18  C    0.158505
    19  C   -0.182894
    20  C   -0.231872
    21  H    0.221610
    22  H    0.223190
    23  H    0.276695
    24  H    0.290280
    25  H    0.226549
    26  N    0.486810
    27  O   -0.450383
    28  O   -0.462625
 Sum of Mulliken charges =  -0.00000

 Dipole moment (field-independent basis, Debye):
    X=             -2.9825    Y=              9.6795    Z=             -0.2085  Tot=             10.1308
 Quadrupole moment (field-independent basis, Debye-Ang):
   XX=            -98.8378   YY=           -109.9595   ZZ=           -105.3396
   XY=              3.2371   XZ=              2.0547   YZ=              0.8033

 Normal termination of Gaussian 16 at Wed May  5 16:35:00 2021.
