 Gaussian 16, Revision A.03,
 Gaussian 16:  EM64L-G16RevA.03 25-Dec-2016

 -------------
 #p 6-31g* mp2
 -------------

 ------------------------------------------------------
 Input file generated by CHIRIPA (05-May-2021 14:57:23)
 ------------------------------------------------------
 Symbolic Z-matrix:
 Charge =  0 Multiplicity = 1

                         Standard orientation:
 ---------------------------------------------------------------------
 Center     Atomic      Atomic             Coordinates (Angstroms)
 Number     Number       Type             X           Y           Z
 ---------------------------------------------------------------------
      1          6           0       -2.260039    2.027670    0.542798
      2          6           0       -3.416053    2.193192   -0.227108
      3          6           0       -4.255253    1.106520   -0.490613
      4          6           0       -3.906527   -0.137120    0.033828
      5          6           0       -2.761631   -0.333963    0.804384
      6          6           0       -1.937087    0.766843    1.055183
      7          1           0       -1.613820    2.877312    0.742559
      8          1           0       -3.669355    3.171206   -0.626322
      9          1           0       -5.156262    1.206490   -1.083577
     10          1           0       -2.535402   -1.321129    1.188757
     11          1           0       -1.039946    0.635343    1.653424
     12          7           0       -4.787193   -1.295013   -0.238407
     13          8           0       -4.457781   -2.380334    0.235094
     14          8           0       -5.790194   -1.095324   -0.920132
     15          6           0        2.878934    2.309415   -0.131869
     16          6           0        4.246610    2.068982   -0.299717
     17          6           0        4.746689    0.763721   -0.272064
     18          6           0        3.846695   -0.282173   -0.073555
     19          6           0        2.478734   -0.074888    0.096755
     20          6           0        2.000908    1.238600    0.065484
     21          1           0        2.499104    3.326569   -0.154756
     22          1           0        4.930826    2.898650   -0.453157
     23          1           0        5.800812    0.549116   -0.399288
     24          1           0        1.821227   -0.922394    0.247879
     25          1           0        0.938261    1.422340    0.196121
     26          7           0        4.364325   -1.668349   -0.042364
     27          8           0        3.550699   -2.572517    0.134070
     28          8           0        5.573871   -1.824419   -0.194942
 ---------------------------------------------------------------------

 SCF Done:  E(RHF) =  -868.336452400     A.U. after   16 cycles
 E2 =    -0.2600583163D+01 EUMP2 =    -0.87093703556331D+03

 The electronic state is 1-A.
 Alpha  occ. eigenvalues --  -20.61234 -20.61227 -20.61164 -20.61159 -15.86295
 Alpha  occ. eigenvalues --  -15.86224 -11.31883 -11.31727 -11.28496 -11.28462
 Alpha  occ. eigenvalues --  -11.28373 -11.28355 -11.28291 -11.28124 -11.27634
 Alpha  occ. eigenvalues --  -11.27530 -11.27415 -11.27332  -1.60304  -1.60238
 Alpha  occ. eigenvalues --   -1.39851  -1.39787  -1.20098  -1.19921  -1.09477
 Alpha  occ. eigenvalues --   -1.09296  -1.05536  -1.05348  -0.96260  -0.96106
 Alpha  occ. eigenvalues --   -0.86963  -0.86727  -0.83083  -0.82938  -0.78101
 Alpha  occ. eigenvalues --   -0.77932  -0.72510  -0.72439  -0.71629  -0.71563
 Alpha  occ. eigenvalues --   -0.71245  -0.71047  -0.65816  -0.65693  -0.65577
 Alpha  occ. eigenvalues --   -0.65221  -0.62953  -0.62590  -0.56087  -0.55873
 Alpha  occ. eigenvalues --   -0.53906  -0.53699  -0.53631  -0.53344  -0.49289
 Alpha  occ. eigenvalues --   -0.49249  -0.49208  -0.49186  -0.45206  -0.45162
 Alpha  occ. eigenvalues --   -0.38119  -0.37915  -0.37122  -0.36954
 Alpha virt. eigenvalues --    0.04449   0.04584   0.10304   0.10679   0.15854
 Alpha virt. eigenvalues --    0.15995   0.18899   0.21991   0.25318   0.26063
 Alpha virt. eigenvalues --    0.28137   0.28879   0.30084   0.30558   0.32075

 Mulliken charges:
               1
     1  C   -0.173122
     2  C   -0.217788
     3  C   -0.169189
     4  C    0.159466
     5  C   -0.170096
     6  C   -0.224741
     7  H    0.221200
     8  H    0.225399
     9  H    0.278562
    10  H    0.279916
    11  H    0.221912
    12  N    0.487934
    13  O   -0.457028
    14  O   -0.458388
    15  C   -0.171425
    16  C   -0.217968
    17  C   -0.170043
    18  C    0.159509
    19  C   -0.172343
    20  C   -0.223478
    21  H    0.223324
    22  H    0.225043
    23  H    0.277662
    24  H    0.275033
    25  H    0.220250
    26  N    0.488010
    27  O   -0.458932
    28  O   -0.458681
 Sum of Mulliken charges =  -0.00000

 Dipole moment (field-independent basis, Debye):
    X=              1.1450    Y=              8.8192    Z=              0.7698  Tot=              8.9264
 Quadrupole moment (field-independent basis, Debye-Ang):
   XX=           -135.4242   YY=           -107.2714   ZZ=           -104.7189
   XY=              2.7999   XZ=             -2.8929   YZ=             -2.5948

 Normal termination of Gaussian 16 at Fri May  7 11:00:10 2021.
