 Gaussian 16, Revision A.03,
 Gaussian 16:  EM64L-G16RevA.03 25-Dec-2016

 -------------
 #p 6-31g* mp2
 -------------

 ------------------------------------------------------
 Input file generated by CHIRIPA (05-May-2021 14:55:23)
 ------------------------------------------------------
 Symbolic Z-matrix:
 Charge =  0 Multiplicity = 1

                         Standard orientation:
 ---------------------------------------------------------------------
 Center     Atomic      Atomic             Coordinates (Angstroms)
 Number     Number       Type             X           Y           Z
 ---------------------------------------------------------------------
      1          6           0       -0.957098   -1.664663    0.914753
      2          6           0       -1.028431   -0.276344    1.069682
      3          6           0       -2.152898    0.430021    0.632451
      4          6           0       -3.192398   -0.286979    0.041993
      5          6           0       -3.151004   -1.670167   -0.126436
      6          6           0       -2.016744   -2.355924    0.318240
      7          1           0       -0.079781   -2.205380    1.257296
      8          1           0       -0.206998    0.263115    1.532584
      9          1           0       -2.234308    1.504837    0.739976
     10          1           0       -3.985688   -2.180366   -0.591645
     11          1           0       -1.964091   -3.434109    0.196620
     12          7           0       -4.388005    0.449910   -0.424824
     13          8           0       -5.290433   -0.205035   -0.941840
     14          8           0       -4.400053    1.668476   -0.264861
     15          6           0        4.001577   -0.170241   -0.426233
     16          6           0        5.384884   -0.669591   -0.007790
     17          6           0        5.705518   -2.057370   -0.563718
     18          1           0        3.241709   -0.887360   -0.086694
     19          1           0        3.943410   -0.149198   -1.523306
     20          1           0        5.440897   -0.688371    1.088169
     21          1           0        6.141532    0.048896   -0.348198
     22          1           0        5.677178   -2.049942   -1.658133
     23          1           0        4.972563   -2.791398   -0.213605
     24          1           0        6.698998   -2.394878   -0.252354
     25          6           0        3.666512    1.215814    0.121771
     26          6           0        2.283205    1.715164   -0.296672
     27          6           0        1.962571    3.102944    0.259256
     28          1           0        3.724678    1.194771    1.218844
     29          1           0        4.426380    1.932933   -0.217768
     30          1           0        1.526558    0.996678    0.043735
     31          1           0        2.227192    1.733945   -1.392631
     32          1           0        2.695526    3.836971   -0.090858
     33          1           0        1.990910    3.095515    1.353671
     34          1           0        0.969091    3.440451   -0.052108
 ---------------------------------------------------------------------

 SCF Done:  E(RHF) =  -669.535310455     A.U. after   15 cycles
 E2 =    -0.2091691898D+01 EUMP2 =    -0.67162700235258D+03

 The electronic state is 1-A.
 Alpha  occ. eigenvalues --  -20.60778 -20.60773 -15.85832 -11.31211 -11.27786
 Alpha  occ. eigenvalues --  -11.27782 -11.27539 -11.26800 -11.26783 -11.22297
 Alpha  occ. eigenvalues --  -11.22204 -11.22095 -11.22036 -11.21743 -11.21634
 Alpha  occ. eigenvalues --   -1.59853  -1.39406  -1.19390  -1.09111  -1.08782
 Alpha  occ. eigenvalues --   -1.04797  -1.04183  -0.96628  -0.95613  -0.87639
 Alpha  occ. eigenvalues --   -0.86196  -0.82447  -0.80243  -0.78922  -0.77487
 Alpha  occ. eigenvalues --   -0.72050  -0.71176  -0.70497  -0.65805  -0.65042
 Alpha  occ. eigenvalues --   -0.64789  -0.62210  -0.61526  -0.59985  -0.58231
 Alpha  occ. eigenvalues --   -0.55931  -0.55293  -0.53309  -0.53123  -0.53049
 Alpha  occ. eigenvalues --   -0.52887  -0.50571  -0.48820  -0.48804  -0.48537
 Alpha  occ. eigenvalues --   -0.47277  -0.46455  -0.46386  -0.44808  -0.44437
 Alpha  occ. eigenvalues --   -0.37361  -0.36372
 Alpha virt. eigenvalues --    0.05044   0.11133   0.16470   0.19698   0.22791
 Alpha virt. eigenvalues --    0.23469   0.25622   0.26587   0.26750   0.28613
 Alpha virt. eigenvalues --    0.29048   0.29620   0.31073   0.31330   0.31863

 Mulliken charges:
               1
     1  C   -0.172020
     2  C   -0.217039
     3  C   -0.172095
     4  C    0.158531
     5  C   -0.170536
     6  C   -0.218417
     7  H    0.225551
     8  H    0.225826
     9  H    0.276057
    10  H    0.275788
    11  H    0.223613
    12  N    0.488112
    13  O   -0.460361
    14  O   -0.460292
    15  C   -0.296603
    16  C   -0.300156
    17  C   -0.475528
    18  H    0.142459
    19  H    0.152652
    20  H    0.151341
    21  H    0.154401
    22  H    0.156880
    23  H    0.152524
    24  H    0.162189
    25  C   -0.298756
    26  C   -0.304883
    27  C   -0.477920
    28  H    0.147191
    29  H    0.153154
    30  H    0.146725
    31  H    0.157094
    32  H    0.160062
    33  H    0.152209
    34  H    0.162246
 Sum of Mulliken charges =  -0.00000

 Dipole moment (field-independent basis, Debye):
    X=              4.3053    Y=             -2.5561    Z=              1.5632  Tot=              5.2452
 Quadrupole moment (field-independent basis, Debye-Ang):
   XX=           -120.8338   YY=            -90.2934   ZZ=            -94.3129
   XY=              9.8817   XZ=             -4.8431   YZ=              0.1482

 Normal termination of Gaussian 16 at Thu May  6 20:50:12 2021.
