 Gaussian 16, Revision A.03,
 Gaussian 16:  EM64L-G16RevA.03 25-Dec-2016

 -------------
 #p 6-31g* mp2
 -------------

 ------------------------------------------------------
 Input file generated by CHIRIPA (05-May-2021 14:55:19)
 ------------------------------------------------------
 Symbolic Z-matrix:
 Charge =  0 Multiplicity = 1

                         Standard orientation:
 ---------------------------------------------------------------------
 Center     Atomic      Atomic             Coordinates (Angstroms)
 Number     Number       Type             X           Y           Z
 ---------------------------------------------------------------------
      1          6           0        3.866237    0.983837    1.383027
      2          6           0        2.649036    0.593436    1.950943
      3          6           0        1.780491   -0.253439    1.255975
      4          6           0        2.162585   -0.693010   -0.010544
      5          6           0        3.368491   -0.321730   -0.603194
      6          6           0        4.221454    0.525815    0.110016
      7          1           0        4.534892    1.641971    1.929980
      8          1           0        2.370563    0.947591    2.939413
      9          1           0        0.832154   -0.571281    1.671970
     10          1           0        3.618619   -0.691111   -1.590317
     11          1           0        5.166118    0.827370   -0.333516
     12          7           0        1.251343   -1.589914   -0.755932
     13          8           0        1.611157   -1.963379   -1.870245
     14          8           0        0.194553   -1.902459   -0.211739
     15          6           0       -2.479891    0.897300   -0.703047
     16          6           0       -1.729575    2.199650   -0.422165
     17          6           0       -0.772227    2.585437   -1.550193
     18          1           0       -1.752521    0.089262   -0.861010
     19          1           0       -3.040995    1.000760   -1.642118
     20          1           0       -1.171156    2.094245    0.516810
     21          1           0       -2.458819    3.004643   -0.264662
     22          1           0       -1.317803    2.717882   -2.490090
     23          1           0       -0.022824    1.802313   -1.704177
     24          1           0       -0.246366    3.519380   -1.328654
     25          6           0       -3.440796    0.498384    0.415548
     26          6           0       -4.191112   -0.803966    0.134665
     27          6           0       -5.148460   -1.189752    1.262694
     28          1           0       -2.879692    0.394925    1.354619
     29          1           0       -4.168167    1.306422    0.573511
     30          1           0       -3.461868   -1.608958   -0.022837
     31          1           0       -4.749532   -0.698560   -0.804309
     32          1           0       -5.897864   -0.406628    1.416679
     33          1           0       -4.602884   -1.322199    2.202590
     34          1           0       -5.674322   -2.123696    1.041155
 ---------------------------------------------------------------------

 SCF Done:  E(RHF) =  -669.536569559     A.U. after   15 cycles
 E2 =    -0.2092363389D+01 EUMP2 =    -0.67162893294823D+03

 The electronic state is 1-A.
 Alpha  occ. eigenvalues --  -20.61049 -20.61043 -15.86064 -11.31355 -11.27911
 Alpha  occ. eigenvalues --  -11.27901 -11.27627 -11.26899 -11.26888 -11.21229
 Alpha  occ. eigenvalues --  -11.20805 -11.20793 -11.20743 -11.20558 -11.20472
 Alpha  occ. eigenvalues --   -1.60101  -1.39658  -1.19510  -1.08921  -1.07795
 Alpha  occ. eigenvalues --   -1.04898  -1.02983  -0.95770  -0.95434  -0.86461
 Alpha  occ. eigenvalues --   -0.86301  -0.82604  -0.79037  -0.77680  -0.77568
 Alpha  occ. eigenvalues --   -0.72288  -0.71414  -0.70615  -0.65169  -0.64900
 Alpha  occ. eigenvalues --   -0.64409  -0.62245  -0.60385  -0.58816  -0.57041
 Alpha  occ. eigenvalues --   -0.55402  -0.54736  -0.53218  -0.52989  -0.52170
 Alpha  occ. eigenvalues --   -0.51866  -0.49398  -0.49056  -0.49041  -0.47365
 Alpha  occ. eigenvalues --   -0.46082  -0.45423  -0.45146  -0.44582  -0.43202
 Alpha  occ. eigenvalues --   -0.37477  -0.36489
 Alpha virt. eigenvalues --    0.04814   0.11133   0.16293   0.21000   0.23076
 Alpha virt. eigenvalues --    0.24674   0.26407   0.27341   0.27909   0.28374
 Alpha virt. eigenvalues --    0.28999   0.31051   0.31670   0.32188   0.32365

 Mulliken charges:
               1
     1  C   -0.170183
     2  C   -0.218378
     3  C   -0.170857
     4  C    0.158516
     5  C   -0.170876
     6  C   -0.218228
     7  H    0.226343
     8  H    0.224233
     9  H    0.275831
    10  H    0.276150
    11  H    0.224164
    12  N    0.487710
    13  O   -0.457565
    14  O   -0.459927
    15  C   -0.309122
    16  C   -0.298305
    17  C   -0.473759
    18  H    0.170177
    19  H    0.147944
    20  H    0.143953
    21  H    0.149665
    22  H    0.156733
    23  H    0.152887
    24  H    0.155902
    25  C   -0.294546
    26  C   -0.303365
    27  C   -0.475096
    28  H    0.143309
    29  H    0.145253
    30  H    0.166641
    31  H    0.150295
    32  H    0.151844
    33  H    0.152725
    34  H    0.159931
 Sum of Mulliken charges =  -0.00000

 Dipole moment (field-independent basis, Debye):
    X=              3.4188    Y=              2.9593    Z=              2.5426  Tot=              5.1875
 Quadrupole moment (field-independent basis, Debye-Ang):
   XX=            -79.4166   YY=           -100.1095   ZZ=            -92.5636
   XY=              4.3348   XZ=              4.1237   YZ=             -1.4892

 Normal termination of Gaussian 16 at Wed May  5 15:51:46 2021.
