 Gaussian 16, Revision A.03,
 Gaussian 16:  EM64L-G16RevA.03 25-Dec-2016

 -------------
 #p 6-31g* mp2
 -------------

 ------------------------------------------------------
 Input file generated by CHIRIPA (05-May-2021 14:53:17)
 ------------------------------------------------------
 Symbolic Z-matrix:
 Charge =  0 Multiplicity = 1

                         Standard orientation:
 ---------------------------------------------------------------------
 Center     Atomic      Atomic             Coordinates (Angstroms)
 Number     Number       Type             X           Y           Z
 ---------------------------------------------------------------------
      1          6           0       -4.430921   -0.748638    0.474206
      2          6           0       -2.983143   -0.662270   -0.010010
      3          6           0       -2.047431   -1.599751    0.753775
      4          1           0       -4.467046   -0.511556    1.546321
      5          1           0       -4.783567   -1.784201    0.371029
      6          1           0       -2.633782    0.373105    0.092757
      7          1           0       -2.950485   -0.899398   -1.081140
      8          1           0       -2.368842   -2.640281    0.641559
      9          1           0       -2.050340   -1.360548    1.822126
     10          1           0       -1.017614   -1.521824    0.391470
     11          6           0       -5.378465    0.182723   -0.279753
     12          6           0       -6.826243    0.096356    0.204462
     13          6           0       -7.761955    1.033837   -0.559322
     14          1           0       -5.025819    1.218286   -0.176576
     15          1           0       -5.342340   -0.054358   -1.351869
     16          1           0       -6.858900    0.333484    1.275592
     17          1           0       -7.175604   -0.939020    0.101695
     18          1           0       -7.759046    0.794634   -1.627674
     19          1           0       -7.440544    2.074367   -0.447106
     20          1           0       -8.791772    0.955910   -0.197017
     21          6           0        1.411095    0.931932   -0.104493
     22          6           0        1.765605   -0.361336   -0.502367
     23          6           0        3.103735   -0.766080   -0.490577
     24          6           0        4.065816    0.152336   -0.073199
     25          6           0        3.744189    1.447730    0.329046
     26          6           0        2.399775    1.830752    0.309214
     27          1           0        0.369163    1.237910   -0.116774
     28          1           0        0.999907   -1.061489   -0.824137
     29          1           0        3.406051   -1.761213   -0.793449
     30          1           0        4.529858    2.123361    0.644744
     31          1           0        2.127380    2.835756    0.618748
     32          7           0        5.485760   -0.264650   -0.056461
     33          8           0        6.314457    0.563315    0.315520
     34          8           0        5.743128   -1.411554   -0.415640
 ---------------------------------------------------------------------

 SCF Done:  E(RHF) =  -669.535390148     A.U. after   15 cycles
 E2 =    -0.2091248669D+01 EUMP2 =    -0.67162663881733D+03

 The electronic state is 1-A.
 Alpha  occ. eigenvalues --  -20.60745 -20.60739 -15.85799 -11.31166 -11.27742
 Alpha  occ. eigenvalues --  -11.27736 -11.27475 -11.26749 -11.26734 -11.22677
 Alpha  occ. eigenvalues --  -11.22197 -11.22159 -11.22152 -11.22050 -11.21548
 Alpha  occ. eigenvalues --   -1.59820  -1.39374  -1.19341  -1.09212  -1.08734
 Alpha  occ. eigenvalues --   -1.04748  -1.04325  -0.96763  -0.95566  -0.87780
 Alpha  occ. eigenvalues --   -0.86145  -0.82401  -0.80403  -0.78992  -0.77452
 Alpha  occ. eigenvalues --   -0.72017  -0.71143  -0.70445  -0.65836  -0.64996
 Alpha  occ. eigenvalues --   -0.64799  -0.62141  -0.61712  -0.60139  -0.58366
 Alpha  occ. eigenvalues --   -0.56025  -0.55238  -0.53552  -0.53234  -0.53045
 Alpha  occ. eigenvalues --   -0.52726  -0.50684  -0.48800  -0.48771  -0.48684
 Alpha  occ. eigenvalues --   -0.47433  -0.46537  -0.46441  -0.44779  -0.44569
 Alpha  occ. eigenvalues --   -0.37311  -0.36345
 Alpha virt. eigenvalues --    0.05090   0.11206   0.16575   0.19198   0.22456
 Alpha virt. eigenvalues --    0.23919   0.25130   0.25962   0.26390   0.27531
 Alpha virt. eigenvalues --    0.28948   0.29403   0.30803   0.31648   0.31701

 Mulliken charges:
               1
     1  C   -0.298621
     2  C   -0.301488
     3  C   -0.479981
     4  H    0.151598
     5  H    0.152462
     6  H    0.145736
     7  H    0.152802
     8  H    0.160472
     9  H    0.160215
    10  H    0.152850
    11  C   -0.298710
    12  C   -0.300271
    13  C   -0.476082
    14  H    0.148649
    15  H    0.150503
    16  H    0.152799
    17  H    0.153246
    18  H    0.155837
    19  H    0.155240
    20  H    0.162072
    21  C   -0.172431
    22  C   -0.221509
    23  C   -0.171194
    24  C    0.158468
    25  C   -0.170728
    26  C   -0.218996
    27  H    0.228420
    28  H    0.226767
    29  H    0.275808
    30  H    0.275556
    31  H    0.223374
    32  N    0.488040
    33  O   -0.460499
    34  O   -0.460403
 Sum of Mulliken charges =  -0.00000

 Dipole moment (field-independent basis, Debye):
    X=             -5.2144    Y=              1.4360    Z=             -0.0217  Tot=              5.4086
 Quadrupole moment (field-independent basis, Debye-Ang):
   XX=           -135.3570   YY=            -90.0541   ZZ=            -94.6772
   XY=              7.4274   XZ=              0.2960   YZ=              2.4254

 Normal termination of Gaussian 16 at Thu May  6 20:32:15 2021.
