 Gaussian 16, Revision A.03,
 Gaussian 16:  EM64L-G16RevA.03 25-Dec-2016

 -------------
 #p 6-31g* mp2
 -------------

 ------------------------------------------------------
 Input file generated by CHIRIPA (05-May-2021 14:51:10)
 ------------------------------------------------------
 Symbolic Z-matrix:
 Charge =  0 Multiplicity = 1

                         Standard orientation:
 ---------------------------------------------------------------------
 Center     Atomic      Atomic             Coordinates (Angstroms)
 Number     Number       Type             X           Y           Z
 ---------------------------------------------------------------------
      1          6           0       -2.741946   -0.259888    0.206824
      2          6           0       -3.611817   -1.461554   -0.163727
      3          6           0       -2.960456   -2.796766    0.197842
      4          1           0       -1.772315   -0.346271   -0.302390
      5          1           0       -2.532191   -0.286506    1.285105
      6          1           0       -3.821018   -1.431919   -1.240748
      7          1           0       -4.579560   -1.372202    0.346277
      8          1           0       -2.766760   -2.852010    1.273960
      9          1           0       -2.003907   -2.912066   -0.322081
     10          1           0       -3.599353   -3.642247   -0.075715
     11          6           0       -3.379583    1.082101   -0.148441
     12          6           0       -2.509712    2.283767    0.222111
     13          6           0       -3.161072    3.618979   -0.139458
     14          1           0       -3.589338    1.108719   -1.226721
     15          1           0       -4.349214    1.168484    0.360773
     16          1           0       -1.541968    2.194415   -0.287893
     17          1           0       -2.300511    2.254131    1.299131
     18          1           0       -4.117622    3.734279    0.380465
     19          1           0       -3.354769    3.674222   -1.215577
     20          1           0       -2.522175    4.464459    0.134098
     21          6           0        2.353753   -0.695147   -0.082930
     22          6           0        2.308394   -2.222643   -0.031163
     23          6           0        0.887155   -2.775875   -0.139837
     24          1           0        1.737301   -0.288579    0.730480
     25          1           0        1.897048   -0.353325   -1.022065
     26          1           0        2.766297   -2.561540    0.906968
     27          1           0        2.925180   -2.625622   -0.844673
     28          1           0        0.424230   -2.466173   -1.082379
     29          1           0        0.264444   -2.401726    0.679215
     30          1           0        0.878002   -3.869602   -0.100654
     31          6           0        3.767776   -0.127066    0.024546
     32          6           0        3.813135    1.400431   -0.027221
     33          6           0        5.234374    1.953662    0.081453
     34          1           0        4.224482   -0.468889    0.963681
     35          1           0        4.384228   -0.533633   -0.788863
     36          1           0        3.196350    1.803409    0.786290
     37          1           0        3.355232    1.739328   -0.965353
     38          1           0        5.857084    1.579514   -0.737599
     39          1           0        5.697299    1.643960    1.023995
     40          1           0        5.243526    3.047390    0.042271
 ---------------------------------------------------------------------

 SCF Done:  E(RHF) =  -470.732808452     A.U. after   11 cycles
 E2 =    -0.1583295656D+01 EUMP2 =    -0.47231610410838D+03

 The electronic state is 1-A.
 Alpha  occ. eigenvalues --  -11.21611 -11.21605 -11.21567 -11.21512 -11.21420
 Alpha  occ. eigenvalues --  -11.21360 -11.21351 -11.21286 -11.21078 -11.21072
 Alpha  occ. eigenvalues --  -11.21047 -11.20876  -1.08447  -1.08368  -1.03560
 Alpha  occ. eigenvalues --   -1.03446  -0.96030  -0.95878  -0.87078  -0.86871
 Alpha  occ. eigenvalues --   -0.79708  -0.79443  -0.78301  -0.78132  -0.65073
 Alpha  occ. eigenvalues --   -0.65003  -0.60944  -0.60863  -0.59372  -0.59279
 Alpha  occ. eigenvalues --   -0.57684  -0.57454  -0.55290  -0.55203  -0.52779
 Alpha  occ. eigenvalues --   -0.52608  -0.52522  -0.52158  -0.49947  -0.49832
 Alpha  occ. eigenvalues --   -0.48150  -0.47650  -0.46645  -0.46535  -0.45977
 Alpha  occ. eigenvalues --   -0.45745  -0.45652  -0.45402  -0.43792  -0.43716
 Alpha virt. eigenvalues --    0.21605   0.23114   0.23560   0.24728   0.25914
 Alpha virt. eigenvalues --    0.26470   0.27055   0.27150   0.28346   0.29536
 Alpha virt. eigenvalues --    0.29977   0.31428   0.31762   0.31923   0.32254

 Mulliken charges:
               1
     1  C   -0.300681
     2  C   -0.299021
     3  C   -0.483405
     4  H    0.152562
     5  H    0.148380
     6  H    0.151134
     7  H    0.151245
     8  H    0.153360
     9  H    0.167939
    10  H    0.158938
    11  C   -0.298153
    12  C   -0.299718
    13  C   -0.475647
    14  H    0.149283
    15  H    0.149524
    16  H    0.152391
    17  H    0.151511
    18  H    0.155091
    19  H    0.155078
    20  H    0.160123
    21  C   -0.298777
    22  C   -0.300742
    23  C   -0.478957
    24  H    0.150699
    25  H    0.148679
    26  H    0.152078
    27  H    0.151719
    28  H    0.153522
    29  H    0.160686
    30  H    0.160883
    31  C   -0.298251
    32  C   -0.299665
    33  C   -0.475715
    34  H    0.149654
    35  H    0.149653
    36  H    0.152215
    37  H    0.151704
    38  H    0.155161
    39  H    0.155226
    40  H    0.160294
 Sum of Mulliken charges =  -0.00000

 Dipole moment (field-independent basis, Debye):
    X=              0.0466    Y=             -0.0215    Z=              0.0025  Tot=              0.0514
 Quadrupole moment (field-independent basis, Debye-Ang):
   XX=            -85.8965   YY=            -86.1762   ZZ=            -82.9246
   XY=             -0.2514   XZ=             -0.5795   YZ=              0.2468

 Normal termination of Gaussian 16 at Wed May  5 16:40:40 2021.
