 Gaussian 16, Revision A.03,
 Gaussian 16:  EM64L-G16RevA.03 25-Dec-2016

 -------------
 #p 6-31g* mp2
 -------------

 ------------------------------------------------------
 Input file generated by CHIRIPA (05-May-2021 14:57:23)
 ------------------------------------------------------
 Symbolic Z-matrix:
 Charge =  0 Multiplicity = 1

                         Standard orientation:
 ---------------------------------------------------------------------
 Center     Atomic      Atomic             Coordinates (Angstroms)
 Number     Number       Type             X           Y           Z
 ---------------------------------------------------------------------
      1          6           0        1.911981    1.555397   -0.019425
      2          6           0        2.032609    0.573786    0.969720
      3          6           0        3.163961   -0.245858    1.022380
      4          6           0        4.160006   -0.055629    0.065825
      5          6           0        4.069005    0.913622   -0.931953
      6          6           0        2.928772    1.721889   -0.965437
      7          1           0        1.029670    2.187697   -0.052885
      8          1           0        1.244529    0.442234    1.705702
      9          1           0        3.283097   -1.013512    1.777319
     10          1           0        4.871178    1.021029   -1.651953
     11          1           0        2.837790    2.483412   -1.734755
     12          7           0        5.362419   -0.917327    0.111424
     13          8           0        6.225942   -0.729701   -0.742838
     14          8           0        5.418581   -1.764036    1.000562
     15          6           0       -6.386236   -0.782831   -0.002008
     16          6           0       -5.446477   -1.572496   -0.672684
     17          6           0       -4.100506   -1.196347   -0.710371
     18          6           0       -3.727452   -0.019060   -0.063753
     19          6           0       -4.640069    0.788901    0.612722
     20          6           0       -5.980747    0.393273    0.637427
     21          1           0       -7.429762   -1.082599    0.022225
     22          1           0       -5.758524   -2.486383   -1.170160
     23          1           0       -3.352077   -1.788974   -1.222294
     24          1           0       -4.298849    1.694544    1.099340
     25          1           0       -6.708385    1.008498    1.159047
     26          7           0       -2.305334    0.389463   -0.096779
     27          8           0       -2.002134    1.431183    0.480736
     28          8           0       -1.520807   -0.339794   -0.699555
 ---------------------------------------------------------------------

 SCF Done:  E(RHF) =  -868.340951056     A.U. after   16 cycles
 E2 =    -0.2598586421D+01 EUMP2 =    -0.87093953747701D+03

 The electronic state is 1-A.
 Alpha  occ. eigenvalues --  -20.61959 -20.61935 -20.59746 -20.59740 -15.86939
 Alpha  occ. eigenvalues --  -15.84791 -11.31970 -11.29839 -11.28507 -11.28478
 Alpha  occ. eigenvalues --  -11.28171 -11.27435 -11.27414 -11.26435 -11.26374
 Alpha  occ. eigenvalues --  -11.25840 -11.25308 -11.25179  -1.61003  -1.58830
 Alpha  occ. eigenvalues --   -1.40560  -1.38393  -1.20110  -1.17966  -1.09570
 Alpha  occ. eigenvalues --   -1.07364  -1.05458  -1.03343  -0.96459  -0.94262
 Alpha  occ. eigenvalues --   -0.86871  -0.84723  -0.83299  -0.81135  -0.78385
 Alpha  occ. eigenvalues --   -0.76267  -0.73168  -0.72295  -0.71208  -0.71017
 Alpha  occ. eigenvalues --   -0.70151  -0.68955  -0.65762  -0.65454  -0.63598
 Alpha  occ. eigenvalues --   -0.63325  -0.62806  -0.60723  -0.55971  -0.53810
 Alpha  occ. eigenvalues --   -0.53681  -0.53539  -0.51673  -0.51424  -0.49947
 Alpha  occ. eigenvalues --   -0.49882  -0.47789  -0.47740  -0.46034  -0.43872
 Alpha  occ. eigenvalues --   -0.38069  -0.37045  -0.35817  -0.34959
 Alpha virt. eigenvalues --    0.04113   0.06284   0.10615   0.12723   0.15686
 Alpha virt. eigenvalues --    0.17895   0.20800   0.22977   0.26738   0.27668
 Alpha virt. eigenvalues --    0.28662   0.29920   0.30461   0.31871   0.32687

 Mulliken charges:
               1
     1  C   -0.165387
     2  C   -0.214366
     3  C   -0.173524
     4  C    0.156522
     5  C   -0.172429
     6  C   -0.220989
     7  H    0.241526
     8  H    0.225876
     9  H    0.270283
    10  H    0.270403
    11  H    0.218681
    12  N    0.488411
    13  O   -0.464635
    14  O   -0.464432
    15  C   -0.169498
    16  C   -0.218593
    17  C   -0.170338
    18  C    0.157312
    19  C   -0.170697
    20  C   -0.218562
    21  H    0.228401
    22  H    0.226366
    23  H    0.277482
    24  H    0.275036
    25  H    0.225536
    26  N    0.488749
    27  O   -0.470967
    28  O   -0.456167
 Sum of Mulliken charges =  -0.00000

 Dipole moment (field-independent basis, Debye):
    X=            -10.0012    Y=              1.5902    Z=             -0.0700  Tot=             10.1270
 Quadrupole moment (field-independent basis, Debye-Ang):
   XX=           -103.7864   YY=           -101.5265   ZZ=           -101.2670
   XY=             19.0056   XZ=             -3.3160   YZ=              0.8572

 Normal termination of Gaussian 16 at Fri May  7 09:28:21 2021.
