 Gaussian 16, Revision A.03,
 Gaussian 16:  EM64L-G16RevA.03 25-Dec-2016

 -------------
 #p 6-31g* mp2
 -------------

 ------------------------------------------------------
 Input file generated by CHIRIPA (05-May-2021 14:53:16)
 ------------------------------------------------------
 Symbolic Z-matrix:
 Charge =  0 Multiplicity = 1

                         Standard orientation:
 ---------------------------------------------------------------------
 Center     Atomic      Atomic             Coordinates (Angstroms)
 Number     Number       Type             X           Y           Z
 ---------------------------------------------------------------------
      1          6           0        2.852782    0.498630   -0.647817
      2          6           0        2.725844    1.932436   -0.131995
      3          6           0        2.155417    2.889168   -1.179407
      4          1           0        3.493646    0.492113   -1.540115
      5          1           0        1.864220    0.143540   -0.970387
      6          1           0        3.714107    2.284230    0.190793
      7          1           0        2.085363    1.935513    0.759291
      8          1           0        1.158394    2.565052   -1.494835
      9          1           0        2.796393    2.915750   -2.066563
     10          1           0        2.073235    3.908547   -0.789572
     11          6           0        3.421584   -0.469656    0.387854
     12          6           0        3.548522   -1.903462   -0.127968
     13          6           0        4.118949   -2.860194    0.919444
     14          1           0        4.410146   -0.114566    0.710424
     15          1           0        2.780720   -0.463140    1.280152
     16          1           0        4.189003   -1.906540   -1.019254
     17          1           0        2.560259   -2.255256   -0.450757
     18          1           0        3.477974   -2.886776    1.806600
     19          1           0        5.115972   -2.536078    1.234872
     20          1           0        4.201132   -3.879574    0.529609
     21          6           0       -1.651171    2.004061    1.391729
     22          6           0       -2.253601    0.935993    2.064658
     23          6           0       -2.700503   -0.185741    1.360002
     24          6           0       -2.528242   -0.206157   -0.023181
     25          6           0       -1.931867    0.842190   -0.722177
     26          6           0       -1.492507    1.953838    0.002908
     27          1           0       -1.306935    2.871534    1.947058
     28          1           0       -2.378132    0.972257    3.143186
     29          1           0       -3.170272   -1.026538    1.855778
     30          1           0       -1.821547    0.777175   -1.797826
     31          1           0       -1.025008    2.781854   -0.522337
     32          7           0       -2.997365   -1.388348   -0.779983
     33          8           0       -2.833935   -1.381964   -1.998132
     34          8           0       -3.519610   -2.298949   -0.140684
 ---------------------------------------------------------------------

 SCF Done:  E(RHF) =  -669.535547343     A.U. after   15 cycles
 E2 =    -0.2092113048D+01 EUMP2 =    -0.67162766039126D+03

 The electronic state is 1-A.
 Alpha  occ. eigenvalues --  -20.60823 -20.60818 -15.85877 -11.31266 -11.27832
 Alpha  occ. eigenvalues --  -11.27826 -11.27567 -11.26849 -11.26819 -11.22143
 Alpha  occ. eigenvalues --  -11.21850 -11.21698 -11.21668 -11.21572 -11.21112
 Alpha  occ. eigenvalues --   -1.59899  -1.39451  -1.19437  -1.08829  -1.08724
 Alpha  occ. eigenvalues --   -1.04843  -1.03868  -0.96336  -0.95656  -0.87362
 Alpha  occ. eigenvalues --   -0.86230  -0.82490  -0.79942  -0.78504  -0.77535
 Alpha  occ. eigenvalues --   -0.72094  -0.71223  -0.70534  -0.65407  -0.65085
 Alpha  occ. eigenvalues --   -0.64824  -0.62244  -0.61217  -0.59725  -0.57924
 Alpha  occ. eigenvalues --   -0.55674  -0.55303  -0.53158  -0.53074  -0.52942
 Alpha  occ. eigenvalues --   -0.52701  -0.50261  -0.48852  -0.48848  -0.48251
 Alpha  occ. eigenvalues --   -0.46960  -0.46058  -0.45951  -0.44852  -0.44104
 Alpha  occ. eigenvalues --   -0.37406  -0.36423
 Alpha virt. eigenvalues --    0.04970   0.11143   0.16368   0.20367   0.22844
 Alpha virt. eigenvalues --    0.24063   0.25844   0.26517   0.27126   0.28255
 Alpha virt. eigenvalues --    0.28822   0.30510   0.31187   0.31665   0.32085

 Mulliken charges:
               1
     1  C   -0.299167
     2  C   -0.299022
     3  C   -0.478606
     4  H    0.150975
     5  H    0.151756
     6  H    0.153714
     7  H    0.149091
     8  H    0.148101
     9  H    0.160475
    10  H    0.157095
    11  C   -0.298496
    12  C   -0.300633
    13  C   -0.475834
    14  H    0.149013
    15  H    0.149175
    16  H    0.152521
    17  H    0.155590
    18  H    0.154845
    19  H    0.154307
    20  H    0.162319
    21  C   -0.172638
    22  C   -0.218572
    23  C   -0.171022
    24  C    0.158480
    25  C   -0.173145
    26  C   -0.218536
    27  H    0.226401
    28  H    0.223789
    29  H    0.275870
    30  H    0.275938
    31  H    0.228535
    32  N    0.488024
    33  O   -0.460122
    34  O   -0.460222
 Sum of Mulliken charges =  -0.00000

 Dipole moment (field-independent basis, Debye):
    X=              1.6870    Y=              4.0892    Z=              2.6740  Tot=              5.1689
 Quadrupole moment (field-independent basis, Debye-Ang):
   XX=           -102.4375   YY=            -96.8552   ZZ=            -91.7153
   XY=             -9.7989   XZ=             -9.1177   YZ=             -2.1414

 Normal termination of Gaussian 16 at Thu May  6 12:14:21 2021.
