 Gaussian 16, Revision A.03,
 Gaussian 16:  EM64L-G16RevA.03 25-Dec-2016

 -------------
 #p 6-31g* mp2
 -------------

 ------------------------------------------------------
 Input file generated by CHIRIPA (05-May-2021 14:55:20)
 ------------------------------------------------------
 Symbolic Z-matrix:
 Charge =  0 Multiplicity = 1

                         Standard orientation:
 ---------------------------------------------------------------------
 Center     Atomic      Atomic             Coordinates (Angstroms)
 Number     Number       Type             X           Y           Z
 ---------------------------------------------------------------------
      1          6           0       -2.390990   -2.060854    1.217951
      2          6           0       -2.621611   -1.900902   -0.152360
      3          6           0       -2.705408   -0.623317   -0.713878
      4          6           0       -2.553127    0.477270    0.128029
      5          6           0       -2.322444    0.350532    1.496975
      6          6           0       -2.242404   -0.936608    2.036801
      7          1           0       -2.327354   -3.057024    1.645726
      8          1           0       -2.737397   -2.772200   -0.790700
      9          1           0       -2.883144   -0.470700   -1.771487
     10          1           0       -2.211156    1.238114    2.107901
     11          1           0       -2.063217   -1.057811    3.101342
     12          7           0       -2.639850    1.834850   -0.454943
     13          8           0       -2.502201    2.788402    0.308226
     14          8           0       -2.843831    1.919662   -1.664007
     15          6           0        2.876713   -0.985913   -0.369649
     16          6           0        1.552592   -0.845365   -1.121272
     17          6           0        0.818083   -2.177071   -1.278917
     18          1           0        3.519475   -1.699972   -0.902490
     19          1           0        2.683452   -1.418717    0.621676
     20          1           0        1.748129   -0.411671   -2.110357
     21          1           0        0.912981   -0.131412   -0.586684
     22          1           0        0.594187   -2.611838   -0.299404
     23          1           0        1.434080   -2.893690   -1.831734
     24          1           0       -0.125788   -2.053478   -1.819001
     25          6           0        3.622703    0.336890   -0.204072
     26          6           0        4.946823    0.196343    0.547550
     27          6           0        5.681332    1.528048    0.705196
     28          1           0        3.815963    0.769694   -1.195398
     29          1           0        2.979941    1.050951    0.328768
     30          1           0        5.586434   -0.517611    0.012962
     31          1           0        4.751286   -0.237352    1.536636
     32          1           0        5.065335    2.244668    1.258012
     33          1           0        5.905228    1.962816   -0.274318
     34          1           0        6.625203    1.404455    1.245279
 ---------------------------------------------------------------------

 SCF Done:  E(RHF) =  -669.534748651     A.U. after   15 cycles
 E2 =    -0.2093153344D+01 EUMP2 =    -0.67162790199455D+03

 The electronic state is 1-A.
 Alpha  occ. eigenvalues --  -20.60808 -20.60803 -15.85863 -11.31259 -11.27797
 Alpha  occ. eigenvalues --  -11.27787 -11.27526 -11.26839 -11.26808 -11.21674
 Alpha  occ. eigenvalues --  -11.21623 -11.21479 -11.21364 -11.21286 -11.21040
 Alpha  occ. eigenvalues --   -1.59884  -1.39436  -1.19418  -1.08809  -1.08482
 Alpha  occ. eigenvalues --   -1.04827  -1.03594  -0.96062  -0.95640  -0.87090
 Alpha  occ. eigenvalues --   -0.86212  -0.82473  -0.79663  -0.78286  -0.77518
 Alpha  occ. eigenvalues --   -0.72079  -0.71208  -0.70514  -0.65117  -0.65069
 Alpha  occ. eigenvalues --   -0.64822  -0.62175  -0.61009  -0.59461  -0.57683
 Alpha  occ. eigenvalues --   -0.55408  -0.55312  -0.53254  -0.52918  -0.52582
 Alpha  occ. eigenvalues --   -0.52463  -0.49995  -0.48840  -0.48833  -0.47984
 Alpha  occ. eigenvalues --   -0.46698  -0.45830  -0.45755  -0.44836  -0.43871
 Alpha  occ. eigenvalues --   -0.37359  -0.36339
 Alpha virt. eigenvalues --    0.04983   0.11218   0.16400   0.21067   0.22799
 Alpha virt. eigenvalues --    0.24183   0.26546   0.26572   0.27335   0.28121
 Alpha virt. eigenvalues --    0.28326   0.30623   0.31308   0.31745   0.32381

 Mulliken charges:
               1
     1  C   -0.172237
     2  C   -0.211817
     3  C   -0.171589
     4  C    0.159503
     5  C   -0.172647
     6  C   -0.218433
     7  H    0.225868
     8  H    0.224389
     9  H    0.275643
    10  H    0.275618
    11  H    0.223597
    12  N    0.487804
    13  O   -0.460398
    14  O   -0.459994
    15  C   -0.298137
    16  C   -0.300449
    17  C   -0.472311
    18  H    0.149145
    19  H    0.146732
    20  H    0.154689
    21  H    0.153907
    22  H    0.150813
    23  H    0.152946
    24  H    0.154774
    25  C   -0.298830
    26  C   -0.299540
    27  C   -0.475832
    28  H    0.151464
    29  H    0.151439
    30  H    0.151483
    31  H    0.150187
    32  H    0.156189
    33  H    0.156288
    34  H    0.159735
 Sum of Mulliken charges =  -0.00000

 Dipole moment (field-independent basis, Debye):
    X=              0.2615    Y=             -4.7334    Z=              2.0572  Tot=              5.1677
 Quadrupole moment (field-independent basis, Debye-Ang):
   XX=            -97.1554   YY=            -99.9944   ZZ=            -89.5480
   XY=             12.4879   XZ=             -5.0483   YZ=              2.2757

 Normal termination of Gaussian 16 at Thu May  6 17:25:44 2021.
