 Gaussian 16, Revision A.03,
 Gaussian 16:  EM64L-G16RevA.03 25-Dec-2016

 -------------
 #p 6-31g* mp2
 -------------

 ------------------------------------------------------
 Input file generated by CHIRIPA (05-May-2021 14:53:16)
 ------------------------------------------------------
 Symbolic Z-matrix:
 Charge =  0 Multiplicity = 1

                         Standard orientation:
 ---------------------------------------------------------------------
 Center     Atomic      Atomic             Coordinates (Angstroms)
 Number     Number       Type             X           Y           Z
 ---------------------------------------------------------------------
      1          6           0       -3.706305    1.148610    0.239591
      2          6           0       -2.712318    1.764997   -0.745316
      3          6           0       -2.223162    3.145270   -0.305580
      4          1           0       -4.565107    1.823962    0.354933
      5          1           0       -3.233057    1.073072    1.228390
      6          1           0       -3.186831    1.838074   -1.732288
      7          1           0       -1.855873    1.088009   -0.858473
      8          1           0       -1.725564    3.085568    0.667781
      9          1           0       -3.064085    3.839894   -0.210998
     10          1           0       -1.513585    3.567408   -1.024024
     11          6           0       -4.204420   -0.231349   -0.186229
     12          6           0       -5.198407   -0.847737    0.798677
     13          6           0       -5.687563   -2.228009    0.358942
     14          1           0       -4.677669   -0.155811   -1.175029
     15          1           0       -3.345619   -0.906702   -0.301572
     16          1           0       -6.054853   -0.170748    0.911834
     17          1           0       -4.723894   -0.920813    1.785649
     18          1           0       -4.846640   -2.922634    0.264359
     19          1           0       -6.185161   -2.168308   -0.614420
     20          1           0       -6.397140   -2.650147    1.077385
     21          6           0        5.328887    0.671173    0.521421
     22          6           0        4.170833    1.454826    0.557746
     23          6           0        2.925048    0.895003    0.259136
     24          6           0        2.873693   -0.457831   -0.073269
     25          6           0        4.009560   -1.264728   -0.118108
     26          6           0        5.244703   -0.683714    0.184204
     27          1           0        6.292509    1.114288    0.754825
     28          1           0        4.233203    2.507319    0.819302
     29          1           0        2.012700    1.478629    0.279629
     30          1           0        3.915695   -2.311054   -0.382321
     31          1           0        6.142405   -1.294725    0.155193
     32          7           0        1.560468   -1.061708   -0.391352
     33          8           0        1.541979   -2.255964   -0.681262
     34          8           0        0.574520   -0.329335   -0.344735
 ---------------------------------------------------------------------

 SCF Done:  E(RHF) =  -669.536320074     A.U. after   15 cycles
 E2 =    -0.2090890708D+01 EUMP2 =    -0.67162721078199D+03

 The electronic state is 1-A.
 Alpha  occ. eigenvalues --  -20.60985 -20.60975 -15.86027 -11.31316 -11.27876
 Alpha  occ. eigenvalues --  -11.27871 -11.27610 -11.26879 -11.26868 -11.20726
 Alpha  occ. eigenvalues --  -11.20404 -11.20359 -11.20320 -11.20269 -11.20264
 Alpha  occ. eigenvalues --   -1.60048  -1.39605  -1.19482  -1.08892  -1.07405
 Alpha  occ. eigenvalues --   -1.04874  -1.02591  -0.95739  -0.95085  -0.86276
 Alpha  occ. eigenvalues --   -0.86106  -0.82577  -0.78645  -0.77632  -0.77196
 Alpha  occ. eigenvalues --   -0.72256  -0.71361  -0.70591  -0.65142  -0.64877
 Alpha  occ. eigenvalues --   -0.64013  -0.62221  -0.59974  -0.58454  -0.56688
 Alpha  occ. eigenvalues --   -0.55381  -0.54376  -0.53208  -0.52966  -0.51816
 Alpha  occ. eigenvalues --   -0.51512  -0.49077  -0.49005  -0.48951  -0.46972
 Alpha  occ. eigenvalues --   -0.45633  -0.45026  -0.44772  -0.44595  -0.42835
 Alpha  occ. eigenvalues --   -0.37461  -0.36475
 Alpha virt. eigenvalues --    0.04899   0.11180   0.16401   0.21202   0.23789
 Alpha virt. eigenvalues --    0.24932   0.27203   0.27527   0.28181   0.28722
 Alpha virt. eigenvalues --    0.28913   0.30914   0.32005   0.32566   0.32662

 Mulliken charges:
               1
     1  C   -0.295879
     2  C   -0.311983
     3  C   -0.474201
     4  H    0.143681
     5  H    0.148485
     6  H    0.146960
     7  H    0.181843
     8  H    0.150830
     9  H    0.151400
    10  H    0.154911
    11  C   -0.301341
    12  C   -0.298801
    13  C   -0.475658
    14  H    0.146331
    15  H    0.162857
    16  H    0.148240
    17  H    0.150918
    18  H    0.158183
    19  H    0.153564
    20  H    0.156795
    21  C   -0.170540
    22  C   -0.218593
    23  C   -0.170852
    24  C    0.157296
    25  C   -0.170556
    26  C   -0.218615
    27  H    0.226104
    28  H    0.224136
    29  H    0.276223
    30  H    0.275854
    31  H    0.223872
    32  N    0.496269
    33  O   -0.458922
    34  O   -0.468812
 Sum of Mulliken charges =  -0.00000

 Dipole moment (field-independent basis, Debye):
    X=              4.9363    Y=              1.9495    Z=              1.0797  Tot=              5.4160
 Quadrupole moment (field-independent basis, Debye-Ang):
   XX=            -68.3402   YY=            -94.4175   ZZ=            -95.5912
   XY=              1.4843   XZ=              3.0588   YZ=             -0.1563

 Normal termination of Gaussian 16 at Thu May  6 15:34:18 2021.
