 Gaussian 16, Revision A.03,
 Gaussian 16:  EM64L-G16RevA.03 25-Dec-2016

 -------------
 #p 6-31g* mp2
 -------------

 ------------------------------------------------------
 Input file generated by CHIRIPA (05-May-2021 14:53:16)
 ------------------------------------------------------
 Symbolic Z-matrix:
 Charge =  0 Multiplicity = 1

                         Standard orientation:
 ---------------------------------------------------------------------
 Center     Atomic      Atomic             Coordinates (Angstroms)
 Number     Number       Type             X           Y           Z
 ---------------------------------------------------------------------
      1          6           0       -3.429904   -0.745299   -0.137041
      2          6           0       -2.857380   -1.481714    1.074526
      3          6           0       -1.881888   -2.592579    0.684412
      4          1           0       -3.937144   -1.467649   -0.791154
      5          1           0       -2.603433   -0.319746   -0.722913
      6          1           0       -3.684760   -1.904574    1.658689
      7          1           0       -2.351609   -0.757497    1.725926
      8          1           0       -1.037324   -2.183217    0.120731
      9          1           0       -2.378051   -3.336812    0.053111
     10          1           0       -1.484700   -3.105854    1.565689
     11          6           0       -4.406775    0.368124    0.236777
     12          6           0       -4.979298    1.104538   -0.974790
     13          6           0       -5.954790    2.215403   -0.584675
     14          1           0       -5.233245   -0.057430    0.822650
     15          1           0       -3.899534    1.090473    0.890890
     16          1           0       -5.485069    0.380321   -1.626190
     17          1           0       -4.151918    1.527399   -1.558953
     18          1           0       -5.458628    2.959636    0.046625
     19          1           0       -6.799354    1.806042   -0.020994
     20          1           0       -6.351978    2.728678   -1.465953
     21          6           0        3.686377    2.500775    0.621644
     22          6           0        2.762728    1.780944    1.386652
     23          6           0        2.408894    0.476275    1.030018
     24          6           0        3.000763   -0.080188   -0.102824
     25          6           0        3.924164    0.611391   -0.885345
     26          6           0        4.263130    1.914734   -0.509918
     27          1           0        3.955469    3.513759    0.905985
     28          1           0        2.313220    2.233534    2.265940
     29          1           0        1.696613   -0.103589    1.604327
     30          1           0        4.355460    0.133499   -1.756564
     31          1           0        4.980740    2.471396   -1.105913
     32          7           0        2.634045   -1.460681   -0.490324
     33          8           0        3.169662   -1.928360   -1.492835
     34          8           0        1.817937   -2.048893    0.215800
 ---------------------------------------------------------------------

 SCF Done:  E(RHF) =  -669.535888991     A.U. after   15 cycles
 E2 =    -0.2090888394D+01 EUMP2 =    -0.67162677738498D+03

 The electronic state is 1-A.
 Alpha  occ. eigenvalues --  -20.60915 -20.60907 -15.85943 -11.31283 -11.27848
 Alpha  occ. eigenvalues --  -11.27845 -11.27589 -11.26860 -11.26850 -11.21417
 Alpha  occ. eigenvalues --  -11.21131 -11.21028 -11.20965 -11.20937 -11.19955
 Alpha  occ. eigenvalues --   -1.59976  -1.39532  -1.19454  -1.08855  -1.08061
 Alpha  occ. eigenvalues --   -1.04852  -1.03077  -0.95698  -0.95486  -0.86496
 Alpha  occ. eigenvalues --   -0.86251  -0.82526  -0.79156  -0.77862  -0.77574
 Alpha  occ. eigenvalues --   -0.72166  -0.71293  -0.70561  -0.65110  -0.64855
 Alpha  occ. eigenvalues --   -0.64701  -0.62199  -0.60476  -0.58910  -0.57108
 Alpha  occ. eigenvalues --   -0.55355  -0.54770  -0.53184  -0.52943  -0.52160
 Alpha  occ. eigenvalues --   -0.51908  -0.49441  -0.48927  -0.48907  -0.47459
 Alpha  occ. eigenvalues --   -0.46228  -0.45406  -0.45361  -0.44822  -0.43338
 Alpha  occ. eigenvalues --   -0.37434  -0.36455
 Alpha virt. eigenvalues --    0.04917   0.11197   0.16384   0.21226   0.23147
 Alpha virt. eigenvalues --    0.24604   0.26836   0.27330   0.27828   0.28030
 Alpha virt. eigenvalues --    0.28834   0.30842   0.31743   0.32161   0.32543

 Mulliken charges:
               1
     1  C   -0.297617
     2  C   -0.299232
     3  C   -0.479778
     4  H    0.150495
     5  H    0.148769
     6  H    0.148980
     7  H    0.144021
     8  H    0.173737
     9  H    0.152092
    10  H    0.159813
    11  C   -0.297274
    12  C   -0.299254
    13  C   -0.475293
    14  H    0.149156
    15  H    0.146049
    16  H    0.152693
    17  H    0.151000
    18  H    0.153310
    19  H    0.155184
    20  H    0.159570
    21  C   -0.170663
    22  C   -0.218563
    23  C   -0.171374
    24  C    0.158043
    25  C   -0.170856
    26  C   -0.218559
    27  H    0.225970
    28  H    0.223827
    29  H    0.276187
    30  H    0.275859
    31  H    0.223799
    32  N    0.488992
    33  O   -0.458981
    34  O   -0.460102
 Sum of Mulliken charges =  -0.00000

 Dipole moment (field-independent basis, Debye):
    X=              1.5077    Y=              4.7989    Z=              1.3014  Tot=              5.1958
 Quadrupole moment (field-independent basis, Debye-Ang):
   XX=            -86.0200   YY=            -96.3326   ZZ=            -92.4334
   XY=             16.1618   XZ=              1.4459   YZ=             -0.7742

 Normal termination of Gaussian 16 at Wed May  5 23:34:06 2021.
