 Gaussian 16, Revision A.03,
 Gaussian 16:  EM64L-G16RevA.03 25-Dec-2016

 -------------
 #p 6-31g* mp2
 -------------

 ------------------------------------------------------
 Input file generated by CHIRIPA (05-May-2021 14:57:25)
 ------------------------------------------------------
 Symbolic Z-matrix:
 Charge =  0 Multiplicity = 1

                         Standard orientation:
 ---------------------------------------------------------------------
 Center     Atomic      Atomic             Coordinates (Angstroms)
 Number     Number       Type             X           Y           Z
 ---------------------------------------------------------------------
      1          6           0       -0.750104   -1.214256    0.464863
      2          6           0       -1.518778   -1.752210   -0.572569
      3          6           0       -2.809071   -1.274919   -0.821335
      4          6           0       -3.301508   -0.254261   -0.009514
      5          6           0       -2.560198    0.302185    1.031695
      6          6           0       -1.272346   -0.190580    1.262279
      7          1           0        0.251279   -1.591037    0.651048
      8          1           0       -1.115777   -2.547279   -1.193456
      9          1           0       -3.425805   -1.673323   -1.617784
     10          1           0       -2.989107    1.094024    1.633731
     11          1           0       -0.677653    0.229095    2.068665
     12          7           0       -4.666192    0.259216   -0.263246
     13          8           0       -5.077085    1.159030    0.466233
     14          8           0       -5.299097   -0.247856   -1.186797
     15          6           0        2.056560    2.641586   -0.184097
     16          6           0        1.731592    1.801165    0.885767
     17          6           0        2.290753    0.523278    0.980057
     18          6           0        3.175205    0.116272   -0.017630
     19          6           0        3.518731    0.930398   -1.095813
     20          6           0        2.947522    2.204291   -1.169734
     21          1           0        1.617512    3.632729   -0.249433
     22          1           0        1.039958    2.138121    1.652675
     23          1           0        2.056601   -0.147826    1.797500
     24          1           0        4.211336    0.566551   -1.845033
     25          1           0        3.201723    2.854827   -2.001738
     26          7           0        3.773540   -1.234456    0.071409
     27          8           0        4.550084   -1.569429   -0.820448
     28          8           0        3.454642   -1.932609    1.031370
 ---------------------------------------------------------------------

 SCF Done:  E(RHF) =  -868.336187828     A.U. after   16 cycles
 E2 =    -0.2603039068D+01 EUMP2 =    -0.87093922689630D+03

 The electronic state is 1-A.
 Alpha  occ. eigenvalues --  -20.61890 -20.61856 -20.60975 -20.60963 -15.86896
 Alpha  occ. eigenvalues --  -15.86029 -11.32176 -11.31379 -11.28812 -11.28639
 Alpha  occ. eigenvalues --  -11.28345 -11.28032 -11.27929 -11.27742 -11.27610
 Alpha  occ. eigenvalues --  -11.27606 -11.27073 -11.26864  -1.60936  -1.60049
 Alpha  occ. eigenvalues --   -1.40494  -1.39603  -1.20326  -1.19562  -1.09711
 Alpha  occ. eigenvalues --   -1.08949  -1.05739  -1.04979  -0.96578  -0.95775
 Alpha  occ. eigenvalues --   -0.87126  -0.86397  -0.83420  -0.82627  -0.78531
 Alpha  occ. eigenvalues --   -0.77680  -0.73109  -0.72279  -0.72246  -0.71467
 Alpha  occ. eigenvalues --   -0.71376  -0.70574  -0.65995  -0.65741  -0.65216
 Alpha  occ. eigenvalues --   -0.65067  -0.63095  -0.62275  -0.56167  -0.55461
 Alpha  occ. eigenvalues --   -0.54113  -0.53802  -0.53192  -0.53053  -0.49889
 Alpha  occ. eigenvalues --   -0.49851  -0.49005  -0.49000  -0.45900  -0.45014
 Alpha  occ. eigenvalues --   -0.38255  -0.37992  -0.36962  -0.36374
 Alpha virt. eigenvalues --    0.03987   0.04878   0.10181   0.11082   0.15573
 Alpha virt. eigenvalues --    0.16366   0.18695   0.22202   0.24977   0.26414
 Alpha virt. eigenvalues --    0.27677   0.29070   0.30145   0.31366   0.32834

 Mulliken charges:
               1
     1  C   -0.171714
     2  C   -0.220524
     3  C   -0.170162
     4  C    0.157829
     5  C   -0.173131
     6  C   -0.216660
     7  H    0.234955
     8  H    0.228034
     9  H    0.276511
    10  H    0.272975
    11  H    0.210502
    12  N    0.488107
    13  O   -0.461917
    14  O   -0.459401
    15  C   -0.169780
    16  C   -0.211301
    17  C   -0.179759
    18  C    0.159145
    19  C   -0.170308
    20  C   -0.217265
    21  H    0.230622
    22  H    0.220487
    23  H    0.268961
    24  H    0.278017
    25  H    0.227821
    26  N    0.487830
    27  O   -0.454174
    28  O   -0.465701
 Sum of Mulliken charges =  -0.00000

 Dipole moment (field-independent basis, Debye):
    X=              2.9149    Y=              3.0270    Z=              0.2732  Tot=              4.2112
 Quadrupole moment (field-independent basis, Debye-Ang):
   XX=           -149.5192   YY=           -100.9676   ZZ=            -99.0876
   XY=             21.0875   XZ=             -6.3313   YZ=              1.6001

 Normal termination of Gaussian 16 at Fri May  7 05:02:32 2021.
