 Gaussian 16, Revision A.03,
 Gaussian 16:  EM64L-G16RevA.03 25-Dec-2016

 -------------
 #p 6-31g* mp2
 -------------

 ------------------------------------------------------
 Input file generated by CHIRIPA (05-May-2021 14:57:24)
 ------------------------------------------------------
 Symbolic Z-matrix:
 Charge =  0 Multiplicity = 1

                         Standard orientation:
 ---------------------------------------------------------------------
 Center     Atomic      Atomic             Coordinates (Angstroms)
 Number     Number       Type             X           Y           Z
 ---------------------------------------------------------------------
      1          6           0        1.923152    1.802047   -0.261603
      2          6           0        3.279717    2.039692   -0.506099
      3          6           0        4.218753    1.015232   -0.353650
      4          6           0        3.764274   -0.240417    0.046456
      5          6           0        2.419509   -0.508419    0.297598
      6          6           0        1.498127    0.530991    0.138759
      7          1           0        1.200544    2.603680   -0.382511
      8          1           0        3.612666    3.025818   -0.817138
      9          1           0        5.274973    1.171651   -0.536273
     10          1           0        2.117836   -1.501902    0.606473
     11          1           0        0.445231    0.343544    0.329335
     12          7           0        4.749044   -1.332881    0.211229
     13          8           0        4.323128   -2.430275    0.564723
     14          8           0        5.928177   -1.071074   -0.016235
     15          6           0       -1.966160    1.962318    0.250184
     16          6           0       -1.971201    1.204645   -0.925582
     17          6           0       -2.873133    0.148522   -1.085809
     18          6           0       -3.760116   -0.123509   -0.045352
     19          6           0       -3.779620    0.613076    1.138013
     20          6           0       -2.868794    1.664641    1.276420
     21          1           0       -1.262063    2.780969    0.366177
     22          1           0       -1.271345    1.433554   -1.724234
     23          1           0       -2.898678   -0.454195   -1.985530
     24          1           0       -4.489293    0.360959    1.916615
     25          1           0       -2.867148    2.251367    2.190638
     26          7           0       -4.719659   -1.239164   -0.203427
     27          8           0       -5.490944   -1.458622    0.728021
     28          8           0       -4.682294   -1.873035   -1.255781
 ---------------------------------------------------------------------

 SCF Done:  E(RHF) =  -868.335665453     A.U. after   16 cycles
 E2 =    -0.2602446643D+01 EUMP2 =    -0.87093811209607D+03

 The electronic state is 1-A.
 Alpha  occ. eigenvalues --  -20.61509 -20.61504 -20.61139 -20.61132 -15.86570
 Alpha  occ. eigenvalues --  -15.86190 -11.32203 -11.31700 -11.28783 -11.28749
 Alpha  occ. eigenvalues --  -11.28678 -11.28256 -11.28206 -11.28172 -11.27913
 Alpha  occ. eigenvalues --  -11.27859 -11.27385 -11.27197  -1.60578  -1.60209
 Alpha  occ. eigenvalues --   -1.40123  -1.39758  -1.20426  -1.19879  -1.09814
 Alpha  occ. eigenvalues --   -1.09281  -1.05840  -1.05273  -0.96585  -0.96093
 Alpha  occ. eigenvalues --   -0.87264  -0.86669  -0.83376  -0.82904  -0.78354
 Alpha  occ. eigenvalues --   -0.77898  -0.72784  -0.72412  -0.71906  -0.71725
 Alpha  occ. eigenvalues --   -0.71533  -0.70964  -0.66091  -0.65883  -0.65520
 Alpha  occ. eigenvalues --   -0.65236  -0.63143  -0.62613  -0.56541  -0.55807
 Alpha  occ. eigenvalues --   -0.54321  -0.53925  -0.53610  -0.53195  -0.49563
 Alpha  occ. eigenvalues --   -0.49520  -0.49178  -0.49155  -0.45468  -0.45131
 Alpha  occ. eigenvalues --   -0.38443  -0.37967  -0.37433  -0.36831
 Alpha virt. eigenvalues --    0.04127   0.04585   0.09964   0.10877   0.15512
 Alpha virt. eigenvalues --    0.16025   0.18412   0.21998   0.24876   0.26479
 Alpha virt. eigenvalues --    0.27260   0.29417   0.29963   0.31203   0.32304

 Mulliken charges:
               1
     1  C   -0.179551
     2  C   -0.217248
     3  C   -0.171372
     4  C    0.160100
     5  C   -0.171942
     6  C   -0.225962
     7  H    0.213623
     8  H    0.223937
     9  H    0.277155
    10  H    0.278746
    11  H    0.235817
    12  N    0.487711
    13  O   -0.458012
    14  O   -0.459208
    15  C   -0.181444
    16  C   -0.226912
    17  C   -0.169980
    18  C    0.159478
    19  C   -0.170053
    20  C   -0.216664
    21  H    0.223382
    22  H    0.226739
    23  H    0.280251
    24  H    0.279772
    25  H    0.227923
    26  N    0.487858
    27  O   -0.457085
    28  O   -0.457061
 Sum of Mulliken charges =  -0.00000

 Dipole moment (field-independent basis, Debye):
    X=             -0.3332    Y=              7.5375    Z=              0.0256  Tot=              7.5449
 Quadrupole moment (field-independent basis, Debye-Ang):
   XX=           -152.0649   YY=           -106.8403   ZZ=           -101.1384
   XY=              2.2984   XZ=             -7.7718   YZ=              0.2265

 Normal termination of Gaussian 16 at Thu May  6 03:28:13 2021.
