 Gaussian 16, Revision A.03,
 Gaussian 16:  EM64L-G16RevA.03 25-Dec-2016

 -------------
 #p 6-31g* mp2
 -------------

 ------------------------------------------------------
 Input file generated by CHIRIPA (05-May-2021 14:55:21)
 ------------------------------------------------------
 Symbolic Z-matrix:
 Charge =  0 Multiplicity = 1

                         Standard orientation:
 ---------------------------------------------------------------------
 Center     Atomic      Atomic             Coordinates (Angstroms)
 Number     Number       Type             X           Y           Z
 ---------------------------------------------------------------------
      1          6           0        5.010407   -0.725249   -0.675237
      2          6           0        3.983403   -1.672409   -0.606895
      3          6           0        2.715306   -1.312352   -0.141237
      4          6           0        2.508247    0.009620    0.249669
      5          6           0        3.511122    0.976242    0.193330
      6          6           0        4.771410    0.593728   -0.275611
      7          1           0        5.992462   -1.013672   -1.038247
      8          1           0        4.166138   -2.697469   -0.916579
      9          1           0        1.902274   -2.025368   -0.077959
     10          1           0        3.298693    1.990430    0.509107
     11          1           0        5.567112    1.331428   -0.327599
     12          7           0        1.169903    0.402683    0.744378
     13          8           0        1.013038    1.573794    1.082800
     14          8           0        0.303116   -0.467788    0.784343
     15          6           0       -3.714164    0.800904   -0.248927
     16          6           0       -2.557891    1.774878   -0.477826
     17          6           0       -3.016456    3.232023   -0.542931
     18          1           0       -4.450245    0.919443   -1.055821
     19          1           0       -4.228647    1.066437    0.684987
     20          1           0       -2.044887    1.506739   -1.410319
     21          1           0       -1.824384    1.653872    0.329604
     22          1           0       -3.509752    3.522706    0.390215
     23          1           0       -3.731508    3.374736   -1.359593
     24          1           0       -2.173968    3.911077   -0.707124
     25          6           0       -3.271621   -0.659691   -0.181498
     26          6           0       -4.427893   -1.633665    0.047400
     27          6           0       -3.969328   -3.090811    0.112506
     28          1           0       -2.757136   -0.925223   -1.115412
     29          1           0       -2.535539   -0.778229    0.625396
     30          1           0       -5.161400   -1.512659   -0.760028
     31          1           0       -4.940897   -1.365525    0.979893
     32          1           0       -3.254276   -3.233522    0.929168
     33          1           0       -3.476032   -3.381492   -0.820641
     34          1           0       -4.811817   -3.769864    0.276699
 ---------------------------------------------------------------------

 SCF Done:  E(RHF) =  -669.536765429     A.U. after   15 cycles
 E2 =    -0.2092564228D+01 EUMP2 =    -0.67162932965731D+03

 The electronic state is 1-A.
 Alpha  occ. eigenvalues --  -20.61141 -20.61136 -15.86122 -11.31390 -11.27938
 Alpha  occ. eigenvalues --  -11.27933 -11.27665 -11.26930 -11.26920 -11.20450
 Alpha  occ. eigenvalues --  -11.20158 -11.19919 -11.19795 -11.19731 -11.19705
 Alpha  occ. eigenvalues --   -1.60166  -1.39725  -1.19546  -1.08964  -1.06966
 Alpha  occ. eigenvalues --   -1.04931  -1.02186  -0.95815  -0.94671  -0.86334
 Alpha  occ. eigenvalues --   -0.85704  -0.82655  -0.78242  -0.77711  -0.76724
 Alpha  occ. eigenvalues --   -0.72339  -0.71458  -0.70654  -0.65202  -0.64935
 Alpha  occ. eigenvalues --   -0.63603  -0.62277  -0.59595  -0.58054  -0.56258
 Alpha  occ. eigenvalues --   -0.55440  -0.53977  -0.53267  -0.53021  -0.51425
 Alpha  occ. eigenvalues --   -0.51099  -0.49214  -0.49116  -0.48631  -0.46555
 Alpha  occ. eigenvalues --   -0.45277  -0.45103  -0.44305  -0.43979  -0.42398
 Alpha  occ. eigenvalues --   -0.37518  -0.36528
 Alpha virt. eigenvalues --    0.04798   0.11129   0.16308   0.21260   0.24274
 Alpha virt. eigenvalues --    0.25552   0.27195   0.28019   0.28138   0.29011
 Alpha virt. eigenvalues --    0.29496   0.30904   0.32378   0.32596   0.33051

 Mulliken charges:
               1
     1  C   -0.170334
     2  C   -0.218644
     3  C   -0.170762
     4  C    0.159301
     5  C   -0.170274
     6  C   -0.218664
     7  H    0.226359
     8  H    0.224244
     9  H    0.276304
    10  H    0.276051
    11  H    0.224153
    12  N    0.491728
    13  O   -0.458962
    14  O   -0.461026
    15  C   -0.297164
    16  C   -0.308498
    17  C   -0.474131
    18  H    0.141389
    19  H    0.145881
    20  H    0.142269
    21  H    0.182232
    22  H    0.152480
    23  H    0.147739
    24  H    0.157930
    25  C   -0.303827
    26  C   -0.298508
    27  C   -0.474262
    28  H    0.142759
    29  H    0.175169
    30  H    0.146728
    31  H    0.149407
    32  H    0.156447
    33  H    0.151207
    34  H    0.155282
 Sum of Mulliken charges =  -0.00000

 Dipole moment (field-independent basis, Debye):
    X=              5.2364    Y=             -1.4095    Z=             -1.5299  Tot=              5.6344
 Quadrupole moment (field-independent basis, Debye-Ang):
   XX=            -72.8115   YY=            -92.5014   ZZ=            -95.5758
   XY=             -1.5340   XZ=             -3.6215   YZ=              0.8128

 Normal termination of Gaussian 16 at Wed May  5 18:58:53 2021.
