 Gaussian 16, Revision A.03,
 Gaussian 16:  EM64L-G16RevA.03 25-Dec-2016

 -------------
 #p 6-31g* mp2
 -------------

 ------------------------------------------------------
 Input file generated by CHIRIPA (05-May-2021 14:53:15)
 ------------------------------------------------------
 Symbolic Z-matrix:
 Charge =  0 Multiplicity = 1

                         Standard orientation:
 ---------------------------------------------------------------------
 Center     Atomic      Atomic             Coordinates (Angstroms)
 Number     Number       Type             X           Y           Z
 ---------------------------------------------------------------------
      1          6           0       -3.896393   -0.249443   -0.496934
      2          6           0       -4.903369   -0.907218    0.447162
      3          6           0       -5.463847   -2.217703   -0.106270
      4          1           0       -4.379428   -0.063110   -1.465903
      5          1           0       -3.071890   -0.950133   -0.688307
      6          1           0       -5.725034   -0.204978    0.637796
      7          1           0       -4.417936   -1.091832    1.414058
      8          1           0       -4.658237   -2.938476   -0.279707
      9          1           0       -5.972762   -2.046582   -1.060380
     10          1           0       -6.181618   -2.670883    0.584594
     11          6           0       -3.327192    1.061592    0.042441
     12          6           0       -2.320216    1.719367   -0.901655
     13          6           0       -1.759737    3.029851   -0.348223
     14          1           0       -4.151694    1.762282    0.233814
     15          1           0       -2.844156    0.875259    1.011410
     16          1           0       -2.805649    1.903981   -1.868551
     17          1           0       -1.498551    1.017127   -1.092289
     18          1           0       -1.250822    2.858731    0.605886
     19          1           0       -2.565347    3.750624   -0.174787
     20          1           0       -1.041967    3.483031   -1.039087
     21          6           0        5.119193   -0.318658   -0.865299
     22          6           0        4.939815    0.171422    0.432455
     23          6           0        3.671354    0.177056    1.020268
     24          6           0        2.599601   -0.317109    0.278354
     25          6           0        2.746212   -0.812024   -1.016581
     26          6           0        4.023751   -0.807955   -1.584407
     27          1           0        6.108089   -0.319268   -1.314164
     28          1           0        5.788732    0.552031    0.993277
     29          1           0        3.504154    0.550604    2.023225
     30          1           0        1.880807   -1.184937   -1.550834
     31          1           0        4.160088   -1.189171   -2.592440
     32          7           0        1.251933   -0.316280    0.890066
     33          8           0        0.323896   -0.757127    0.215500
     34          8           0        1.149186    0.125201    2.032508
 ---------------------------------------------------------------------

 SCF Done:  E(RHF) =  -669.536660191     A.U. after   15 cycles
 E2 =    -0.2091467886D+01 EUMP2 =    -0.67162812807752D+03

 The electronic state is 1-A.
 Alpha  occ. eigenvalues --  -20.61077 -20.61072 -15.86093 -11.31358 -11.27915
 Alpha  occ. eigenvalues --  -11.27911 -11.27643 -11.26910 -11.26901 -11.20529
 Alpha  occ. eigenvalues --  -11.20247 -11.20199 -11.20111 -11.20003 -11.19984
 Alpha  occ. eigenvalues --   -1.60126  -1.39685  -1.19521  -1.08936  -1.07170
 Alpha  occ. eigenvalues --   -1.04909  -1.02393  -0.95787  -0.94866  -0.86313
 Alpha  occ. eigenvalues --   -0.85890  -0.82625  -0.78461  -0.77686  -0.76976
 Alpha  occ. eigenvalues --   -0.72321  -0.71433  -0.70631  -0.65180  -0.64914
 Alpha  occ. eigenvalues --   -0.63757  -0.62258  -0.59771  -0.58253  -0.56488
 Alpha  occ. eigenvalues --   -0.55417  -0.54136  -0.53242  -0.53001  -0.51618
 Alpha  occ. eigenvalues --   -0.51306  -0.49092  -0.49074  -0.48783  -0.46802
 Alpha  occ. eigenvalues --   -0.45595  -0.45039  -0.44521  -0.44282  -0.42620
 Alpha  occ. eigenvalues --   -0.37495  -0.36507
 Alpha virt. eigenvalues --    0.04806   0.11148   0.16281   0.21254   0.24123
 Alpha virt. eigenvalues --    0.25358   0.27182   0.27662   0.28284   0.28834
 Alpha virt. eigenvalues --    0.29052   0.30847   0.32205   0.32552   0.32860

 Mulliken charges:
               1
     1  C   -0.300232
     2  C   -0.299401
     3  C   -0.475186
     4  H    0.142642
     5  H    0.159944
     6  H    0.147985
     7  H    0.155583
     8  H    0.155565
     9  H    0.151886
    10  H    0.157009
    11  C   -0.296794
    12  C   -0.304793
    13  C   -0.477700
    14  H    0.142068
    15  H    0.161542
    16  H    0.143065
    17  H    0.166985
    18  H    0.161530
    19  H    0.150975
    20  H    0.152274
    21  C   -0.170399
    22  C   -0.218566
    23  C   -0.170540
    24  C    0.158242
    25  C   -0.170590
    26  C   -0.218534
    27  H    0.226277
    28  H    0.224080
    29  H    0.275968
    30  H    0.275706
    31  H    0.224124
    32  N    0.489561
    33  O   -0.461427
    34  O   -0.458848
 Sum of Mulliken charges =  -0.00000

 Dipole moment (field-independent basis, Debye):
    X=              5.1141    Y=             -0.1514    Z=             -2.0184  Tot=              5.5001
 Quadrupole moment (field-independent basis, Debye-Ang):
   XX=            -70.6930   YY=            -96.0978   ZZ=            -92.6499
   XY=             -1.2569   XZ=             -2.7938   YZ=              2.4741

 Normal termination of Gaussian 16 at Thu May  6 12:08:54 2021.
