 Gaussian 16, Revision A.03,
 Gaussian 16:  EM64L-G16RevA.03 25-Dec-2016

 -------------
 #p 6-31g* mp2
 -------------

 ------------------------------------------------------
 Input file generated by CHIRIPA (05-May-2021 14:53:15)
 ------------------------------------------------------
 Symbolic Z-matrix:
 Charge =  0 Multiplicity = 1

                         Standard orientation:
 ---------------------------------------------------------------------
 Center     Atomic      Atomic             Coordinates (Angstroms)
 Number     Number       Type             X           Y           Z
 ---------------------------------------------------------------------
      1          6           0       -3.075846   -0.195837   -0.629387
      2          6           0       -2.723575   -1.597536   -0.130259
      3          6           0       -3.303581   -2.702664   -1.013480
      4          1           0       -4.168733   -0.094103   -0.676204
      5          1           0       -2.706510   -0.076670   -1.657387
      6          1           0       -3.092250   -1.713541    0.896988
      7          1           0       -1.631401   -1.695880   -0.084442
      8          1           0       -2.926388   -2.615194   -2.037529
      9          1           0       -4.395538   -2.632955   -1.050522
     10          1           0       -3.039597   -3.696398   -0.638425
     11          6           0       -2.503121    0.919662    0.243183
     12          6           0       -2.855392    2.321361   -0.255945
     13          6           0       -2.275386    3.426489    0.627276
     14          1           0       -2.872457    0.800495    1.271183
     15          1           0       -1.410233    0.817928    0.290000
     16          1           0       -3.947566    2.419705   -0.301762
     17          1           0       -2.486716    2.437366   -1.283192
     18          1           0       -1.183429    3.356780    0.664318
     19          1           0       -2.652579    3.339019    1.651325
     20          1           0       -2.539370    4.420223    0.252221
     21          6           0        1.029491   -1.488691    2.045483
     22          6           0        1.688957   -0.278402    2.283862
     23          6           0        2.329414    0.398474    1.241651
     24          6           0        2.290442   -0.166157   -0.032304
     25          6           0        1.641729   -1.370308   -0.301533
     26          6           0        1.008020   -2.029827    0.755819
     27          1           0        0.534590   -2.007762    2.860978
     28          1           0        1.707257    0.144210    3.284418
     29          1           0        2.847300    1.336932    1.398204
     30          1           0        1.640618   -1.766752   -1.309625
     31          1           0        0.496640   -2.969598    0.567757
     32          7           0        2.964893    0.541233   -1.143661
     33          8           0        2.916094    0.022825   -2.256993
     34          8           0        3.529556    1.600699   -0.880366
 ---------------------------------------------------------------------

 SCF Done:  E(RHF) =  -669.535101629     A.U. after   15 cycles
 E2 =    -0.2093346432D+01 EUMP2 =    -0.67162844806115D+03

 The electronic state is 1-A.
 Alpha  occ. eigenvalues --  -20.60855 -20.60850 -15.85910 -11.31303 -11.27863
 Alpha  occ. eigenvalues --  -11.27860 -11.27587 -11.26876 -11.26862 -11.21939
 Alpha  occ. eigenvalues --  -11.21673 -11.21614 -11.21522 -11.21512 -11.21143
 Alpha  occ. eigenvalues --   -1.59931  -1.39483  -1.19477  -1.08864  -1.08641
 Alpha  occ. eigenvalues --   -1.04886  -1.03770  -0.96217  -0.95688  -0.87234
 Alpha  occ. eigenvalues --   -0.86272  -0.82524  -0.79851  -0.78457  -0.77564
 Alpha  occ. eigenvalues --   -0.72125  -0.71256  -0.70557  -0.65315  -0.65119
 Alpha  occ. eigenvalues --   -0.64860  -0.62239  -0.61160  -0.59606  -0.57831
 Alpha  occ. eigenvalues --   -0.55501  -0.55354  -0.53288  -0.52966  -0.52890
 Alpha  occ. eigenvalues --   -0.52645  -0.50156  -0.48888  -0.48879  -0.48165
 Alpha  occ. eigenvalues --   -0.46884  -0.45981  -0.45876  -0.44882  -0.44010
 Alpha  occ. eigenvalues --   -0.37412  -0.36407
 Alpha virt. eigenvalues --    0.04954   0.11118   0.16373   0.20890   0.22776
 Alpha virt. eigenvalues --    0.23959   0.26312   0.26772   0.27346   0.28196
 Alpha virt. eigenvalues --    0.28302   0.30533   0.31209   0.31672   0.31989

 Mulliken charges:
               1
     1  C   -0.297594
     2  C   -0.307790
     3  C   -0.475924
     4  H    0.149970
     5  H    0.152141
     6  H    0.147822
     7  H    0.154982
     8  H    0.157008
     9  H    0.157805
    10  H    0.154873
    11  C   -0.300342
    12  C   -0.300208
    13  C   -0.475741
    14  H    0.145897
    15  H    0.153285
    16  H    0.151549
    17  H    0.155279
    18  H    0.155992
    19  H    0.152538
    20  H    0.162032
    21  C   -0.169475
    22  C   -0.218007
    23  C   -0.171546
    24  C    0.158542
    25  C   -0.172152
    26  C   -0.218157
    27  H    0.226781
    28  H    0.224302
    29  H    0.276118
    30  H    0.276201
    31  H    0.226029
    32  N    0.488015
    33  O   -0.460170
    34  O   -0.460053
 Sum of Mulliken charges =  -0.00000

 Dipole moment (field-independent basis, Debye):
    X=             -2.2895    Y=             -2.4384    Z=              3.9161  Tot=              5.1500
 Quadrupole moment (field-independent basis, Debye-Ang):
   XX=           -105.5984   YY=            -92.5731   ZZ=            -93.2486
   XY=             -4.6803   XZ=              9.6814   YZ=              1.4027

 Normal termination of Gaussian 16 at Wed May  5 18:40:31 2021.
