 Gaussian 16, Revision A.03,
 Gaussian 16:  EM64L-G16RevA.03 25-Dec-2016

 -------------
 #p 6-31g* mp2
 -------------

 ------------------------------------------------------
 Input file generated by CHIRIPA (05-May-2021 14:51:12)
 ------------------------------------------------------
 Symbolic Z-matrix:
 Charge =  0 Multiplicity = 1

                         Standard orientation:
 ---------------------------------------------------------------------
 Center     Atomic      Atomic             Coordinates (Angstroms)
 Number     Number       Type             X           Y           Z
 ---------------------------------------------------------------------
      1          6           0        3.117486    0.006728   -0.063964
      2          6           0        4.227838   -0.145212   -1.104165
      3          6           0        4.858142   -1.538215   -1.096846
      4          1           0        3.526122   -0.207155    0.933139
      5          1           0        2.342055   -0.748603   -0.252585
      6          1           0        5.000278    0.611077   -0.914479
      7          1           0        3.816556    0.069245   -2.098887
      8          1           0        4.104178   -2.303321   -1.308393
      9          1           0        5.294626   -1.758410   -0.117256
     10          1           0        5.649395   -1.624792   -1.848034
     11          6           0        2.477631    1.393916   -0.059078
     12          6           0        1.367279    1.545855    0.981123
     13          6           0        0.736975    2.938858    0.973804
     14          1           0        3.253062    2.149246    0.129543
     15          1           0        2.068995    1.607799   -1.056181
     16          1           0        1.778561    1.331399    1.975845
     17          1           0        0.594839    0.789567    0.791437
     18          1           0        0.300491    3.159054   -0.005786
     19          1           0        1.490939    3.703964    1.185351
     20          1           0       -0.054278    3.025435    1.724992
     21          6           0       -3.537365   -0.673619   -0.126645
     22          6           0       -3.931644    0.611383   -0.855548
     23          6           0       -5.414726    0.649971   -1.225372
     24          1           0       -3.781163   -1.536927   -0.760842
     25          1           0       -4.145740   -0.772319    0.783042
     26          1           0       -3.321737    0.708335   -1.762868
     27          1           0       -3.686700    1.471741   -0.219621
     28          1           0       -6.037558    0.578193   -0.327858
     29          1           0       -5.670521   -0.189551   -1.879874
     30          1           0       -5.674787    1.577153   -1.745528
     31          6           0       -2.057753   -0.727025    0.249687
     32          6           0       -1.663474   -2.012027    0.978590
     33          6           0       -0.180390   -2.050614    1.348413
     34          1           0       -1.449377   -0.628325   -0.660001
     35          1           0       -1.813953    0.136284    0.883884
     36          1           0       -1.908416   -2.872385    0.342663
     37          1           0       -2.273380   -2.108978    1.885910
     38          1           0        0.075405   -1.211092    2.002916
     39          1           0        0.442441   -1.978836    0.450900
     40          1           0        0.079669   -2.977795    1.868569
 ---------------------------------------------------------------------

 SCF Done:  E(RHF) =  -470.731520755     A.U. after   11 cycles
 E2 =    -0.1585086963D+01 EUMP2 =    -0.47231660771823D+03

 The electronic state is 1-A.
 Alpha  occ. eigenvalues --  -11.21635 -11.21634 -11.21551 -11.21462 -11.21415
 Alpha  occ. eigenvalues --  -11.21399 -11.21314 -11.21255 -11.21095 -11.21039
 Alpha  occ. eigenvalues --  -11.21027 -11.21009  -1.08499  -1.08340  -1.03583
 Alpha  occ. eigenvalues --   -1.03446  -0.96023  -0.95912  -0.87037  -0.86934
 Alpha  occ. eigenvalues --   -0.79738  -0.79487  -0.78442  -0.78003  -0.65118
 Alpha  occ. eigenvalues --   -0.65005  -0.61037  -0.60824  -0.59450  -0.59218
 Alpha  occ. eigenvalues --   -0.57678  -0.57502  -0.55362  -0.55168  -0.52700
 Alpha  occ. eigenvalues --   -0.52670  -0.52417  -0.52341  -0.50042  -0.49799
 Alpha  occ. eigenvalues --   -0.48237  -0.47781  -0.46787  -0.46531  -0.46102
 Alpha  occ. eigenvalues --   -0.45738  -0.45652  -0.44943  -0.43820  -0.43704
 Alpha virt. eigenvalues --    0.21417   0.22946   0.23681   0.24151   0.25743
 Alpha virt. eigenvalues --    0.26402   0.26587   0.27638   0.28938   0.29411
 Alpha virt. eigenvalues --    0.30564   0.30859   0.31821   0.32044   0.32298

 Mulliken charges:
               1
     1  C   -0.303820
     2  C   -0.299119
     3  C   -0.475457
     4  H    0.149585
     5  H    0.155243
     6  H    0.151803
     7  H    0.151297
     8  H    0.154591
     9  H    0.155330
    10  H    0.160027
    11  C   -0.297275
    12  C   -0.311396
    13  C   -0.475099
    14  H    0.148848
    15  H    0.148616
    16  H    0.150036
    17  H    0.167533
    18  H    0.155183
    19  H    0.154813
    20  H    0.158527
    21  C   -0.297665
    22  C   -0.299780
    23  C   -0.475754
    24  H    0.149774
    25  H    0.149781
    26  H    0.151639
    27  H    0.152415
    28  H    0.155285
    29  H    0.155188
    30  H    0.160431
    31  C   -0.302578
    32  C   -0.298872
    33  C   -0.483225
    34  H    0.148550
    35  H    0.152963
    36  H    0.151741
    37  H    0.151943
    38  H    0.160147
    39  H    0.158217
    40  H    0.160533
 Sum of Mulliken charges =  -0.00000

 Dipole moment (field-independent basis, Debye):
    X=             -0.0460    Y=             -0.0368    Z=              0.0180  Tot=              0.0616
 Quadrupole moment (field-independent basis, Debye-Ang):
   XX=            -85.7820   YY=            -85.6081   ZZ=            -83.6345
   XY=              0.7612   XZ=              0.0213   YZ=              0.5123

 Normal termination of Gaussian 16 at Wed May  5 23:08:23 2021.
