 Gaussian 16, Revision A.03,
 Gaussian 16:  EM64L-G16RevA.03 25-Dec-2016

 -------------
 #p 6-31g* mp2
 -------------

 ------------------------------------------------------
 Input file generated by CHIRIPA (05-May-2021 14:55:21)
 ------------------------------------------------------
 Symbolic Z-matrix:
 Charge =  0 Multiplicity = 1

                         Standard orientation:
 ---------------------------------------------------------------------
 Center     Atomic      Atomic             Coordinates (Angstroms)
 Number     Number       Type             X           Y           Z
 ---------------------------------------------------------------------
      1          6           0        0.784924    1.116864    1.544776
      2          6           0        1.178781   -0.184499    1.873185
      3          6           0        2.187075   -0.825653    1.147366
      4          6           0        2.782784   -0.132821    0.094558
      5          6           0        2.412415    1.164304   -0.256988
      6          6           0        1.401911    1.785932    0.482610
      7          1           0        0.000799    1.607344    2.113962
      8          1           0        0.701379   -0.706531    2.697573
      9          1           0        2.511434   -1.832644    1.380129
     10          1           0        2.906839    1.659136   -1.084094
     11          1           0        1.098075    2.796638    0.225312
     12          7           0        3.851390   -0.801247   -0.681128
     13          8           0        4.360569   -0.169286   -1.604165
     14          8           0        4.159550   -1.944463   -0.351385
     15          6           0       -3.654391   -0.590427   -0.598850
     16          6           0       -3.716066   -1.787803    0.350083
     17          6           0       -4.354545   -3.019365   -0.292875
     18          1           0       -4.670882   -0.344697   -0.935463
     19          1           0       -3.087247   -0.871980   -1.496888
     20          1           0       -4.281744   -1.503649    1.246677
     21          1           0       -2.699330   -2.030590    0.684625
     22          1           0       -3.787565   -3.330377   -1.176282
     23          1           0       -5.378970   -2.800443   -0.611036
     24          1           0       -4.388475   -3.863469    0.402968
     25          6           0       -3.018671    0.648427    0.029505
     26          6           0       -2.956995    1.845802   -0.919428
     27          6           0       -2.318517    3.077366   -0.276471
     28          1           0       -3.585814    0.929979    0.927542
     29          1           0       -2.002181    0.402698    0.366117
     30          1           0       -3.973731    2.088590   -1.253971
     31          1           0       -2.391317    1.561649   -1.816022
     32          1           0       -1.294093    2.858443    0.041691
     33          1           0       -2.885497    3.388378    0.606935
     34          1           0       -2.284586    3.921469   -0.972314
 ---------------------------------------------------------------------

 SCF Done:  E(RHF) =  -669.535012786     A.U. after   15 cycles
 E2 =    -0.2093160432D+01 EUMP2 =    -0.67162817321784D+03

 The electronic state is 1-A.
 Alpha  occ. eigenvalues --  -20.60824 -20.60819 -15.85878 -11.31268 -11.27843
 Alpha  occ. eigenvalues --  -11.27836 -11.27570 -11.26857 -11.26831 -11.22266
 Alpha  occ. eigenvalues --  -11.22063 -11.21996 -11.21975 -11.21836 -11.21410
 Alpha  occ. eigenvalues --   -1.59899  -1.39452  -1.19451  -1.09005  -1.08829
 Alpha  occ. eigenvalues --   -1.04854  -1.04118  -0.96584  -0.95668  -0.87611
 Alpha  occ. eigenvalues --   -0.86249  -0.82493  -0.80196  -0.78807  -0.77539
 Alpha  occ. eigenvalues --   -0.72097  -0.71223  -0.70551  -0.65648  -0.65101
 Alpha  occ. eigenvalues --   -0.64861  -0.62243  -0.61472  -0.59953  -0.58184
 Alpha  occ. eigenvalues --   -0.55887  -0.55334  -0.53284  -0.53196  -0.53084
 Alpha  occ. eigenvalues --   -0.52866  -0.50518  -0.48855  -0.48849  -0.48502
 Alpha  occ. eigenvalues --   -0.47206  -0.46350  -0.46245  -0.44852  -0.44353
 Alpha  occ. eigenvalues --   -0.37361  -0.36447
 Alpha virt. eigenvalues --    0.04965   0.11038   0.16393   0.20457   0.22621
 Alpha virt. eigenvalues --    0.23886   0.25970   0.26258   0.26731   0.27850
 Alpha virt. eigenvalues --    0.29160   0.30142   0.31045   0.31396   0.31614

 Mulliken charges:
               1
     1  C   -0.169263
     2  C   -0.220465
     3  C   -0.170723
     4  C    0.158373
     5  C   -0.171791
     6  C   -0.220632
     7  H    0.229186
     8  H    0.224554
     9  H    0.276009
    10  H    0.276137
    11  H    0.226280
    12  N    0.488062
    13  O   -0.460120
    14  O   -0.460190
    15  C   -0.298295
    16  C   -0.299879
    17  C   -0.476089
    18  H    0.150855
    19  H    0.152661
    20  H    0.150596
    21  H    0.150172
    22  H    0.157495
    23  H    0.156063
    24  H    0.160791
    25  C   -0.305084
    26  C   -0.298147
    27  C   -0.481918
    28  H    0.146618
    29  H    0.152167
    30  H    0.154762
    31  H    0.155390
    32  H    0.147820
    33  H    0.155264
    34  H    0.163343
 Sum of Mulliken charges =  -0.00000

 Dipole moment (field-independent basis, Debye):
    X=             -3.7834    Y=              2.2942    Z=              2.6726  Tot=              5.1691
 Quadrupole moment (field-independent basis, Debye-Ang):
   XX=           -115.5945   YY=            -93.1886   ZZ=            -92.9702
   XY=              6.9620   XZ=              6.8157   YZ=             -3.0893

 Normal termination of Gaussian 16 at Wed May  5 22:12:55 2021.
