 Gaussian 16, Revision A.03,
 Gaussian 16:  EM64L-G16RevA.03 25-Dec-2016

 -------------
 #p 6-31g* mp2
 -------------

 ------------------------------------------------------
 Input file generated by CHIRIPA (05-May-2021 14:51:11)
 ------------------------------------------------------
 Symbolic Z-matrix:
 Charge =  0 Multiplicity = 1

                         Standard orientation:
 ---------------------------------------------------------------------
 Center     Atomic      Atomic             Coordinates (Angstroms)
 Number     Number       Type             X           Y           Z
 ---------------------------------------------------------------------
      1          6           0        3.927007    0.947793   -0.329198
      2          6           0        2.801808    1.762318    0.309913
      3          6           0        2.729607    3.192588   -0.225726
      4          1           0        4.884890    1.455864   -0.152370
      5          1           0        3.781295    0.925609   -1.418083
      6          1           0        2.948831    1.781797    1.397396
      7          1           0        1.846514    1.252149    0.131707
      8          1           0        2.559181    3.190801   -1.307184
      9          1           0        3.667762    3.723459   -0.034304
     10          1           0        1.918367    3.756959    0.244632
     11          6           0        4.011974   -0.484208    0.196046
     12          6           0        5.137172   -1.298733   -0.443064
     13          6           0        5.209374   -2.729003    0.092574
     14          1           0        4.157685   -0.462024    1.284932
     15          1           0        3.054090   -0.992279    0.019218
     16          1           0        6.092467   -0.788564   -0.264859
     17          1           0        4.990149   -1.318212   -1.530548
     18          1           0        4.271219   -3.259874   -0.098848
     19          1           0        5.379799   -2.727216    1.174033
     20          1           0        6.020613   -3.293374   -0.377783
     21          6           0       -4.585094   -0.414744   -0.346936
     22          6           0       -5.902842   -0.016326    0.318488
     23          6           0       -7.125301   -0.388919   -0.520894
     24          1           0       -4.517457    0.069346   -1.330821
     25          1           0       -4.588221   -1.498007   -0.531123
     26          1           0       -5.896659    1.065650    0.502621
     27          1           0       -5.967262   -0.501268    1.300983
     28          1           0       -7.159159   -1.469476   -0.693667
     29          1           0       -7.088154    0.106345   -1.496565
     30          1           0       -8.056469   -0.095058   -0.026494
     31          6           0       -3.353886   -0.048842    0.480088
     32          6           0       -2.036139   -0.447259   -0.185337
     33          6           0       -0.813680   -0.074666    0.654046
     34          1           0       -3.350760    1.034423    0.664273
     35          1           0       -3.421524   -0.532932    1.463972
     36          1           0       -1.971718    0.037682   -1.167832
     37          1           0       -2.042322   -1.529235   -0.369469
     38          1           0       -0.850826   -0.569930    1.629717
     39          1           0       -0.779821    1.005891    0.826818
     40          1           0        0.117489   -0.368527    0.159645
 ---------------------------------------------------------------------

 SCF Done:  E(RHF) =  -470.732894396     A.U. after   11 cycles
 E2 =    -0.1582850206D+01 EUMP2 =    -0.47231574460216D+03

 The electronic state is 1-A.
 Alpha  occ. eigenvalues --  -11.21642 -11.21619 -11.21580 -11.21440 -11.21433
 Alpha  occ. eigenvalues --  -11.21373 -11.21365 -11.21295 -11.21113 -11.21085
 Alpha  occ. eigenvalues --  -11.21054 -11.21007  -1.08461  -1.08377  -1.03571
 Alpha  occ. eigenvalues --   -1.03466  -0.96020  -0.95931  -0.87052  -0.86936
 Alpha  occ. eigenvalues --   -0.79686  -0.79487  -0.78281  -0.78175  -0.65101
 Alpha  occ. eigenvalues --   -0.65015  -0.61015  -0.60846  -0.59443  -0.59242
 Alpha  occ. eigenvalues --   -0.57628  -0.57541  -0.55324  -0.55199  -0.52802
 Alpha  occ. eigenvalues --   -0.52590  -0.52438  -0.52346  -0.50001  -0.49836
 Alpha  occ. eigenvalues --   -0.47949  -0.47846  -0.46725  -0.46496  -0.45822
 Alpha  occ. eigenvalues --   -0.45766  -0.45701  -0.45639  -0.43769  -0.43685
 Alpha virt. eigenvalues --    0.21556   0.23021   0.23885   0.24536   0.25751
 Alpha virt. eigenvalues --    0.26572   0.27086   0.27232   0.27818   0.28991
 Alpha virt. eigenvalues --    0.31062   0.31322   0.31686   0.31821   0.32292

 Mulliken charges:
               1
     1  C   -0.297875
     2  C   -0.308650
     3  C   -0.475211
     4  H    0.149302
     5  H    0.148759
     6  H    0.151282
     7  H    0.163300
     8  H    0.154512
     9  H    0.154794
    10  H    0.159448
    11  C   -0.299919
    12  C   -0.299585
    13  C   -0.475659
    14  H    0.149820
    15  H    0.150174
    16  H    0.152082
    17  H    0.151778
    18  H    0.155041
    19  H    0.155209
    20  H    0.160160
    21  C   -0.298299
    22  C   -0.299667
    23  C   -0.475721
    24  H    0.149679
    25  H    0.149562
    26  H    0.151986
    27  H    0.151994
    28  H    0.155200
    29  H    0.155202
    30  H    0.160327
    31  C   -0.298727
    32  C   -0.299597
    33  C   -0.480318
    34  H    0.149726
    35  H    0.149812
    36  H    0.151944
    37  H    0.151907
    38  H    0.155987
    39  H    0.156726
    40  H    0.163513
 Sum of Mulliken charges =  -0.00000

 Dipole moment (field-independent basis, Debye):
    X=             -0.0475    Y=             -0.0171    Z=              0.0174  Tot=              0.0534
 Quadrupole moment (field-independent basis, Debye-Ang):
   XX=            -85.5084   YY=            -85.1303   ZZ=            -84.3483
   XY=              0.1543   XZ=             -0.0526   YZ=              0.0033

 Normal termination of Gaussian 16 at Thu May  6 05:27:43 2021.
