 Gaussian 16, Revision A.03,
 Gaussian 16:  EM64L-G16RevA.03 25-Dec-2016

 -------------
 #p 6-31g* mp2
 -------------

 ------------------------------------------------------
 Input file generated by CHIRIPA (05-May-2021 14:55:24)
 ------------------------------------------------------
 Symbolic Z-matrix:
 Charge =  0 Multiplicity = 1

                         Standard orientation:
 ---------------------------------------------------------------------
 Center     Atomic      Atomic             Coordinates (Angstroms)
 Number     Number       Type             X           Y           Z
 ---------------------------------------------------------------------
      1          6           0       -0.802831   -0.919407    1.373568
      2          6           0       -0.685976   -0.507221    0.042040
      3          6           0       -1.799745   -0.026049   -0.652612
      4          6           0       -3.020560    0.029579    0.018064
      5          6           0       -3.168978   -0.373681    1.344202
      6          6           0       -2.041774   -0.851442    2.019261
      7          1           0        0.067590   -1.291868    1.905580
      8          1           0        0.274949   -0.558885   -0.461944
      9          1           0       -1.737509    0.299592   -1.683875
     10          1           0       -4.140105   -0.310399    1.819938
     11          1           0       -2.135484   -1.170866    3.053298
     12          7           0       -4.206768    0.537169   -0.706962
     13          8           0       -5.271138    0.576231   -0.093587
     14          8           0       -4.049687    0.886343   -1.874883
     15          6           0        3.614223   -0.658908    0.054704
     16          6           0        3.271343   -1.647505   -1.060237
     17          6           0        3.271653   -3.100117   -0.583044
     18          1           0        4.600441   -0.910233    0.468415
     19          1           0        2.892119   -0.776666    0.874517
     20          1           0        3.993052   -1.526961   -1.878297
     21          1           0        2.285911   -1.393682   -1.471473
     22          1           0        2.538990   -3.242653    0.217886
     23          1           0        4.255831   -3.376691   -0.191250
     24          1           0        3.024074   -3.789804   -1.396000
     25          6           0        3.617925    0.797347   -0.406849
     26          6           0        3.960806    1.785945    0.708091
     27          6           0        3.960496    3.238556    0.230899
     28          1           0        4.340030    0.915105   -1.226662
     29          1           0        2.631708    1.048672   -0.820561
     30          1           0        4.946238    1.532121    1.119327
     31          1           0        3.239097    1.665401    1.526151
     32          1           0        2.976318    3.515130   -0.160896
     33          1           0        4.693159    3.381092   -0.570032
     34          1           0        4.208075    3.928244    1.043854
 ---------------------------------------------------------------------

 SCF Done:  E(RHF) =  -669.535353441     A.U. after   15 cycles
 E2 =    -0.2092116718D+01 EUMP2 =    -0.67162747015873D+03

 The electronic state is 1-A.
 Alpha  occ. eigenvalues --  -20.60760 -20.60755 -15.85813 -11.31184 -11.27754
 Alpha  occ. eigenvalues --  -11.27748 -11.27501 -11.26771 -11.26738 -11.22747
 Alpha  occ. eigenvalues --  -11.22517 -11.22362 -11.22299 -11.22064 -11.21629
 Alpha  occ. eigenvalues --   -1.59835  -1.39388  -1.19356  -1.09432  -1.08750
 Alpha  occ. eigenvalues --   -1.04762  -1.04424  -0.96858  -0.95586  -0.87870
 Alpha  occ. eigenvalues --   -0.86161  -0.82420  -0.80505  -0.79226  -0.77467
 Alpha  occ. eigenvalues --   -0.72032  -0.71158  -0.70473  -0.66226  -0.65007
 Alpha  occ. eigenvalues --   -0.64676  -0.62183  -0.61726  -0.60229  -0.58463
 Alpha  occ. eigenvalues --   -0.56156  -0.55271  -0.53522  -0.53269  -0.53084
 Alpha  occ. eigenvalues --   -0.52861  -0.50804  -0.48828  -0.48787  -0.48765
 Alpha  occ. eigenvalues --   -0.47567  -0.46738  -0.46689  -0.44793  -0.44699
 Alpha  occ. eigenvalues --   -0.37338  -0.36361
 Alpha virt. eigenvalues --    0.05067   0.11241   0.16538   0.17710   0.22968
 Alpha virt. eigenvalues --    0.23772   0.24025   0.25183   0.27076   0.28597
 Alpha virt. eigenvalues --    0.29478   0.30302   0.30970   0.31486   0.31666

 Mulliken charges:
               1
     1  C   -0.175139
     2  C   -0.227496
     3  C   -0.173355
     4  C    0.159001
     5  C   -0.171039
     6  C   -0.218394
     7  H    0.226612
     8  H    0.236960
     9  H    0.275928
    10  H    0.275608
    11  H    0.223483
    12  N    0.488038
    13  O   -0.460485
    14  O   -0.460370
    15  C   -0.300765
    16  C   -0.304435
    17  C   -0.474963
    18  H    0.155652
    19  H    0.140948
    20  H    0.158961
    21  H    0.145499
    22  H    0.150109
    23  H    0.159223
    24  H    0.165112
    25  C   -0.299366
    26  C   -0.299788
    27  C   -0.476505
    28  H    0.154077
    29  H    0.145817
    30  H    0.153828
    31  H    0.150730
    32  H    0.156993
    33  H    0.156820
    34  H    0.162702
 Sum of Mulliken charges =  -0.00000

 Dipole moment (field-independent basis, Debye):
    X=              4.4183    Y=             -1.7651    Z=              2.5174  Tot=              5.3828
 Quadrupole moment (field-independent basis, Debye-Ang):
   XX=           -116.7901   YY=            -96.3385   ZZ=            -91.4853
   XY=              5.8646   XZ=            -10.7775   YZ=             -0.3164

 Normal termination of Gaussian 16 at Wed May  5 19:09:02 2021.
