 Gaussian 16, Revision A.03,
 Gaussian 16:  EM64L-G16RevA.03 25-Dec-2016

 -------------
 #p 6-31g* mp2
 -------------

 ------------------------------------------------------
 Input file generated by CHIRIPA (05-May-2021 14:53:16)
 ------------------------------------------------------
 Symbolic Z-matrix:
 Charge =  0 Multiplicity = 1

                         Standard orientation:
 ---------------------------------------------------------------------
 Center     Atomic      Atomic             Coordinates (Angstroms)
 Number     Number       Type             X           Y           Z
 ---------------------------------------------------------------------
      1          6           0        4.126702   -0.184831    0.866270
      2          6           0        2.723782    0.411595    0.747631
      3          6           0        1.893727    0.227437    2.018413
      4          1           0        4.044638   -1.255050    1.100453
      5          1           0        4.645443    0.281976    1.715031
      6          1           0        2.208337   -0.055205   -0.101504
      7          1           0        2.809195    1.480478    0.513514
      8          1           0        2.383176    0.708614    2.871354
      9          1           0        1.778904   -0.835794    2.252842
     10          1           0        0.894545    0.661138    1.911650
     11          6           0        4.968641   -0.008651   -0.396199
     12          6           0        6.371562   -0.605078   -0.277559
     13          6           0        7.201617   -0.420919   -1.548342
     14          1           0        4.449900   -0.475458   -1.244959
     15          1           0        5.050706    1.061568   -0.630381
     16          1           0        6.286149   -1.673960   -0.043443
     17          1           0        6.887007   -0.138277    0.571576
     18          1           0        7.316440    0.642312   -1.782770
     19          1           0        6.712167   -0.902096   -2.401283
     20          1           0        8.200799   -0.854620   -1.441579
     21          6           0       -5.237572   -1.802592   -0.170503
     22          6           0       -5.651032   -0.493226   -0.437209
     23          6           0       -4.726292    0.555252   -0.447084
     24          6           0       -3.389998    0.257154   -0.184891
     25          6           0       -2.947110   -1.036947    0.084262
     26          6           0       -3.889307   -2.069803    0.088924
     27          1           0       -5.962712   -2.611007   -0.164855
     28          1           0       -6.697463   -0.282759   -0.639027
     29          1           0       -5.019072    1.578142   -0.650536
     30          1           0       -1.897138   -1.215692    0.281818
     31          1           0       -3.565346   -3.085707    0.296368
     32          7           0       -2.401776    1.358861   -0.192586
     33          8           0       -1.230272    1.070014    0.041470
     34          8           0       -2.817424    2.490365   -0.432527
 ---------------------------------------------------------------------

 SCF Done:  E(RHF) =  -669.536120210     A.U. after   15 cycles
 E2 =    -0.2090804188D+01 EUMP2 =    -0.67162692439746D+03

 The electronic state is 1-A.
 Alpha  occ. eigenvalues --  -20.60930 -20.60915 -15.85964 -11.31279 -11.27843
 Alpha  occ. eigenvalues --  -11.27839 -11.27583 -11.26852 -11.26842 -11.21140
 Alpha  occ. eigenvalues --  -11.20783 -11.20682 -11.20648 -11.20547 -11.19938
 Alpha  occ. eigenvalues --   -1.59989  -1.39545  -1.19449  -1.08854  -1.07737
 Alpha  occ. eigenvalues --   -1.04845  -1.02781  -0.95700  -0.95243  -0.86277
 Alpha  occ. eigenvalues --   -0.86244  -0.82531  -0.78870  -0.77585  -0.77515
 Alpha  occ. eigenvalues --   -0.72193  -0.71303  -0.70558  -0.65107  -0.64848
 Alpha  occ. eigenvalues --   -0.64382  -0.62192  -0.60199  -0.58613  -0.56800
 Alpha  occ. eigenvalues --   -0.55350  -0.54571  -0.53178  -0.52937  -0.51905
 Alpha  occ. eigenvalues --   -0.51669  -0.49239  -0.48943  -0.48930  -0.47173
 Alpha  occ. eigenvalues --   -0.45930  -0.45083  -0.45000  -0.44925  -0.43019
 Alpha  occ. eigenvalues --   -0.37429  -0.36446
 Alpha virt. eigenvalues --    0.04923   0.11209   0.16402   0.21234   0.23460
 Alpha virt. eigenvalues --    0.24822   0.27150   0.27353   0.27843   0.28231
 Alpha virt. eigenvalues --    0.29019   0.30925   0.31995   0.32240   0.32492

 Mulliken charges:
               1
     1  C   -0.297883
     2  C   -0.295654
     3  C   -0.484973
     4  H    0.145159
     5  H    0.147576
     6  H    0.153408
     7  H    0.155655
     8  H    0.149852
     9  H    0.143892
    10  H    0.183295
    11  C   -0.297540
    12  C   -0.298944
    13  C   -0.475277
    14  H    0.148406
    15  H    0.150520
    16  H    0.149985
    17  H    0.151253
    18  H    0.155390
    19  H    0.154322
    20  H    0.158471
    21  C   -0.170598
    22  C   -0.218587
    23  C   -0.170784
    24  C    0.157814
    25  C   -0.170823
    26  C   -0.218567
    27  H    0.225948
    28  H    0.223757
    29  H    0.275795
    30  H    0.276255
    31  H    0.223851
    32  N    0.492457
    33  O   -0.464480
    34  O   -0.458953
 Sum of Mulliken charges =  -0.00000

 Dipole moment (field-independent basis, Debye):
    X=             -3.7679    Y=             -3.7672    Z=             -0.0330  Tot=              5.3282
 Quadrupole moment (field-independent basis, Debye-Ang):
   XX=            -70.0564   YY=            -94.1441   ZZ=            -96.3130
   XY=             10.3813   XZ=              2.0444   YZ=              0.3780

 Normal termination of Gaussian 16 at Thu May  6 18:53:11 2021.
