 Gaussian 16, Revision A.03,
 Gaussian 16:  EM64L-G16RevA.03 25-Dec-2016

 -------------
 #p 6-31g* mp2
 -------------

 ------------------------------------------------------
 Input file generated by CHIRIPA (05-May-2021 14:57:25)
 ------------------------------------------------------
 Symbolic Z-matrix:
 Charge =  0 Multiplicity = 1

                         Standard orientation:
 ---------------------------------------------------------------------
 Center     Atomic      Atomic             Coordinates (Angstroms)
 Number     Number       Type             X           Y           Z
 ---------------------------------------------------------------------
      1          6           0        5.082207    1.164874   -0.958286
      2          6           0        3.774103    1.567655   -1.246647
      3          6           0        2.683916    0.829908   -0.775722
      4          6           0        2.939472   -0.310535   -0.015874
      5          6           0        4.231161   -0.737536    0.288265
      6          6           0        5.306166    0.015591   -0.193099
      7          1           0        5.923194    1.743947   -1.328167
      8          1           0        3.597175    2.459777   -1.840667
      9          1           0        1.660983    1.119051   -0.984103
     10          1           0        4.375936   -1.631345    0.882876
     11          1           0        6.320984   -0.299591    0.032403
     12          7           0        1.793376   -1.099696    0.488200
     13          8           0        2.045196   -2.100630    1.155548
     14          8           0        0.664947   -0.702362    0.206399
     15          6           0       -4.133229   -0.989499   -1.897880
     16          6           0       -3.410546   -1.720144   -0.948982
     17          6           0       -2.849365   -1.082337    0.161345
     18          6           0       -3.031215    0.293581    0.291997
     19          6           0       -3.745951    1.049058   -0.636280
     20          6           0       -4.298334    0.390338   -1.738781
     21          1           0       -4.565751   -1.493086   -2.757370
     22          1           0       -3.280718   -2.791850   -1.069963
     23          1           0       -2.285219   -1.623698    0.911068
     24          1           0       -3.858459    2.116263   -0.488525
     25          1           0       -4.859090    0.960312   -2.474123
     26          7           0       -2.441776    0.979868    1.463309
     27          8           0       -2.616263    2.193002    1.555488
     28          8           0       -1.816447    0.291652    2.267024
 ---------------------------------------------------------------------

 SCF Done:  E(RHF) =  -868.338495763     A.U. after   16 cycles
 E2 =    -0.2600161686D+01 EUMP2 =    -0.87093865744895D+03

 The electronic state is 1-A.
 Alpha  occ. eigenvalues --  -20.60672 -20.60634 -20.59685 -20.59573 -15.85690
 Alpha  occ. eigenvalues --  -15.84676 -11.31016 -11.30038 -11.27588 -11.27577
 Alpha  occ. eigenvalues --  -11.27336 -11.26770 -11.26604 -11.26590 -11.26523
 Alpha  occ. eigenvalues --  -11.26515 -11.25791 -11.25636  -1.59705  -1.58698
 Alpha  occ. eigenvalues --   -1.39266  -1.38247  -1.19187  -1.18262  -1.08593
 Alpha  occ. eigenvalues --   -1.07676  -1.04589  -1.03673  -0.95438  -0.94497
 Alpha  occ. eigenvalues --   -0.85991  -0.85077  -0.82279  -0.81335  -0.77325
 Alpha  occ. eigenvalues --   -0.76348  -0.71963  -0.71022  -0.70904  -0.70311
 Alpha  occ. eigenvalues --   -0.69968  -0.69406  -0.64850  -0.64600  -0.63931
 Alpha  occ. eigenvalues --   -0.63706  -0.61939  -0.61006  -0.55103  -0.54243
 Alpha  occ. eigenvalues --   -0.52915  -0.52687  -0.52008  -0.51782  -0.48696
 Alpha  occ. eigenvalues --   -0.48669  -0.47697  -0.47631  -0.44717  -0.43583
 Alpha  occ. eigenvalues --   -0.37167  -0.36288  -0.36187  -0.35254
 Alpha virt. eigenvalues --    0.05225   0.06199   0.11468   0.12388   0.16706
 Alpha virt. eigenvalues --    0.17648   0.21576   0.22389   0.27486   0.28290
 Alpha virt. eigenvalues --    0.28463   0.29352   0.31115   0.31864   0.32689

 Mulliken charges:
               1
     1  C   -0.170670
     2  C   -0.218463
     3  C   -0.169107
     4  C    0.159227
     5  C   -0.170559
     6  C   -0.218614
     7  H    0.225140
     8  H    0.223296
     9  H    0.275501
    10  H    0.275299
    11  H    0.222952
    12  N    0.491935
    13  O   -0.460999
    14  O   -0.463581
    15  C   -0.171507
    16  C   -0.221929
    17  C   -0.154414
    18  C    0.156552
    19  C   -0.173613
    20  C   -0.220741
    21  H    0.220878
    22  H    0.221942
    23  H    0.286611
    24  H    0.270657
    25  H    0.217745
    26  N    0.488433
    27  O   -0.471233
    28  O   -0.450738
 Sum of Mulliken charges =  -0.00000

 Dipole moment (field-independent basis, Debye):
    X=              2.2756    Y=              0.1605    Z=             -5.6940  Tot=              6.1340
 Quadrupole moment (field-independent basis, Debye-Ang):
   XX=            -68.3116   YY=           -103.0272   ZZ=           -107.2817
   XY=             10.3250   XZ=              8.4724   YZ=             -4.9863

 Normal termination of Gaussian 16 at Fri May  7 11:11:53 2021.
