 Gaussian 16, Revision A.03,
 Gaussian 16:  EM64L-G16RevA.03 25-Dec-2016

 -------------
 #p 6-31g* mp2
 -------------

 ------------------------------------------------------
 Input file generated by CHIRIPA (05-May-2021 14:57:24)
 ------------------------------------------------------
 Symbolic Z-matrix:
 Charge =  0 Multiplicity = 1

                         Standard orientation:
 ---------------------------------------------------------------------
 Center     Atomic      Atomic             Coordinates (Angstroms)
 Number     Number       Type             X           Y           Z
 ---------------------------------------------------------------------
      1          6           0        4.553048   -2.352939    0.371530
      2          6           0        3.326320   -1.845269    0.811903
      3          6           0        3.006777   -0.497383    0.623107
      4          6           0        3.941618    0.318169   -0.012689
      5          6           0        5.172120   -0.157909   -0.462694
      6          6           0        5.470416   -1.509126   -0.263244
      7          1           0        4.793024   -3.401303    0.522329
      8          1           0        2.611952   -2.498258    1.305188
      9          1           0        2.064392   -0.078133    0.954103
     10          1           0        5.863922    0.517541   -0.951155
     11          1           0        6.423876   -1.900640   -0.606285
     12          7           0        3.614579    1.746879   -0.218198
     13          8           0        4.455326    2.444681   -0.781097
     14          8           0        2.523692    2.141847    0.187513
     15          6           0       -1.477483   -0.159531    0.118528
     16          6           0       -2.180074    0.891105    0.717736
     17          6           0       -3.575319    0.943875    0.646647
     18          6           0       -4.238953   -0.075273   -0.034688
     19          6           0       -3.567260   -1.135164   -0.641935
     20          6           0       -2.172094   -1.167536   -0.558201
     21          1           0       -0.393654   -0.192601    0.178663
     22          1           0       -1.643259    1.675308    1.243950
     23          1           0       -4.144227    1.745669    1.101498
     24          1           0       -4.130085   -1.902427   -1.159578
     25          1           0       -1.629071   -1.984687   -1.024502
     26          7           0       -5.715994   -0.030205   -0.116639
     27          8           0       -6.277268   -0.940293   -0.722732
     28          8           0       -6.284457    0.914353    0.426771
 ---------------------------------------------------------------------

 SCF Done:  E(RHF) =  -868.337689416     A.U. after   16 cycles
 E2 =    -0.2599434139D+01 EUMP2 =    -0.87093712355486D+03

 The electronic state is 1-A.
 Alpha  occ. eigenvalues --  -20.61699 -20.61655 -20.60683 -20.60674 -15.86732
 Alpha  occ. eigenvalues --  -15.85733 -11.32121 -11.31102 -11.28784 -11.28605
 Alpha  occ. eigenvalues --  -11.28350 -11.27720 -11.27687 -11.27619 -11.27618
 Alpha  occ. eigenvalues --  -11.27452 -11.26746 -11.26610  -1.60746  -1.59756
 Alpha  occ. eigenvalues --   -1.40305  -1.39309  -1.20272  -1.19271  -1.09647
 Alpha  occ. eigenvalues --   -1.08675  -1.05686  -1.04666  -0.96492  -0.95512
 Alpha  occ. eigenvalues --   -0.87076  -0.86065  -0.83330  -0.82338  -0.78396
 Alpha  occ. eigenvalues --   -0.77373  -0.72952  -0.72065  -0.71952  -0.71394
 Alpha  occ. eigenvalues --   -0.71078  -0.70406  -0.65923  -0.65677  -0.64925
 Alpha  occ. eigenvalues --   -0.64661  -0.63051  -0.62005  -0.56157  -0.55221
 Alpha  occ. eigenvalues --   -0.53990  -0.53749  -0.53003  -0.52753  -0.49720
 Alpha  occ. eigenvalues --   -0.49690  -0.48711  -0.48706  -0.45704  -0.44714
 Alpha  occ. eigenvalues --   -0.38217  -0.37287  -0.37266  -0.36263
 Alpha virt. eigenvalues --    0.04127   0.05146   0.10315   0.11389   0.15666
 Alpha virt. eigenvalues --    0.16626   0.18850   0.21872   0.25002   0.26940
 Alpha virt. eigenvalues --    0.27516   0.29197   0.30395   0.30838   0.32572

 Mulliken charges:
               1
     1  C   -0.170429
     2  C   -0.219438
     3  C   -0.178783
     4  C    0.160866
     5  C   -0.169908
     6  C   -0.217541
     7  H    0.228730
     8  H    0.223865
     9  H    0.271725
    10  H    0.278345
    11  H    0.226982
    12  N    0.488323
    13  O   -0.455147
    14  O   -0.466186
    15  C   -0.173343
    16  C   -0.219580
    17  C   -0.171088
    18  C    0.158698
    19  C   -0.171088
    20  C   -0.220077
    21  H    0.224842
    22  H    0.231063
    23  H    0.276648
    24  H    0.274738
    25  H    0.220679
    26  N    0.487986
    27  O   -0.461182
    28  O   -0.459703
 Sum of Mulliken charges =  -0.00000

 Dipole moment (field-independent basis, Debye):
    X=              6.6509    Y=             -5.1435    Z=              0.9854  Tot=              8.4653
 Quadrupole moment (field-independent basis, Debye-Ang):
   XX=           -135.0786   YY=           -104.8056   ZZ=           -103.8040
   XY=            -19.2018   XZ=             -1.1389   YZ=              2.4962

 Normal termination of Gaussian 16 at Fri May  7 06:28:59 2021.
