 Gaussian 16, Revision A.03,
 Gaussian 16:  EM64L-G16RevA.03 25-Dec-2016

 -------------
 #p 6-31g* mp2
 -------------

 ------------------------------------------------------
 Input file generated by CHIRIPA (05-May-2021 14:55:19)
 ------------------------------------------------------
 Symbolic Z-matrix:
 Charge =  0 Multiplicity = 1

                         Standard orientation:
 ---------------------------------------------------------------------
 Center     Atomic      Atomic             Coordinates (Angstroms)
 Number     Number       Type             X           Y           Z
 ---------------------------------------------------------------------
      1          6           0       -2.098839    2.479998    0.766010
      2          6           0       -3.250878    2.449203   -0.026694
      3          6           0       -3.750413    1.234743   -0.506380
      4          6           0       -3.069771    0.064891   -0.172521
      5          6           0       -1.919629    0.062879    0.615171
      6          6           0       -1.438057    1.288837    1.083853
      7          1           0       -1.717765    3.427885    1.134368
      8          1           0       -3.766112    3.372708   -0.275124
      9          1           0       -4.640220    1.182056   -1.121918
     10          1           0       -1.427740   -0.874217    0.846070
     11          1           0       -0.543152    1.309728    1.699283
     12          7           0       -3.589099   -1.226890   -0.674518
     13          8           0       -2.971114   -2.243601   -0.366248
     14          8           0       -4.604299   -1.198217   -1.366749
     15          6           0        4.268863   -0.274977   -0.497637
     16          6           0        5.432201    0.691692   -0.273623
     17          6           0        6.321669    0.842403   -1.508097
     18          1           0        4.667115   -1.257265   -0.786515
     19          1           0        3.665092    0.078943   -1.344748
     20          1           0        6.032808    0.336802    0.573692
     21          1           0        5.031141    1.671742    0.014943
     22          1           0        5.741849    1.218791   -2.357061
     23          1           0        6.749207   -0.123734   -1.795138
     24          1           0        7.146877    1.537873   -1.325852
     25          6           0        3.370637   -0.436171    0.727489
     26          6           0        2.207300   -1.402840    0.503474
     27          6           0        1.317831   -1.553550    1.737948
     28          1           0        3.974408   -0.790090    1.574599
     29          1           0        2.972386    0.546117    1.016367
     30          1           0        2.608359   -2.382890    0.214909
     31          1           0        1.606693   -1.047950   -0.343840
     32          1           0        0.890293   -0.587414    2.024990
     33          1           0        1.897650   -1.929939    2.586914
     34          1           0        0.492624   -2.249021    1.555703
 ---------------------------------------------------------------------

 SCF Done:  E(RHF) =  -669.534873319     A.U. after   15 cycles
 E2 =    -0.2092279109D+01 EUMP2 =    -0.67162715242775D+03

 The electronic state is 1-A.
 Alpha  occ. eigenvalues --  -20.60737 -20.60732 -15.85787 -11.31120 -11.27713
 Alpha  occ. eigenvalues --  -11.27632 -11.27462 -11.26726 -11.26699 -11.22129
 Alpha  occ. eigenvalues --  -11.21942 -11.21906 -11.21896 -11.21738 -11.21336
 Alpha  occ. eigenvalues --   -1.59811  -1.39365  -1.19305  -1.08891  -1.08710
 Alpha  occ. eigenvalues --   -1.04719  -1.04011  -0.96500  -0.95542  -0.87520
 Alpha  occ. eigenvalues --   -0.86110  -0.82385  -0.80077  -0.78679  -0.77429
 Alpha  occ. eigenvalues --   -0.72009  -0.71133  -0.70431  -0.65546  -0.64958
 Alpha  occ. eigenvalues --   -0.64746  -0.62272  -0.61247  -0.59837  -0.58080
 Alpha  occ. eigenvalues --   -0.55815  -0.55176  -0.53259  -0.53038  -0.53005
 Alpha  occ. eigenvalues --   -0.52604  -0.50428  -0.48765  -0.48761  -0.48379
 Alpha  occ. eigenvalues --   -0.47096  -0.46229  -0.46136  -0.44776  -0.44252
 Alpha  occ. eigenvalues --   -0.37297  -0.36306
 Alpha virt. eigenvalues --    0.05093   0.11329   0.16559   0.19709   0.22796
 Alpha virt. eigenvalues --    0.23880   0.25180   0.26446   0.26757   0.27987
 Alpha virt. eigenvalues --    0.28744   0.30213   0.31386   0.31572   0.32639

 Mulliken charges:
               1
     1  C   -0.170551
     2  C   -0.219172
     3  C   -0.170130
     4  C    0.157766
     5  C   -0.176455
     6  C   -0.226507
     7  H    0.225473
     8  H    0.223178
     9  H    0.275377
    10  H    0.286482
    11  H    0.226797
    12  N    0.487820
    13  O   -0.461203
    14  O   -0.460526
    15  C   -0.298902
    16  C   -0.299724
    17  C   -0.475985
    18  H    0.152200
    19  H    0.150842
    20  H    0.152493
    21  H    0.150244
    22  H    0.155697
    23  H    0.156543
    24  H    0.160745
    25  C   -0.297744
    26  C   -0.301053
    27  C   -0.487993
    28  H    0.151101
    29  H    0.143814
    30  H    0.158384
    31  H    0.155008
    32  H    0.143735
    33  H    0.162294
    34  H    0.169953
 Sum of Mulliken charges =  -0.00000

 Dipole moment (field-independent basis, Debye):
    X=              1.9933    Y=              4.4232    Z=              1.7217  Tot=              5.1480
 Quadrupole moment (field-independent basis, Debye-Ang):
   XX=           -103.3378   YY=            -92.6640   ZZ=            -95.5888
   XY=            -16.9519   XZ=             -3.0977   YZ=             -2.1210

 Normal termination of Gaussian 16 at Thu May  6 14:04:09 2021.
