 Gaussian 16, Revision A.03,
 Gaussian 16:  EM64L-G16RevA.03 25-Dec-2016

 -------------
 #p 6-31g* mp2
 -------------

 ------------------------------------------------------
 Input file generated by CHIRIPA (05-May-2021 14:57:21)
 ------------------------------------------------------
 Symbolic Z-matrix:
 Charge =  0 Multiplicity = 1

                         Standard orientation:
 ---------------------------------------------------------------------
 Center     Atomic      Atomic             Coordinates (Angstroms)
 Number     Number       Type             X           Y           Z
 ---------------------------------------------------------------------
      1          6           0        2.361478    1.935807    0.731218
      2          6           0        3.631500    2.353231    0.319731
      3          6           0        4.589174    1.418913   -0.085803
      4          6           0        4.241379    0.069103   -0.067331
      5          6           0        2.984545   -0.378051    0.337284
      6          6           0        2.042616    0.573899    0.738667
      7          1           0        1.623649    2.668456    1.044634
      8          1           0        3.881917    3.410251    0.312924
      9          1           0        5.579902    1.714483   -0.409090
     10          1           0        2.764258   -1.438652    0.333302
     11          1           0        1.057088    0.246830    1.057737
     12          7           0        5.246891   -0.929350   -0.494455
     13          8           0        4.915712   -2.112699   -0.469090
     14          8           0        6.347151   -0.509684   -0.846513
     15          6           0       -5.740145    1.525035   -0.711863
     16          6           0       -4.458633    1.901176   -0.296213
     17          6           0       -3.528242    0.935272    0.098692
     18          6           0       -3.914742   -0.403685    0.065460
     19          6           0       -5.183926   -0.809997   -0.343651
     20          6           0       -6.098071    0.173033   -0.734215
     21          1           0       -6.456585    2.282024   -1.016948
     22          1           0       -4.177898    2.950412   -0.277840
     23          1           0       -2.529416    1.198626    0.424896
     24          1           0       -5.434647   -1.863799   -0.351284
     25          1           0       -7.092606   -0.122002   -1.056551
     26          7           0       -2.938378   -1.435309    0.481231
     27          8           0       -3.303477   -2.608286    0.442935
     28          8           0       -1.826494   -1.051386    0.837535
 ---------------------------------------------------------------------

 SCF Done:  E(RHF) =  -868.339064535     A.U. after   16 cycles
 E2 =    -0.2598613565D+01 EUMP2 =    -0.87093767809986D+03

 The electronic state is 1-A.
 Alpha  occ. eigenvalues --  -20.61616 -20.61555 -20.60250 -20.60234 -15.86639
 Alpha  occ. eigenvalues --  -15.85292 -11.31855 -11.30602 -11.28462 -11.28364
 Alpha  occ. eigenvalues --  -11.28098 -11.27407 -11.27347 -11.27200 -11.27048
 Alpha  occ. eigenvalues --  -11.26932 -11.26259 -11.25998  -1.60644  -1.59321
 Alpha  occ. eigenvalues --   -1.40209  -1.38875  -1.20007  -1.18761  -1.09422
 Alpha  occ. eigenvalues --   -1.08186  -1.05395  -1.04127  -0.96287  -0.95030
 Alpha  occ. eigenvalues --   -0.86798  -0.85542  -0.83134  -0.81838  -0.78204
 Alpha  occ. eigenvalues --   -0.76878  -0.72871  -0.71951  -0.71513  -0.71116
 Alpha  occ. eigenvalues --   -0.70643  -0.69913  -0.65669  -0.65396  -0.64410
 Alpha  occ. eigenvalues --   -0.64101  -0.62755  -0.61446  -0.55886  -0.54702
 Alpha  occ. eigenvalues --   -0.53721  -0.53489  -0.52501  -0.52190  -0.49631
 Alpha  occ. eigenvalues --   -0.49578  -0.48272  -0.48263  -0.45645  -0.44291
 Alpha  occ. eigenvalues --   -0.37965  -0.36989  -0.36787  -0.35728
 Alpha virt. eigenvalues --    0.04340   0.05611   0.10670   0.11906   0.15866
 Alpha virt. eigenvalues --    0.17114   0.20477   0.22003   0.26204   0.27076
 Alpha virt. eigenvalues --    0.28569   0.28805   0.30384   0.31315   0.32181

 Mulliken charges:
               1
     1  C   -0.172932
     2  C   -0.218419
     3  C   -0.172715
     4  C    0.158403
     5  C   -0.172556
     6  C   -0.226715
     7  H    0.219315
     8  H    0.219763
     9  H    0.273336
    10  H    0.280701
    11  H    0.244245
    12  N    0.487907
    13  O   -0.459033
    14  O   -0.463003
    15  C   -0.170069
    16  C   -0.217880
    17  C   -0.169082
    18  C    0.158914
    19  C   -0.170154
    20  C   -0.218172
    21  H    0.227715
    22  H    0.223346
    23  H    0.268281
    24  H    0.277560
    25  H    0.225946
    26  N    0.493913
    27  O   -0.454208
    28  O   -0.474406
 Sum of Mulliken charges =  -0.00000

 Dipole moment (field-independent basis, Debye):
    X=             -7.4303    Y=              6.9603    Z=              0.0167  Tot=             10.1811
 Quadrupole moment (field-independent basis, Debye-Ang):
   XX=           -103.6786   YY=           -102.6405   ZZ=           -106.6094
   XY=              6.9617   XZ=             12.6233   YZ=              0.6022

 Normal termination of Gaussian 16 at Thu May  6 04:55:36 2021.
