 Gaussian 16, Revision A.03,
 Gaussian 16:  EM64L-G16RevA.03 25-Dec-2016

 -------------
 #p 6-31g* mp2
 -------------

 ------------------------------------------------------
 Input file generated by CHIRIPA (05-May-2021 14:55:20)
 ------------------------------------------------------
 Symbolic Z-matrix:
 Charge =  0 Multiplicity = 1

                         Standard orientation:
 ---------------------------------------------------------------------
 Center     Atomic      Atomic             Coordinates (Angstroms)
 Number     Number       Type             X           Y           Z
 ---------------------------------------------------------------------
      1          6           0       -4.973536   -1.409507   -0.926303
      2          6           0       -4.798985   -0.046403   -1.187072
      3          6           0       -3.764410    0.666907   -0.574381
      4          6           0       -2.919076   -0.017511    0.297555
      5          6           0       -3.067189   -1.375037    0.577687
      6          6           0       -4.108606   -2.068312   -0.046307
      7          1           0       -5.779876   -1.955842   -1.406647
      8          1           0       -5.469183    0.467827   -1.870042
      9          1           0       -3.606516    1.722678   -0.758328
     10          1           0       -2.383103   -1.860326    1.263208
     11          1           0       -4.241778   -3.126864    0.158088
     12          7           0       -1.820196    0.727034    0.952167
     13          8           0       -1.088965    0.100994    1.716374
     14          8           0       -1.710933    1.922549    0.688650
     15          6           0        4.260064   -0.444422    0.087395
     16          6           0        5.563079   -0.918407   -0.557182
     17          6           0        6.134611   -2.167479    0.114354
     18          1           0        4.437966   -0.241093    1.152267
     19          1           0        3.520880   -1.256251    0.043427
     20          1           0        6.299144   -0.105452   -0.513251
     21          1           0        5.382100   -1.120448   -1.620687
     22          1           0        5.421017   -2.995856    0.058004
     23          1           0        6.343270   -1.975093    1.171733
     24          1           0        7.065949   -2.488975   -0.362206
     25          6           0        3.676408    0.803387   -0.572944
     26          6           0        2.373395    1.277372    0.071633
     27          6           0        1.801862    2.526444   -0.599904
     28          1           0        4.415593    1.615216   -0.528976
     29          1           0        3.498507    0.600056   -1.637816
     30          1           0        2.554373    1.479413    1.135138
     31          1           0        1.637329    0.464417    0.027702
     32          1           0        1.593203    2.334058   -1.657282
     33          1           0        2.515456    3.354821   -0.543554
     34          1           0        0.870524    2.847940   -0.123343
 ---------------------------------------------------------------------

 SCF Done:  E(RHF) =  -669.536452806     A.U. after   15 cycles
 E2 =    -0.2091522416D+01 EUMP2 =    -0.67162797522178D+03

 The electronic state is 1-A.
 Alpha  occ. eigenvalues --  -20.61015 -20.61010 -15.86028 -11.31330 -11.27888
 Alpha  occ. eigenvalues --  -11.27884 -11.27623 -11.26890 -11.26880 -11.20976
 Alpha  occ. eigenvalues --  -11.20569 -11.20555 -11.20358 -11.20155 -11.19488
 Alpha  occ. eigenvalues --   -1.60059  -1.39617  -1.19494  -1.08903  -1.07482
 Alpha  occ. eigenvalues --   -1.04886  -1.02508  -0.95749  -0.94975  -0.86288
 Alpha  occ. eigenvalues --   -0.86005  -0.82581  -0.78614  -0.77638  -0.77226
 Alpha  occ. eigenvalues --   -0.72246  -0.71371  -0.70602  -0.65149  -0.64889
 Alpha  occ. eigenvalues --   -0.64133  -0.62233  -0.59931  -0.58378  -0.56531
 Alpha  occ. eigenvalues --   -0.55388  -0.54308  -0.53219  -0.52978  -0.51643
 Alpha  occ. eigenvalues --   -0.51411  -0.49014  -0.48978  -0.48961  -0.46918
 Alpha  occ. eigenvalues --   -0.45698  -0.45090  -0.44744  -0.44615  -0.42727
 Alpha  occ. eigenvalues --   -0.37471  -0.36486
 Alpha virt. eigenvalues --    0.04853   0.11170   0.16338   0.21302   0.23713
 Alpha virt. eigenvalues --    0.25359   0.27229   0.27528   0.28126   0.28452
 Alpha virt. eigenvalues --    0.29057   0.30870   0.32277   0.32404   0.32625

 Mulliken charges:
               1
     1  C   -0.170485
     2  C   -0.218598
     3  C   -0.170608
     4  C    0.158218
     5  C   -0.170784
     6  C   -0.218614
     7  H    0.226142
     8  H    0.224003
     9  H    0.276073
    10  H    0.275952
    11  H    0.223954
    12  N    0.488893
    13  O   -0.458261
    14  O   -0.459614
    15  C   -0.296898
    16  C   -0.298760
    17  C   -0.474974
    18  H    0.150303
    19  H    0.148204
    20  H    0.150921
    21  H    0.149676
    22  H    0.153616
    23  H    0.155103
    24  H    0.157827
    25  C   -0.297937
    26  C   -0.295804
    27  C   -0.486858
    28  H    0.146497
    29  H    0.144707
    30  H    0.155168
    31  H    0.154363
    32  H    0.144866
    33  H    0.147291
    34  H    0.186417
 Sum of Mulliken charges =  -0.00000

 Dipole moment (field-independent basis, Debye):
    X=             -4.2443    Y=             -2.6040    Z=             -2.1500  Tot=              5.4238
 Quadrupole moment (field-independent basis, Debye-Ang):
   XX=            -73.4125   YY=            -91.9470   ZZ=            -95.5459
   XY=              7.3476   XZ=              7.1698   YZ=             -2.0439

 Normal termination of Gaussian 16 at Thu May  6 19:04:23 2021.
