 Gaussian 16, Revision A.03,
 Gaussian 16:  EM64L-G16RevA.03 25-Dec-2016

 -------------
 #p 6-31g* mp2
 -------------

 ------------------------------------------------------
 Input file generated by CHIRIPA (05-May-2021 14:51:11)
 ------------------------------------------------------
 Symbolic Z-matrix:
 Charge =  0 Multiplicity = 1

                         Standard orientation:
 ---------------------------------------------------------------------
 Center     Atomic      Atomic             Coordinates (Angstroms)
 Number     Number       Type             X           Y           Z
 ---------------------------------------------------------------------
      1          6           0        3.001675   -0.187618   -0.103897
      2          6           0        1.990259   -0.027291    1.031585
      3          6           0        0.544988    0.014604    0.534362
      4          1           0        2.880627    0.641820   -0.814054
      5          1           0        2.776856   -1.109218   -0.658429
      6          1           0        2.217764    0.893014    1.584663
      7          1           0        2.113858   -0.857104    1.739222
      8          1           0        0.294436   -0.907681    0.000308
      9          1           0        0.398933    0.852381   -0.155130
     10          1           0       -0.161296    0.129671    1.362481
     11          6           0        4.450898   -0.231161    0.377336
     12          6           0        5.462313   -0.391488   -0.758146
     13          6           0        6.907584   -0.433384   -0.260923
     14          1           0        4.675717    0.690438    0.931869
     15          1           0        4.571945   -1.060600    1.087494
     16          1           0        5.338715    0.438325   -1.465782
     17          1           0        5.234809   -1.311794   -1.311223
     18          1           0        7.053640   -1.271160    0.428569
     19          1           0        7.158136    0.488902    0.273132
     20          1           0        7.613869   -0.548450   -1.089042
     21          6           0       -3.218326    0.700491   -0.426942
     22          6           0       -3.248111    2.072676    0.247006
     23          6           0       -2.226274    3.044124   -0.344545
     24          1           0       -2.209597    0.275289   -0.334146
     25          1           0       -3.407904    0.823667   -1.502248
     26          1           0       -3.059905    1.946806    1.320948
     27          1           0       -4.256938    2.494577    0.152762
     28          1           0       -2.415056    3.199171   -1.411749
     29          1           0       -1.211221    2.648287   -0.236925
     30          1           0       -2.264746    4.018767    0.151894
     31          6           0       -4.234245   -0.281711    0.153503
     32          6           0       -4.204462   -1.653897   -0.520444
     33          6           0       -5.226299   -2.625345    0.071105
     34          1           0       -4.044669   -0.404888    1.228808
     35          1           0       -5.242976    0.143490    0.060707
     36          1           0       -3.195635   -2.075798   -0.426201
     37          1           0       -4.392668   -1.528027   -1.594387
     38          1           0       -6.241352   -2.229508   -0.036514
     39          1           0       -5.037517   -2.780391    1.138310
     40          1           0       -5.187827   -3.599987   -0.425334
 ---------------------------------------------------------------------

 SCF Done:  E(RHF) =  -470.732593448     A.U. after   11 cycles
 E2 =    -0.1583550075D+01 EUMP2 =    -0.47231614352333D+03

 The electronic state is 1-A.
 Alpha  occ. eigenvalues --  -11.21679 -11.21630 -11.21539 -11.21507 -11.21456
 Alpha  occ. eigenvalues --  -11.21394 -11.21292 -11.21203 -11.21172 -11.21093
 Alpha  occ. eigenvalues --  -11.21026 -11.20975  -1.08489  -1.08327  -1.03608
 Alpha  occ. eigenvalues --   -1.03443  -0.96061  -0.95896  -0.87092  -0.86914
 Alpha  occ. eigenvalues --   -0.79721  -0.79484  -0.78316  -0.78104  -0.65127
 Alpha  occ. eigenvalues --   -0.64964  -0.61092  -0.60788  -0.59417  -0.59261
 Alpha  occ. eigenvalues --   -0.57664  -0.57515  -0.55467  -0.55075  -0.52787
 Alpha  occ. eigenvalues --   -0.52602  -0.52490  -0.52322  -0.50108  -0.49736
 Alpha  occ. eigenvalues --   -0.48063  -0.47786  -0.46756  -0.46454  -0.45951
 Alpha  occ. eigenvalues --   -0.45756  -0.45654  -0.45438  -0.43798  -0.43689
 Alpha virt. eigenvalues --    0.21316   0.22939   0.23754   0.24816   0.25732
 Alpha virt. eigenvalues --    0.26288   0.26855   0.27620   0.27759   0.29407
 Alpha virt. eigenvalues --    0.30374   0.31080   0.31775   0.31978   0.32393

 Mulliken charges:
               1
     1  C   -0.298731
     2  C   -0.300710
     3  C   -0.481826
     4  H    0.150063
     5  H    0.149700
     6  H    0.152418
     7  H    0.152204
     8  H    0.155645
     9  H    0.160191
    10  H    0.160783
    11  C   -0.298391
    12  C   -0.299689
    13  C   -0.475746
    14  H    0.149687
    15  H    0.149725
    16  H    0.152099
    17  H    0.151996
    18  H    0.155202
    19  H    0.155256
    20  H    0.160388
    21  C   -0.309612
    22  C   -0.298443
    23  C   -0.480989
    24  H    0.165386
    25  H    0.148283
    26  H    0.150856
    27  H    0.151449
    28  H    0.154605
    29  H    0.160110
    30  H    0.159586
    31  C   -0.297511
    32  C   -0.299620
    33  C   -0.475609
    34  H    0.148680
    35  H    0.149118
    36  H    0.151673
    37  H    0.151767
    38  H    0.155108
    39  H    0.154994
    40  H    0.159904
 Sum of Mulliken charges =  -0.00000

 Dipole moment (field-independent basis, Debye):
    X=              0.0810    Y=             -0.0197    Z=             -0.0020  Tot=              0.0834
 Quadrupole moment (field-independent basis, Debye-Ang):
   XX=            -86.2137   YY=            -84.4446   ZZ=            -84.4961
   XY=             -0.6022   XZ=              0.4584   YZ=             -0.0353

 Normal termination of Gaussian 16 at Thu May  6 05:25:59 2021.
