 Gaussian 16, Revision A.03,
 Gaussian 16:  EM64L-G16RevA.03 25-Dec-2016

 -------------
 #p 6-31g* mp2
 -------------

 ------------------------------------------------------
 Input file generated by CHIRIPA (05-May-2021 14:55:23)
 ------------------------------------------------------
 Symbolic Z-matrix:
 Charge =  0 Multiplicity = 1

                         Standard orientation:
 ---------------------------------------------------------------------
 Center     Atomic      Atomic             Coordinates (Angstroms)
 Number     Number       Type             X           Y           Z
 ---------------------------------------------------------------------
      1          6           0       -1.441932    1.377896    1.522795
      2          6           0       -0.955742    0.455680    0.590240
      3          6           0       -1.838144   -0.315116   -0.172510
      4          6           0       -3.206724   -0.137137    0.023970
      5          6           0       -3.721927    0.773445    0.945216
      6          6           0       -2.821041    1.533561    1.696999
      7          1           0       -0.749282    1.972521    2.111057
      8          1           0        0.114787    0.332672    0.452831
      9          1           0       -1.488930   -1.036339   -0.901417
     10          1           0       -4.794406    0.873762    1.059860
     11          1           0       -3.201472    2.249003    2.420505
     12          7           0       -4.150667   -0.947491   -0.777714
     13          8           0       -5.351893   -0.771861   -0.585760
     14          8           0       -3.671430   -1.742933   -1.582848
     15          6           0        3.435648    0.479595   -0.570022
     16          6           0        3.946954    1.919673   -0.622234
     17          6           0        2.996142    2.857967   -1.366112
     18          1           0        3.284264    0.113601   -1.594754
     19          1           0        2.450181    0.465159   -0.084179
     20          1           0        4.931780    1.931214   -1.106592
     21          1           0        4.097321    2.282216    0.402738
     22          1           0        2.014929    2.876143   -0.880838
     23          1           0        2.854129    2.523147   -2.398744
     24          1           0        3.381114    3.882181   -1.391460
     25          6           0        4.375297   -0.470427    0.170413
     26          6           0        3.863990   -1.910505    0.222625
     27          6           0        4.814802   -2.848799    0.966502
     28          1           0        5.360764   -0.455991   -0.315430
     29          1           0        4.526682   -0.104433    1.195145
     30          1           0        3.713624   -2.273049   -0.802347
     31          1           0        2.879165   -1.922046    0.706982
     32          1           0        4.956816   -2.513979    1.999134
     33          1           0        5.796017   -2.866976    0.481229
     34          1           0        4.429831   -3.873013    0.991851
 ---------------------------------------------------------------------

 SCF Done:  E(RHF) =  -669.535535515     A.U. after   15 cycles
 E2 =    -0.2091282852D+01 EUMP2 =    -0.67162681836732D+03

 The electronic state is 1-A.
 Alpha  occ. eigenvalues --  -20.60739 -20.60733 -15.85792 -11.31158 -11.27731
 Alpha  occ. eigenvalues --  -11.27720 -11.27479 -11.26749 -11.26720 -11.22411
 Alpha  occ. eigenvalues --  -11.22347 -11.22275 -11.22117 -11.21811 -11.21581
 Alpha  occ. eigenvalues --   -1.59814  -1.39367  -1.19332  -1.09229  -1.08729
 Alpha  occ. eigenvalues --   -1.04735  -1.04238  -0.96689  -0.95563  -0.87699
 Alpha  occ. eigenvalues --   -0.86138  -0.82395  -0.80307  -0.79064  -0.77438
 Alpha  occ. eigenvalues --   -0.72011  -0.71137  -0.70445  -0.65905  -0.64985
 Alpha  occ. eigenvalues --   -0.64725  -0.62095  -0.61624  -0.60054  -0.58299
 Alpha  occ. eigenvalues --   -0.55990  -0.55242  -0.53346  -0.53135  -0.53065
 Alpha  occ. eigenvalues --   -0.52817  -0.50628  -0.48779  -0.48765  -0.48610
 Alpha  occ. eigenvalues --   -0.47350  -0.46572  -0.46507  -0.44773  -0.44521
 Alpha  occ. eigenvalues --   -0.37318  -0.36336
 Alpha virt. eigenvalues --    0.05094   0.11285   0.16580   0.19029   0.22716
 Alpha virt. eigenvalues --    0.23684   0.24467   0.26370   0.27227   0.28298
 Alpha virt. eigenvalues --    0.29160   0.30748   0.31152   0.31265   0.31636

 Mulliken charges:
               1
     1  C   -0.173954
     2  C   -0.227740
     3  C   -0.173911
     4  C    0.158956
     5  C   -0.171175
     6  C   -0.218485
     7  H    0.225520
     8  H    0.237317
     9  H    0.276543
    10  H    0.275516
    11  H    0.223296
    12  N    0.488060
    13  O   -0.460640
    14  O   -0.460334
    15  C   -0.304827
    16  C   -0.299926
    17  C   -0.475876
    18  H    0.153845
    19  H    0.141998
    20  H    0.156132
    21  H    0.151278
    22  H    0.150293
    23  H    0.158600
    24  H    0.163280
    25  C   -0.297984
    26  C   -0.300138
    27  C   -0.476127
    28  H    0.153358
    29  H    0.149678
    30  H    0.154395
    31  H    0.147500
    32  H    0.155473
    33  H    0.157043
    34  H    0.163036
 Sum of Mulliken charges =  -0.00000

 Dipole moment (field-independent basis, Debye):
    X=              3.5395    Y=              2.8387    Z=              2.7620  Tot=              5.3118
 Quadrupole moment (field-independent basis, Debye-Ang):
   XX=           -112.5121   YY=            -95.4966   ZZ=            -93.5679
   XY=            -11.3663   XZ=            -12.0358   YZ=              1.4218

 Normal termination of Gaussian 16 at Thu May  6 12:37:29 2021.
