 Gaussian 16, Revision A.03,
 Gaussian 16:  EM64L-G16RevA.03 25-Dec-2016

 -------------
 #p 6-31g* mp2
 -------------

 ------------------------------------------------------
 Input file generated by CHIRIPA (05-May-2021 14:55:19)
 ------------------------------------------------------
 Symbolic Z-matrix:
 Charge =  0 Multiplicity = 1

                         Standard orientation:
 ---------------------------------------------------------------------
 Center     Atomic      Atomic             Coordinates (Angstroms)
 Number     Number       Type             X           Y           Z
 ---------------------------------------------------------------------
      1          6           0       -4.715137    1.028619    0.344876
      2          6           0       -3.517451    1.354644    0.989684
      3          6           0       -2.389275    0.541649    0.845437
      4          6           0       -2.494661   -0.594956    0.045241
      5          6           0       -3.673772   -0.946472   -0.610064
      6          6           0       -4.789344   -0.118876   -0.451535
      7          1           0       -5.586635    1.665844    0.462478
      8          1           0       -3.456911    2.245186    1.608808
      9          1           0       -1.449560    0.770497    1.333271
     10          1           0       -3.703469   -1.840710   -1.220697
     11          1           0       -5.718172   -0.374539   -0.953491
     12          7           0       -1.306983   -1.463367   -0.115026
     13          8           0       -1.425707   -2.459228   -0.825520
     14          8           0       -0.279847   -1.131722    0.472886
     15          6           0        4.066762    0.202135    0.140042
     16          6           0        3.925688   -1.317757    0.050531
     17          6           0        5.180264   -2.056428    0.517647
     18          1           0        4.927559    0.520303   -0.463898
     19          1           0        4.292891    0.481888    1.178309
     20          1           0        3.698525   -1.594449   -0.986992
     21          1           0        3.065011   -1.632326    0.654601
     22          1           0        5.407234   -1.809331    1.559774
     23          1           0        6.044347   -1.771239   -0.091147
     24          1           0        5.057571   -3.141586    0.445259
     25          6           0        2.820674    0.954555   -0.323480
     26          6           0        2.961748    2.474447   -0.233969
     27          6           0        1.707172    3.213118   -0.701084
     28          1           0        2.594545    0.674801   -1.361747
     29          1           0        1.959877    0.636386    0.280459
     30          1           0        3.822424    2.789015   -0.838038
     31          1           0        3.188911    2.751139    0.803555
     32          1           0        0.843089    2.927929   -0.092291
     33          1           0        1.480202    2.966020   -1.743211
     34          1           0        1.829865    4.298276   -0.628697
 ---------------------------------------------------------------------

 SCF Done:  E(RHF) =  -669.536158713     A.U. after   15 cycles
 E2 =    -0.2091584706D+01 EUMP2 =    -0.67162774341931D+03

 The electronic state is 1-A.
 Alpha  occ. eigenvalues --  -20.60954 -20.60944 -15.85982 -11.31296 -11.27864
 Alpha  occ. eigenvalues --  -11.27852 -11.27589 -11.26864 -11.26854 -11.20997
 Alpha  occ. eigenvalues --  -11.20772 -11.20408 -11.20308 -11.20277 -11.20088
 Alpha  occ. eigenvalues --   -1.60006  -1.39565  -1.19462  -1.08866  -1.07486
 Alpha  occ. eigenvalues --   -1.04858  -1.02696  -0.95712  -0.95176  -0.86259
 Alpha  occ. eigenvalues --   -0.86207  -0.82550  -0.78744  -0.77622  -0.77201
 Alpha  occ. eigenvalues --   -0.72208  -0.71317  -0.70572  -0.65122  -0.64862
 Alpha  occ. eigenvalues --   -0.64119  -0.62209  -0.60107  -0.58563  -0.56754
 Alpha  occ. eigenvalues --   -0.55362  -0.54485  -0.53187  -0.52951  -0.51917
 Alpha  occ. eigenvalues --   -0.51603  -0.49173  -0.48964  -0.48951  -0.47065
 Alpha  occ. eigenvalues --   -0.45774  -0.45136  -0.44760  -0.44472  -0.42906
 Alpha  occ. eigenvalues --   -0.37437  -0.36457
 Alpha virt. eigenvalues --    0.04905   0.11181   0.16392   0.20901   0.23447
 Alpha virt. eigenvalues --    0.24764   0.26396   0.27499   0.27938   0.28780
 Alpha virt. eigenvalues --    0.29195   0.30890   0.31598   0.32341   0.32724

 Mulliken charges:
               1
     1  C   -0.170563
     2  C   -0.218334
     3  C   -0.170874
     4  C    0.158319
     5  C   -0.170779
     6  C   -0.218475
     7  H    0.226072
     8  H    0.224015
     9  H    0.275361
    10  H    0.275828
    11  H    0.223846
    12  N    0.492150
    13  O   -0.458848
    14  O   -0.463933
    15  C   -0.297847
    16  C   -0.302135
    17  C   -0.475578
    18  H    0.144535
    19  H    0.145182
    20  H    0.152373
    21  H    0.168588
    22  H    0.151723
    23  H    0.150839
    24  H    0.159945
    25  C   -0.305359
    26  C   -0.299072
    27  C   -0.472878
    28  H    0.148473
    29  H    0.169092
    30  H    0.149904
    31  H    0.148552
    32  H    0.147497
    33  H    0.155634
    34  H    0.156748
 Sum of Mulliken charges =  -0.00000

 Dipole moment (field-independent basis, Debye):
    X=             -4.4569    Y=              2.8705    Z=              0.5686  Tot=              5.3317
 Quadrupole moment (field-independent basis, Debye-Ang):
   XX=            -74.5465   YY=            -98.0020   ZZ=            -92.7446
   XY=             -3.1786   XZ=             -0.3989   YZ=              2.2163

 Normal termination of Gaussian 16 at Wed May  5 18:52:39 2021.
