 Gaussian 16, Revision A.03,
 Gaussian 16:  EM64L-G16RevA.03 25-Dec-2016

 -------------
 #p 6-31g* mp2
 -------------

 ------------------------------------------------------
 Input file generated by CHIRIPA (05-May-2021 14:53:11)
 ------------------------------------------------------
 Symbolic Z-matrix:
 Charge =  0 Multiplicity = 1

                         Standard orientation:
 ---------------------------------------------------------------------
 Center     Atomic      Atomic             Coordinates (Angstroms)
 Number     Number       Type             X           Y           Z
 ---------------------------------------------------------------------
      1          6           0       -4.736090    0.247389   -0.102309
      2          6           0       -6.069679   -0.167402   -0.724784
      3          6           0       -6.856778    1.019367   -1.281423
      4          1           0       -4.923512    0.973773    0.700303
      5          1           0       -4.131939    0.766716   -0.859076
      6          1           0       -6.670573   -0.687012    0.032545
      7          1           0       -5.879075   -0.893027   -1.525880
      8          1           0       -6.279963    1.534902   -2.056090
      9          1           0       -7.075959    1.742088   -0.488810
     10          1           0       -7.806613    0.700165   -1.721632
     11          6           0       -3.937684   -0.928060    0.458577
     12          6           0       -2.604095   -0.513269    1.081052
     13          6           0       -1.816996   -1.700038    1.637691
     14          1           0       -4.541835   -1.447387    1.215344
     15          1           0       -3.750262   -1.654443   -0.344035
     16          1           0       -2.794699    0.212356    1.882147
     17          1           0       -2.003201    0.006341    0.323723
     18          1           0       -1.597815   -2.422759    0.845078
     19          1           0       -2.393811   -2.215573    2.412357
     20          1           0       -0.867161   -1.380836    2.077900
     21          6           0        1.891576    2.184931    0.526666
     22          6           0        3.278625    2.360716    0.485190
     23          6           0        4.117507    1.304420    0.117681
     24          6           0        3.532881    0.080360   -0.203538
     25          6           0        2.154591   -0.126020   -0.171662
     26          6           0        1.334968    0.944311    0.198686
     27          1           0        1.247394    3.010939    0.813258
     28          1           0        3.713675    3.323088    0.739389
     29          1           0        5.194543    1.412940    0.077235
     30          1           0        1.750211   -1.097055   -0.430475
     31          1           0        0.258108    0.804905    0.230023
     32          7           0        4.410773   -1.045322   -0.594105
     33          8           0        3.870980   -2.113844   -0.872527
     34          8           0        5.622035   -0.837794   -0.614415
 ---------------------------------------------------------------------

 SCF Done:  E(RHF) =  -669.535640507     A.U. after   15 cycles
 E2 =    -0.2091231409D+01 EUMP2 =    -0.67162687191643D+03

 The electronic state is 1-A.
 Alpha  occ. eigenvalues --  -20.60728 -20.60723 -15.85781 -11.31140 -11.27714
 Alpha  occ. eigenvalues --  -11.27698 -11.27447 -11.26729 -11.26679 -11.22589
 Alpha  occ. eigenvalues --  -11.22092 -11.22075 -11.21978 -11.21849 -11.21487
 Alpha  occ. eigenvalues --   -1.59804  -1.39357  -1.19312  -1.09113  -1.08708
 Alpha  occ. eigenvalues --   -1.04715  -1.04203  -0.96618  -0.95544  -0.87630
 Alpha  occ. eigenvalues --   -0.86113  -0.82377  -0.80294  -0.78915  -0.77423
 Alpha  occ. eigenvalues --   -0.71999  -0.71127  -0.70421  -0.65768  -0.64962
 Alpha  occ. eigenvalues --   -0.64721  -0.62141  -0.61538  -0.59991  -0.58233
 Alpha  occ. eigenvalues --   -0.55890  -0.55210  -0.53326  -0.53080  -0.52995
 Alpha  occ. eigenvalues --   -0.52807  -0.50551  -0.48772  -0.48755  -0.48576
 Alpha  occ. eigenvalues --   -0.47323  -0.46445  -0.46358  -0.44764  -0.44443
 Alpha  occ. eigenvalues --   -0.37295  -0.36315
 Alpha virt. eigenvalues --    0.05100   0.11326   0.16553   0.19606   0.22558
 Alpha virt. eigenvalues --    0.23716   0.25348   0.26376   0.26915   0.28359
 Alpha virt. eigenvalues --    0.29009   0.29972   0.30960   0.31253   0.32087

 Mulliken charges:
               1
     1  C   -0.298818
     2  C   -0.300246
     3  C   -0.476092
     4  H    0.149629
     5  H    0.148013
     6  H    0.153324
     7  H    0.153526
     8  H    0.155226
     9  H    0.155234
    10  H    0.162182
    11  C   -0.297642
    12  C   -0.305354
    13  C   -0.479722
    14  H    0.153007
    15  H    0.152364
    16  H    0.153625
    17  H    0.143126
    18  H    0.158140
    19  H    0.161047
    20  H    0.160367
    21  C   -0.173133
    22  C   -0.218485
    23  C   -0.171184
    24  C    0.158754
    25  C   -0.174177
    26  C   -0.227371
    27  H    0.226174
    28  H    0.223175
    29  H    0.275426
    30  H    0.276052
    31  H    0.236858
    32  N    0.488125
    33  O   -0.460445
    34  O   -0.460704
 Sum of Mulliken charges =  -0.00000

 Dipole moment (field-independent basis, Debye):
    X=             -3.2999    Y=              3.8940    Z=              1.4154  Tot=              5.2968
 Quadrupole moment (field-independent basis, Debye-Ang):
   XX=           -113.0978   YY=            -93.2124   ZZ=            -95.3717
   XY=             17.2953   XZ=              5.2731   YZ=              0.0868

 Normal termination of Gaussian 16 at Thu May  6 05:40:57 2021.
