 Gaussian 16, Revision A.03,
 Gaussian 16:  EM64L-G16RevA.03 25-Dec-2016

 -------------
 #p 6-31g* mp2
 -------------

 ------------------------------------------------------
 Input file generated by CHIRIPA (05-May-2021 14:57:22)
 ------------------------------------------------------
 Symbolic Z-matrix:
 Charge =  0 Multiplicity = 1

                         Standard orientation:
 ---------------------------------------------------------------------
 Center     Atomic      Atomic             Coordinates (Angstroms)
 Number     Number       Type             X           Y           Z
 ---------------------------------------------------------------------
      1          6           0       -5.479608   -0.110407    0.229951
      2          6           0       -4.837698   -0.968762   -0.668769
      3          6           0       -3.442404   -0.994463   -0.752687
      4          6           0       -2.716845   -0.144610    0.080742
      5          6           0       -3.327238    0.721782    0.986322
      6          6           0       -4.723662    0.730643    1.053177
      7          1           0       -6.563945   -0.096983    0.288512
      8          1           0       -5.422222   -1.623033   -1.309321
      9          1           0       -2.919730   -1.649099   -1.439479
     10          1           0       -2.717648    1.362400    1.611964
     11          1           0       -5.219481    1.398289    1.752075
     12          7           0       -1.239112   -0.162904    0.000935
     13          8           0       -0.622611    0.595604    0.746071
     14          8           0       -0.725347   -0.935405   -0.805244
     15          6           0        3.844340   -2.058188    0.769540
     16          6           0        3.983138   -0.897832    1.538195
     17          6           0        3.497162    0.326485    1.069769
     18          6           0        2.874937    0.354262   -0.177369
     19          6           0        2.721473   -0.784517   -0.966624
     20          6           0        3.215060   -1.997932   -0.478217
     21          1           0        4.224814   -3.005033    1.141186
     22          1           0        4.471407   -0.941643    2.507587
     23          1           0        3.591224    1.240070    1.644168
     24          1           0        2.230120   -0.709407   -1.929095
     25          1           0        3.105863   -2.897479   -1.077331
     26          7           0        2.356427    1.644621   -0.683848
     27          8           0        1.812149    1.642551   -1.785844
     28          8           0        2.504116    2.633641    0.030759
 ---------------------------------------------------------------------

 SCF Done:  E(RHF) =  -868.339345110     A.U. after   16 cycles
 E2 =    -0.2601198783D+01 EUMP2 =    -0.87094054389311D+03

 The electronic state is 1-A.
 Alpha  occ. eigenvalues --  -20.60881 -20.60843 -20.59067 -20.59060 -15.85872
 Alpha  occ. eigenvalues --  -15.84127 -11.31131 -11.29394 -11.27709 -11.27664
 Alpha  occ. eigenvalues --  -11.27431 -11.26702 -11.26673 -11.26112 -11.25982
 Alpha  occ. eigenvalues --  -11.25943 -11.25175 -11.25086  -1.59896  -1.58110
 Alpha  occ. eigenvalues --   -1.39459  -1.37683  -1.19295  -1.17631  -1.08716
 Alpha  occ. eigenvalues --   -1.07066  -1.04686  -1.03073  -0.95572  -0.93911
 Alpha  occ. eigenvalues --   -0.86090  -0.84488  -0.82411  -0.80780  -0.77461
 Alpha  occ. eigenvalues --   -0.75790  -0.72138  -0.71188  -0.70414  -0.70397
 Alpha  occ. eigenvalues --   -0.69334  -0.68850  -0.64957  -0.64696  -0.63343
 Alpha  occ. eigenvalues --   -0.63153  -0.62035  -0.60448  -0.55208  -0.53686
 Alpha  occ. eigenvalues --   -0.53015  -0.52783  -0.51429  -0.51227  -0.48871
 Alpha  occ. eigenvalues --   -0.48809  -0.47138  -0.47116  -0.44873  -0.43130
 Alpha  occ. eigenvalues --   -0.37270  -0.36281  -0.35614  -0.34615
 Alpha virt. eigenvalues --    0.05076   0.06837   0.11376   0.13028   0.16584
 Alpha virt. eigenvalues --    0.18250   0.21495   0.22835   0.27408   0.28376
 Alpha virt. eigenvalues --    0.28724   0.29756   0.31049   0.32297   0.32621

 Mulliken charges:
               1
     1  C   -0.170411
     2  C   -0.218642
     3  C   -0.170152
     4  C    0.159658
     5  C   -0.169521
     6  C   -0.218677
     7  H    0.225535
     8  H    0.222886
     9  H    0.273884
    10  H    0.277931
    11  H    0.224004
    12  N    0.492680
    13  O   -0.460002
    14  O   -0.465041
    15  C   -0.171830
    16  C   -0.220880
    17  C   -0.168781
    18  C    0.167884
    19  C   -0.148616
    20  C   -0.221163
    21  H    0.217930
    22  H    0.215755
    23  H    0.270432
    24  H    0.275649
    25  H    0.216914
    26  N    0.495162
    27  O   -0.464971
    28  O   -0.467616
 Sum of Mulliken charges =  -0.00000

 Dipole moment (field-independent basis, Debye):
    X=             -3.8246    Y=             -4.3620    Z=              1.9726  Tot=              6.1274
 Quadrupole moment (field-independent basis, Debye-Ang):
   XX=            -68.3087   YY=           -106.2221   ZZ=           -100.3416
   XY=            -10.7662   XZ=              4.8794   YZ=              6.7770

 Normal termination of Gaussian 16 at Fri May  7 00:12:15 2021.
