 Gaussian 16, Revision A.03,
 Gaussian 16:  EM64L-G16RevA.03 25-Dec-2016

 -------------
 #p 6-31g* mp2
 -------------

 ------------------------------------------------------
 Input file generated by CHIRIPA (05-May-2021 14:53:18)
 ------------------------------------------------------
 Symbolic Z-matrix:
 Charge =  0 Multiplicity = 1

                         Standard orientation:
 ---------------------------------------------------------------------
 Center     Atomic      Atomic             Coordinates (Angstroms)
 Number     Number       Type             X           Y           Z
 ---------------------------------------------------------------------
      1          6           0        2.868415    0.561502   -0.302482
      2          6           0        2.377717    2.008605   -0.246881
      3          6           0        0.859232    2.123593   -0.383894
      4          1           0        2.549120    0.108954   -1.251269
      5          1           0        2.382513   -0.014093    0.497509
      6          1           0        2.865449    2.581620   -1.045873
      7          1           0        2.698382    2.457820    0.701800
      8          1           0        0.357304    1.576369    0.420603
      9          1           0        0.525320    1.700873   -1.337000
     10          1           0        0.530141    3.166550   -0.341472
     11          6           0        4.384364    0.430216   -0.166867
     12          6           0        4.875062   -1.016888   -0.222468
     13          6           0        6.393548   -1.131875   -0.085456
     14          1           0        4.870266    1.005810   -0.966858
     15          1           0        4.703659    0.882764    0.781920
     16          1           0        4.554397   -1.466102   -1.171150
     17          1           0        4.387330   -1.589902    0.576524
     18          1           0        6.727459   -0.709155    0.867650
     19          1           0        6.895475   -0.584652   -0.889953
     20          1           0        6.722638   -2.174833   -0.127877
     21          6           0       -0.623699   -0.884528    1.295656
     22          6           0       -0.933956   -1.468531    0.063097
     23          6           0       -2.155163   -1.200227   -0.562377
     24          6           0       -3.046715   -0.339328    0.075805
     25          6           0       -2.766603    0.257936    1.303854
     26          6           0       -1.539398   -0.024675    1.911016
     27          1           0        0.327294   -1.098511    1.774427
     28          1           0       -0.224734   -2.136693   -0.417120
     29          1           0       -2.420947   -1.638747   -1.516566
     30          1           0       -3.493844    0.919895    1.758111
     31          1           0       -1.301131    0.430294    2.868239
     32          7           0       -4.342727   -0.047714   -0.576663
     33          8           0       -5.111088    0.714199    0.006215
     34          8           0       -4.565641   -0.586582   -1.658591
 ---------------------------------------------------------------------

 SCF Done:  E(RHF) =  -669.534019433     A.U. after   15 cycles
 E2 =    -0.2093897927D+01 EUMP2 =    -0.67162791735976D+03

 The electronic state is 1-A.
 Alpha  occ. eigenvalues --  -20.60779 -20.60774 -15.85834 -11.31220 -11.27802
 Alpha  occ. eigenvalues --  -11.27794 -11.27518 -11.26795 -11.26779 -11.22288
 Alpha  occ. eigenvalues --  -11.22152 -11.22059 -11.22007 -11.21626 -11.21202
 Alpha  occ. eigenvalues --   -1.59854  -1.39407  -1.19404  -1.09068  -1.08792
 Alpha  occ. eigenvalues --   -1.04803  -1.04053  -0.96488  -0.95628  -0.87503
 Alpha  occ. eigenvalues --   -0.86201  -0.82455  -0.80128  -0.78906  -0.77491
 Alpha  occ. eigenvalues --   -0.72052  -0.71176  -0.70528  -0.65702  -0.65054
 Alpha  occ. eigenvalues --   -0.64800  -0.62146  -0.61472  -0.59873  -0.58139
 Alpha  occ. eigenvalues --   -0.55850  -0.55307  -0.53480  -0.53143  -0.52892
 Alpha  occ. eigenvalues --   -0.52610  -0.50410  -0.48812  -0.48805  -0.48390
 Alpha  occ. eigenvalues --   -0.47173  -0.46407  -0.46373  -0.44808  -0.44339
 Alpha  occ. eigenvalues --   -0.37249  -0.36391
 Alpha virt. eigenvalues --    0.05005   0.11150   0.16397   0.20113   0.22700
 Alpha virt. eigenvalues --    0.24022   0.25207   0.26207   0.27306   0.27805
 Alpha virt. eigenvalues --    0.29477   0.30594   0.31190   0.31466   0.31803

 Mulliken charges:
               1
     1  C   -0.297537
     2  C   -0.300111
     3  C   -0.481427
     4  H    0.149781
     5  H    0.138216
     6  H    0.154121
     7  H    0.150163
     8  H    0.161545
     9  H    0.155664
    10  H    0.160442
    11  C   -0.298314
    12  C   -0.299297
    13  C   -0.475870
    14  H    0.152838
    15  H    0.150086
    16  H    0.151968
    17  H    0.146775
    18  H    0.155896
    19  H    0.157293
    20  H    0.161221
    21  C   -0.172139
    22  C   -0.214546
    23  C   -0.171157
    24  C    0.159269
    25  C   -0.168986
    26  C   -0.220472
    27  H    0.226920
    28  H    0.224600
    29  H    0.275776
    30  H    0.275984
    31  H    0.223893
    32  N    0.488073
    33  O   -0.460263
    34  O   -0.460408
 Sum of Mulliken charges =  -0.00000

 Dipole moment (field-independent basis, Debye):
    X=              4.5561    Y=             -1.0246    Z=              2.2619  Tot=              5.1888
 Quadrupole moment (field-independent basis, Debye-Ang):
   XX=           -123.7794   YY=            -92.9301   ZZ=            -90.7360
   XY=              1.0371   XZ=             -8.1618   YZ=              1.7338

 Normal termination of Gaussian 16 at Thu May  6 19:01:24 2021.
