 Gaussian 16, Revision A.03,
 Gaussian 16:  EM64L-G16RevA.03 25-Dec-2016

 -------------
 #p 6-31g* mp2
 -------------

 ------------------------------------------------------
 Input file generated by CHIRIPA (05-May-2021 14:53:16)
 ------------------------------------------------------
 Symbolic Z-matrix:
 Charge =  0 Multiplicity = 1

                         Standard orientation:
 ---------------------------------------------------------------------
 Center     Atomic      Atomic             Coordinates (Angstroms)
 Number     Number       Type             X           Y           Z
 ---------------------------------------------------------------------
      1          6           0        4.571503   -0.627193   -0.142855
      2          6           0        5.531270    0.552097    0.018725
      3          6           0        6.998240    0.143477   -0.118478
      4          1           0        4.812023   -1.392922    0.607315
      5          1           0        4.733560   -1.090815   -1.125803
      6          1           0        5.366496    1.014210    1.000517
      7          1           0        5.288314    1.315190   -0.731793
      8          1           0        7.184696   -0.298126   -1.102765
      9          1           0        7.263322   -0.600816    0.639388
     10          1           0        7.666872    1.001756    0.000468
     11          6           0        3.101304   -0.234592   -0.008290
     12          6           0        2.141537   -1.413882   -0.169870
     13          6           0        0.674567   -1.005262   -0.032668
     14          1           0        2.939247    0.229030    0.974658
     15          1           0        2.860784    0.531136   -0.758460
     16          1           0        2.384493   -2.176975    0.580647
     17          1           0        2.306311   -1.875995   -1.151663
     18          1           0        0.409485   -0.260969   -0.790533
     19          1           0        0.488111   -0.563659    0.951619
     20          1           0        0.005935   -1.863541   -0.151613
     21          6           0       -1.629047    2.448380    0.245150
     22          6           0       -1.681762    1.551689    1.317384
     23          6           0       -2.436591    0.378522    1.225401
     24          6           0       -3.129457    0.132480    0.041049
     25          6           0       -3.096791    1.006305   -1.044609
     26          6           0       -2.335484    2.173311   -0.930352
     27          1           0       -1.040161    3.357332    0.325256
     28          1           0       -1.134148    1.762720    2.231512
     29          1           0       -2.494920   -0.332936    2.040167
     30          1           0       -3.653375    0.768636   -1.943021
     31          1           0       -2.296381    2.867885   -1.764668
     32          7           0       -3.931990   -1.106239   -0.068120
     33          8           0       -4.533376   -1.299954   -1.122371
     34          8           0       -3.944433   -1.859978    0.902633
 ---------------------------------------------------------------------

 SCF Done:  E(RHF) =  -669.534737600     A.U. after   15 cycles
 E2 =    -0.2092788185D+01 EUMP2 =    -0.67162752578542D+03

 The electronic state is 1-A.
 Alpha  occ. eigenvalues --  -20.60748 -20.60743 -15.85801 -11.31151 -11.27736
 Alpha  occ. eigenvalues --  -11.27717 -11.27475 -11.26757 -11.26723 -11.21870
 Alpha  occ. eigenvalues --  -11.21715 -11.21652 -11.21588 -11.21292 -11.21098
 Alpha  occ. eigenvalues --   -1.59823  -1.39377  -1.19336  -1.08732  -1.08649
 Alpha  occ. eigenvalues --   -1.04750  -1.03708  -0.96162  -0.95566  -0.87181
 Alpha  occ. eigenvalues --   -0.86142  -0.82406  -0.79783  -0.78476  -0.77451
 Alpha  occ. eigenvalues --   -0.72021  -0.71144  -0.70449  -0.65285  -0.64994
 Alpha  occ. eigenvalues --   -0.64754  -0.62100  -0.61111  -0.59529  -0.57792
 Alpha  occ. eigenvalues --   -0.55460  -0.55246  -0.53488  -0.52848  -0.52779
 Alpha  occ. eigenvalues --   -0.52231  -0.50120  -0.48779  -0.48775  -0.48059
 Alpha  occ. eigenvalues --   -0.46827  -0.46000  -0.45949  -0.44785  -0.43978
 Alpha  occ. eigenvalues --   -0.37299  -0.36254
 Alpha virt. eigenvalues --    0.05082   0.11284   0.16508   0.21241   0.22666
 Alpha virt. eigenvalues --    0.24102   0.26277   0.26908   0.27376   0.27980
 Alpha virt. eigenvalues --    0.28436   0.30661   0.31346   0.31697   0.31982

 Mulliken charges:
               1
     1  C   -0.298244
     2  C   -0.299421
     3  C   -0.475756
     4  H    0.150634
     5  H    0.150737
     6  H    0.150472
     7  H    0.150733
     8  H    0.155955
     9  H    0.155898
    10  H    0.160116
    11  C   -0.297061
    12  C   -0.301163
    13  C   -0.474811
    14  H    0.145420
    15  H    0.147349
    16  H    0.152652
    17  H    0.153045
    18  H    0.155644
    19  H    0.149078
    20  H    0.164036
    21  C   -0.170486
    22  C   -0.216006
    23  C   -0.167151
    24  C    0.160384
    25  C   -0.171433
    26  C   -0.219330
    27  H    0.225533
    28  H    0.222785
    29  H    0.275362
    30  H    0.275455
    31  H    0.223197
    32  N    0.487722
    33  O   -0.460667
    34  O   -0.460676
 Sum of Mulliken charges =  -0.00000

 Dipole moment (field-independent basis, Debye):
    X=              2.7950    Y=              4.3469    Z=              0.3747  Tot=              5.1816
 Quadrupole moment (field-independent basis, Debye-Ang):
   XX=           -114.1921   YY=            -93.8751   ZZ=            -89.5356
   XY=            -13.7121   XZ=              0.4154   YZ=             -1.3223

 Normal termination of Gaussian 16 at Wed May  5 17:11:11 2021.
