 Gaussian 16, Revision A.03,
 Gaussian 16:  EM64L-G16RevA.03 25-Dec-2016

 -------------
 #p 6-31g* mp2
 -------------

 ------------------------------------------------------
 Input file generated by CHIRIPA (05-May-2021 14:51:10)
 ------------------------------------------------------
 Symbolic Z-matrix:
 Charge =  0 Multiplicity = 1

                         Standard orientation:
 ---------------------------------------------------------------------
 Center     Atomic      Atomic             Coordinates (Angstroms)
 Number     Number       Type             X           Y           Z
 ---------------------------------------------------------------------
      1          6           0       -2.134187   -1.225796   -0.072733
      2          6           0       -1.810769   -2.103611    1.136740
      3          6           0       -0.689753   -3.105158    0.857419
      4          1           0       -2.416272   -1.867554   -0.918617
      5          1           0       -1.227066   -0.686351   -0.378552
      6          1           0       -2.718570   -2.640186    1.441041
      7          1           0       -1.529606   -1.459679    1.979899
      8          1           0        0.230865   -2.584146    0.575266
      9          1           0       -0.964855   -3.771360    0.033347
     10          1           0       -0.474845   -3.722346    1.735345
     11          6           0       -3.252876   -0.219441    0.190921
     12          6           0       -3.576294    0.658375   -1.018553
     13          6           0       -4.697310    1.659922   -0.739232
     14          1           0       -4.159997   -0.758885    0.496740
     15          1           0       -2.970791    0.422318    1.036804
     16          1           0       -3.857457    0.014443   -1.861711
     17          1           0       -2.668493    1.194950   -1.322853
     18          1           0       -4.422208    2.326124    0.084840
     19          1           0       -5.617928    1.138910   -0.457079
     20          1           0       -4.912218    2.277110   -1.617158
     21          6           0        3.294188    0.283098   -0.230750
     22          6           0        2.910952   -1.150611   -0.598979
     23          6           0        4.123356   -2.017607   -0.939843
     24          1           0        3.846211    0.734481   -1.066496
     25          1           0        3.983689    0.262759    0.624569
     26          1           0        2.221293   -1.127505   -1.452473
     27          1           0        2.359611   -1.598568    0.237666
     28          1           0        4.810564   -2.070422   -0.089223
     29          1           0        4.671460   -1.596683   -1.788964
     30          1           0        3.826512   -3.038406   -1.200060
     31          6           0        2.092875    1.162138    0.112563
     32          6           0        2.476111    2.595847    0.480791
     33          6           0        1.263707    3.462843    0.821656
     34          1           0        1.403374    1.182478   -0.742757
     35          1           0        1.540853    0.710755    0.948308
     36          1           0        3.027452    3.043804   -0.355852
     37          1           0        3.165770    2.572742    1.334286
     38          1           0        0.715603    3.041920    1.670777
     39          1           0        0.576498    3.515659   -0.028965
     40          1           0        1.560550    4.483642    1.081872
 ---------------------------------------------------------------------

 SCF Done:  E(RHF) =  -470.733383013     A.U. after   11 cycles
 E2 =    -0.1583306156D+01 EUMP2 =    -0.47231668916888D+03

 The electronic state is 1-A.
 Alpha  occ. eigenvalues --  -11.21675 -11.21651 -11.21572 -11.21555 -11.21490
 Alpha  occ. eigenvalues --  -11.21422 -11.21351 -11.21288 -11.21141 -11.21099
 Alpha  occ. eigenvalues --  -11.21043 -11.20981  -1.08506  -1.08379  -1.03595
 Alpha  occ. eigenvalues --   -1.03482  -0.96040  -0.95931  -0.87061  -0.86945
 Alpha  occ. eigenvalues --   -0.79693  -0.79523  -0.78358  -0.78158  -0.65149
 Alpha  occ. eigenvalues --   -0.65000  -0.61036  -0.60850  -0.59419  -0.59292
 Alpha  occ. eigenvalues --   -0.57684  -0.57514  -0.55334  -0.55216  -0.52731
 Alpha  occ. eigenvalues --   -0.52629  -0.52487  -0.52339  -0.50036  -0.49854
 Alpha  occ. eigenvalues --   -0.48075  -0.47777  -0.46781  -0.46528  -0.46032
 Alpha  occ. eigenvalues --   -0.45766  -0.45704  -0.45399  -0.43846  -0.43738
 Alpha virt. eigenvalues --    0.20696   0.23114   0.23602   0.24596   0.25218
 Alpha virt. eigenvalues --    0.26095   0.27184   0.27724   0.28321   0.29653
 Alpha virt. eigenvalues --    0.30701   0.31317   0.31758   0.31902   0.31924

 Mulliken charges:
               1
     1  C   -0.300653
     2  C   -0.298771
     3  C   -0.483959
     4  H    0.149202
     5  H    0.152417
     6  H    0.151657
     7  H    0.151024
     8  H    0.163445
     9  H    0.154948
    10  H    0.159371
    11  C   -0.298082
    12  C   -0.299477
    13  C   -0.475734
    14  H    0.149295
    15  H    0.149713
    16  H    0.151721
    17  H    0.151589
    18  H    0.155436
    19  H    0.155096
    20  H    0.160029
    21  C   -0.297673
    22  C   -0.306940
    23  C   -0.475346
    24  H    0.150034
    25  H    0.149761
    26  H    0.152588
    27  H    0.158161
    28  H    0.155226
    29  H    0.155287
    30  H    0.161071
    31  C   -0.300077
    32  C   -0.299692
    33  C   -0.475770
    34  H    0.150051
    35  H    0.149667
    36  H    0.152373
    37  H    0.152312
    38  H    0.154947
    39  H    0.155032
    40  H    0.160722
 Sum of Mulliken charges =  -0.00000

 Dipole moment (field-independent basis, Debye):
    X=              0.0604    Y=              0.0181    Z=             -0.0125  Tot=              0.0643
 Quadrupole moment (field-independent basis, Debye-Ang):
   XX=            -85.4783   YY=            -85.4342   ZZ=            -83.8082
   XY=              1.6133   XZ=              0.5500   YZ=             -0.2370

 Normal termination of Gaussian 16 at Wed May  5 21:26:26 2021.
