 Gaussian 16, Revision A.03,
 Gaussian 16:  EM64L-G16RevA.03 25-Dec-2016

 -------------
 #p 6-31g* mp2
 -------------

 ------------------------------------------------------
 Input file generated by CHIRIPA (05-May-2021 14:55:22)
 ------------------------------------------------------
 Symbolic Z-matrix:
 Charge =  0 Multiplicity = 1

                         Standard orientation:
 ---------------------------------------------------------------------
 Center     Atomic      Atomic             Coordinates (Angstroms)
 Number     Number       Type             X           Y           Z
 ---------------------------------------------------------------------
      1          6           0        3.602420    0.566373   -2.039767
      2          6           0        3.949318   -0.695580   -1.546152
      3          6           0        3.381448   -1.175566   -0.362224
      4          6           0        2.466018   -0.363505    0.305485
      5          6           0        2.100102    0.898204   -0.160868
      6          6           0        2.680545    1.357843   -1.346772
      7          1           0        4.048438    0.931334   -2.960238
      8          1           0        4.664976   -1.312419   -2.082238
      9          1           0        3.632100   -2.148651    0.042372
     10          1           0        1.383720    1.490197    0.395691
     11          1           0        2.409262    2.338299   -1.727766
     12          7           0        1.858185   -0.860874    1.559902
     13          8           0        1.054206   -0.126111    2.129443
     14          8           0        2.197254   -1.976057    1.949820
     15          6           0       -3.180350    1.001866    0.274870
     16          6           0       -1.777104    1.590104    0.123667
     17          6           0       -1.583699    2.873226    0.932360
     18          1           0       -3.920593    1.750260   -0.039602
     19          1           0       -3.372844    0.799159    1.337532
     20          1           0       -1.586793    1.790354   -0.938547
     21          1           0       -1.040108    0.840155    0.438354
     22          1           0       -1.746838    2.684962    1.998448
     23          1           0       -2.296630    3.640560    0.613724
     24          1           0       -0.573711    3.276651    0.809758
     25          6           0       -3.389113   -0.281142   -0.527648
     26          6           0       -4.792359   -0.869380   -0.376445
     27          6           0       -4.985764   -2.152503   -1.185138
     28          1           0       -3.196619   -0.078435   -1.590310
     29          1           0       -2.648871   -1.029537   -0.213176
     30          1           0       -5.529356   -0.119431   -0.691133
     31          1           0       -4.982670   -1.069630    0.685769
     32          1           0       -4.272834   -2.919837   -0.866501
     33          1           0       -4.822625   -1.964239   -2.251226
     34          1           0       -5.995753   -2.555928   -1.062535
 ---------------------------------------------------------------------

 SCF Done:  E(RHF) =  -669.535800573     A.U. after   15 cycles
 E2 =    -0.2092573101D+01 EUMP2 =    -0.67162837367408D+03

 The electronic state is 1-A.
 Alpha  occ. eigenvalues --  -20.60926 -20.60919 -15.85945 -11.31220 -11.27796
 Alpha  occ. eigenvalues --  -11.27753 -11.27528 -11.26793 -11.26773 -11.21320
 Alpha  occ. eigenvalues --  -11.21316 -11.21101 -11.21042 -11.20999 -11.20824
 Alpha  occ. eigenvalues --   -1.59983  -1.39541  -1.19394  -1.08809  -1.08149
 Alpha  occ. eigenvalues --   -1.04785  -1.03302  -0.95778  -0.95643  -0.86775
 Alpha  occ. eigenvalues --   -0.86191  -0.82491  -0.79379  -0.78003  -0.77517
 Alpha  occ. eigenvalues --   -0.72174  -0.71295  -0.70513  -0.65063  -0.64860
 Alpha  occ. eigenvalues --   -0.64688  -0.62182  -0.60649  -0.59143  -0.57395
 Alpha  occ. eigenvalues --   -0.55291  -0.55012  -0.53118  -0.52885  -0.52471
 Alpha  occ. eigenvalues --   -0.52189  -0.49674  -0.48956  -0.48923  -0.47698
 Alpha  occ. eigenvalues --   -0.46382  -0.45560  -0.45447  -0.44781  -0.43556
 Alpha  occ. eigenvalues --   -0.37376  -0.36369
 Alpha virt. eigenvalues --    0.04946   0.11217   0.16429   0.20504   0.23235
 Alpha virt. eigenvalues --    0.23961   0.26485   0.26953   0.27789   0.27915
 Alpha virt. eigenvalues --    0.29455   0.30826   0.31535   0.31714   0.32152

 Mulliken charges:
               1
     1  C   -0.170269
     2  C   -0.218950
     3  C   -0.170227
     4  C    0.156943
     5  C   -0.174227
     6  C   -0.221311
     7  H    0.225756
     8  H    0.223524
     9  H    0.275461
    10  H    0.285936
    11  H    0.223808
    12  N    0.487752
    13  O   -0.460804
    14  O   -0.458920
    15  C   -0.297406
    16  C   -0.312540
    17  C   -0.474526
    18  H    0.146888
    19  H    0.155145
    20  H    0.143645
    21  H    0.168109
    22  H    0.165531
    23  H    0.154030
    24  H    0.147292
    25  C   -0.299026
    26  C   -0.299723
    27  C   -0.475799
    28  H    0.145973
    29  H    0.153744
    30  H    0.150391
    31  H    0.154205
    32  H    0.156664
    33  H    0.153210
    34  H    0.159720
 Sum of Mulliken charges =  -0.00000

 Dipole moment (field-independent basis, Debye):
    X=              2.1796    Y=              1.6357    Z=             -4.2805  Tot=              5.0743
 Quadrupole moment (field-independent basis, Debye-Ang):
   XX=            -83.3671   YY=            -93.5892   ZZ=            -97.6603
   XY=              0.6051   XZ=            -11.0570   YZ=              1.6552

 Normal termination of Gaussian 16 at Thu May  6 14:13:07 2021.
