 Gaussian 16, Revision A.03,
 Gaussian 16:  EM64L-G16RevA.03 25-Dec-2016

 -------------
 #p 6-31g* mp2
 -------------

 ------------------------------------------------------
 Input file generated by CHIRIPA (05-May-2021 14:57:21)
 ------------------------------------------------------
 Symbolic Z-matrix:
 Charge =  0 Multiplicity = 1

                         Standard orientation:
 ---------------------------------------------------------------------
 Center     Atomic      Atomic             Coordinates (Angstroms)
 Number     Number       Type             X           Y           Z
 ---------------------------------------------------------------------
      1          6           0        1.567486    2.634291    0.643390
      2          6           0        1.649617    1.646731    1.630558
      3          6           0        2.279778    0.427463    1.364418
      4          6           0        2.819336    0.228479    0.094547
      5          6           0        2.753555    1.192841   -0.909928
      6          6           0        2.118745    2.404600   -0.621472
      7          1           0        1.076156    3.578531    0.858802
      8          1           0        1.222397    1.822351    2.613760
      9          1           0        2.357521   -0.354341    2.110177
     10          1           0        3.188858    0.988671   -1.880620
     11          1           0        2.056445    3.169742   -1.390055
     12          7           0        3.488920   -1.058330   -0.199016
     13          8           0        3.956311   -1.209062   -1.325720
     14          8           0        3.533670   -1.891833    0.703152
     15          6           0       -0.827674   -2.121581   -0.114999
     16          6           0       -2.078926   -2.462564    0.409043
     17          6           0       -3.128557   -1.539135    0.398836
     18          6           0       -2.890858   -0.278047   -0.145630
     19          6           0       -1.655494    0.091590   -0.675283
     20          6           0       -0.620317   -0.847838   -0.654538
     21          1           0       -0.017910   -2.845137   -0.102976
     22          1           0       -2.242840   -3.451032    0.828695
     23          1           0       -4.107196   -1.776723    0.797879
     24          1           0       -1.522410    1.084714   -1.086881
     25          1           0        0.350379   -0.580261   -1.062213
     26          7           0       -3.994404    0.708015   -0.162014
     27          8           0       -3.759400    1.812476   -0.647374
     28          8           0       -5.073474    0.357757    0.310815
 ---------------------------------------------------------------------

 SCF Done:  E(RHF) =  -868.338213022     A.U. after   16 cycles
 E2 =    -0.2602622957D+01 EUMP2 =    -0.87094083597974D+03

 The electronic state is 1-A.
 Alpha  occ. eigenvalues --  -20.61812 -20.61799 -20.60922 -20.60902 -15.86846
 Alpha  occ. eigenvalues --  -15.85962 -11.32086 -11.31186 -11.28665 -11.28611
 Alpha  occ. eigenvalues --  -11.28297 -11.27724 -11.27718 -11.27637 -11.27555
 Alpha  occ. eigenvalues --  -11.27328 -11.26683 -11.26598  -1.60897  -1.59993
 Alpha  occ. eigenvalues --   -1.40444  -1.39551  -1.20293  -1.19325  -1.09674
 Alpha  occ. eigenvalues --   -1.08732  -1.05635  -1.04705  -0.96516  -0.95594
 Alpha  occ. eigenvalues --   -0.87022  -0.86113  -0.83329  -0.82433  -0.78412
 Alpha  occ. eigenvalues --   -0.77532  -0.73045  -0.72289  -0.72167  -0.71318
 Alpha  occ. eigenvalues --   -0.71297  -0.70376  -0.65891  -0.65580  -0.64964
 Alpha  occ. eigenvalues --   -0.64730  -0.62956  -0.62107  -0.56063  -0.55197
 Alpha  occ. eigenvalues --   -0.54156  -0.53677  -0.53002  -0.52570  -0.49819
 Alpha  occ. eigenvalues --   -0.49803  -0.48948  -0.48920  -0.45856  -0.44988
 Alpha  occ. eigenvalues --   -0.38262  -0.37482  -0.37103  -0.36190
 Alpha virt. eigenvalues --    0.04052   0.04999   0.10198   0.11467   0.15597
 Alpha virt. eigenvalues --    0.16540   0.20754   0.21543   0.26653   0.27248
 Alpha virt. eigenvalues --    0.27581   0.28426   0.30470   0.31090   0.31977

 Mulliken charges:
               1
     1  C   -0.171659
     2  C   -0.214978
     3  C   -0.168054
     4  C    0.149431
     5  C   -0.182470
     6  C   -0.219423
     7  H    0.233583
     8  H    0.229237
     9  H    0.276875
    10  H    0.277686
    11  H    0.228908
    12  N    0.486722
    13  O   -0.458258
    14  O   -0.460843
    15  C   -0.176484
    16  C   -0.219107
    17  C   -0.172514
    18  C    0.157429
    19  C   -0.174607
    20  C   -0.218843
    21  H    0.235496
    22  H    0.224646
    23  H    0.274742
    24  H    0.270619
    25  H    0.227958
    26  N    0.488138
    27  O   -0.464107
    28  O   -0.460123
 Sum of Mulliken charges =  -0.00000

 Dipole moment (field-independent basis, Debye):
    X=              1.7335    Y=              1.1735    Z=              1.2580  Tot=              2.4422
 Quadrupole moment (field-independent basis, Debye-Ang):
   XX=           -140.2348   YY=            -98.2090   ZZ=            -99.9028
   XY=             24.3930   XZ=             -0.4915   YZ=             -1.9834

 Normal termination of Gaussian 16 at Thu May  6 16:11:39 2021.
