 Gaussian 16, Revision A.03,
 Gaussian 16:  EM64L-G16RevA.03 25-Dec-2016

 -------------
 #p 6-31g* mp2
 -------------

 ------------------------------------------------------
 Input file generated by CHIRIPA (05-May-2021 14:57:21)
 ------------------------------------------------------
 Symbolic Z-matrix:
 Charge =  0 Multiplicity = 1

                         Standard orientation:
 ---------------------------------------------------------------------
 Center     Atomic      Atomic             Coordinates (Angstroms)
 Number     Number       Type             X           Y           Z
 ---------------------------------------------------------------------
      1          6           0       -2.740715   -2.357907    0.337778
      2          6           0       -2.036659   -1.660533    1.324944
      3          6           0       -1.979884   -0.263795    1.303784
      4          6           0       -2.641660    0.406635    0.276230
      5          6           0       -3.351335   -0.259746   -0.721561
      6          6           0       -3.394653   -1.656524   -0.680529
      7          1           0       -2.779592   -3.442942    0.361934
      8          1           0       -1.527854   -2.202612    2.116975
      9          1           0       -1.442068    0.301173    2.055437
     10          1           0       -3.848555    0.308278   -1.498439
     11          1           0       -3.942192   -2.195484   -1.448493
     12          7           0       -2.588678    1.885320    0.243310
     13          8           0       -3.180131    2.452623   -0.672653
     14          8           0       -1.956702    2.449011    1.134094
     15          6           0        4.899629    0.693907    0.475105
     16          6           0        3.992237    1.560547   -0.143033
     17          6           0        2.743160    1.096730   -0.566387
     18          6           0        2.432944   -0.245765   -0.354817
     19          6           0        3.315510   -1.133876    0.258068
     20          6           0        4.558971   -0.648173    0.673333
     21          1           0        5.867761    1.062712    0.800835
     22          1           0        4.254097    2.603319   -0.298281
     23          1           0        2.021722    1.745899   -1.047559
     24          1           0        3.026025   -2.168151    0.399113
     25          1           0        5.261676   -1.323497    1.153111
     26          7           0        1.113575   -0.748373   -0.798722
     27          8           0        0.864294   -1.935514   -0.600750
     28          8           0        0.353719    0.054341   -1.336220
 ---------------------------------------------------------------------

 SCF Done:  E(RHF) =  -868.338529967     A.U. after   16 cycles
 E2 =    -0.2602118858D+01 EUMP2 =    -0.87094064882438D+03

 The electronic state is 1-A.
 Alpha  occ. eigenvalues --  -20.61044 -20.61016 -20.59679 -20.59652 -15.86037
 Alpha  occ. eigenvalues --  -15.84707 -11.31282 -11.29723 -11.27887 -11.27773
 Alpha  occ. eigenvalues --  -11.27560 -11.26858 -11.26773 -11.26327 -11.26265
 Alpha  occ. eigenvalues --  -11.26004 -11.25334 -11.25282  -1.60081  -1.58736
 Alpha  occ. eigenvalues --   -1.39646  -1.38308  -1.19445  -1.17868  -1.08866
 Alpha  occ. eigenvalues --   -1.07340  -1.04822  -1.03297  -0.95724  -0.94250
 Alpha  occ. eigenvalues --   -0.86229  -0.84724  -0.82565  -0.81138  -0.77623
 Alpha  occ. eigenvalues --   -0.76215  -0.72305  -0.71433  -0.70967  -0.70551
 Alpha  occ. eigenvalues --   -0.69990  -0.69081  -0.65100  -0.64823  -0.63592
 Alpha  occ. eigenvalues --   -0.63378  -0.62166  -0.60713  -0.55340  -0.53846
 Alpha  occ. eigenvalues --   -0.53182  -0.52910  -0.51646  -0.51460  -0.49051
 Alpha  occ. eigenvalues --   -0.48844  -0.47725  -0.47682  -0.45121  -0.43803
 Alpha  occ. eigenvalues --   -0.37431  -0.36421  -0.35676  -0.34826
 Alpha virt. eigenvalues --    0.04864   0.06371   0.11235   0.12815   0.16402
 Alpha virt. eigenvalues --    0.17956   0.21394   0.22664   0.27318   0.28270
 Alpha virt. eigenvalues --    0.28506   0.29548   0.30950   0.32102   0.32566

 Mulliken charges:
               1
     1  C   -0.160279
     2  C   -0.206125
     3  C   -0.180055
     4  C    0.176607
     5  C   -0.165047
     6  C   -0.215168
     7  H    0.220789
     8  H    0.216098
     9  H    0.266472
    10  H    0.270734
    11  H    0.218201
    12  N    0.488596
    13  O   -0.463702
    14  O   -0.469721
    15  C   -0.170388
    16  C   -0.218453
    17  C   -0.169028
    18  C    0.156872
    19  C   -0.172440
    20  C   -0.218753
    21  H    0.226329
    22  H    0.226430
    23  H    0.281049
    24  H    0.272136
    25  H    0.222693
    26  N    0.488283
    27  O   -0.464127
    28  O   -0.458003
 Sum of Mulliken charges =  -0.00000

 Dipole moment (field-independent basis, Debye):
    X=              4.6546    Y=             -3.4643    Z=              1.4551  Tot=              5.9820
 Quadrupole moment (field-independent basis, Debye-Ang):
   XX=            -80.8268   YY=           -106.7542   ZZ=           -103.2038
   XY=             16.5156   XZ=              5.3988   YZ=             -4.3218

 Normal termination of Gaussian 16 at Wed May  5 22:31:34 2021.
