 Gaussian 16, Revision A.03,
 Gaussian 16:  EM64L-G16RevA.03 25-Dec-2016

 -------------
 #p 6-31g* mp2
 -------------

 ------------------------------------------------------
 Input file generated by CHIRIPA (05-May-2021 14:55:19)
 ------------------------------------------------------
 Symbolic Z-matrix:
 Charge =  0 Multiplicity = 1

                         Standard orientation:
 ---------------------------------------------------------------------
 Center     Atomic      Atomic             Coordinates (Angstroms)
 Number     Number       Type             X           Y           Z
 ---------------------------------------------------------------------
      1          6           0       -1.670554    1.376144    2.097911
      2          6           0       -0.943298    0.185151    2.193594
      3          6           0       -1.090489   -0.816090    1.229021
      4          6           0       -1.977670   -0.591974    0.177369
      5          6           0       -2.716343    0.583837    0.054407
      6          6           0       -2.553200    1.571342    1.030505
      7          1           0       -1.550017    2.148596    2.851691
      8          1           0       -0.257105    0.030817    3.021461
      9          1           0       -0.539904   -1.747650    1.278715
     10          1           0       -3.392793    0.708804   -0.782383
     11          1           0       -3.119299    2.495283    0.953640
     12          7           0       -2.141938   -1.644672   -0.849881
     13          8           0       -2.929946   -1.422842   -1.766654
     14          8           0       -1.479573   -2.671673   -0.718817
     15          6           0        1.831075    0.907211   -0.396478
     16          6           0        1.560897    1.821717   -1.591747
     17          6           0        0.225402    2.558157   -1.482649
     18          1           0        1.014424    0.177548   -0.309201
     19          1           0        1.815446    1.505542    0.525015
     20          1           0        1.578402    1.222073   -2.510842
     21          1           0        2.378383    2.549166   -1.676304
     22          1           0        0.200974    3.180271   -0.582106
     23          1           0       -0.603552    1.845638   -1.421386
     24          1           0        0.052498    3.206239   -2.347492
     25          6           0        3.162451    0.164089   -0.491003
     26          6           0        3.432629   -0.750417    0.704266
     27          6           0        4.768124   -1.486856    0.595168
     28          1           0        3.178080   -0.434242   -1.412497
     29          1           0        3.979103    0.893752   -0.578281
     30          1           0        2.615143   -1.477865    0.788823
     31          1           0        3.415123   -0.150773    1.623361
     32          1           0        5.597078   -0.774338    0.533905
     33          1           0        4.792552   -2.108971   -0.305376
     34          1           0        4.941028   -2.134939    1.460011
 ---------------------------------------------------------------------

 SCF Done:  E(RHF) =  -669.533457606     A.U. after   15 cycles
 E2 =    -0.2096167172D+01 EUMP2 =    -0.67162962477831D+03

 The electronic state is 1-A.
 Alpha  occ. eigenvalues --  -20.60858 -20.60852 -15.85910 -11.31252 -11.27809
 Alpha  occ. eigenvalues --  -11.27805 -11.27554 -11.26831 -11.26819 -11.21834
 Alpha  occ. eigenvalues --  -11.21582 -11.21427 -11.21319 -11.21187 -11.21045
 Alpha  occ. eigenvalues --   -1.59936  -1.39488  -1.19453  -1.08832  -1.08492
 Alpha  occ. eigenvalues --   -1.04849  -1.03607  -0.96042  -0.95675  -0.87068
 Alpha  occ. eigenvalues --   -0.86240  -0.82499  -0.79695  -0.78338  -0.77544
 Alpha  occ. eigenvalues --   -0.72125  -0.71270  -0.70547  -0.65150  -0.65089
 Alpha  occ. eigenvalues --   -0.64814  -0.62186  -0.61022  -0.59433  -0.57685
 Alpha  occ. eigenvalues --   -0.55346  -0.55334  -0.53354  -0.52921  -0.52739
 Alpha  occ. eigenvalues --   -0.52495  -0.50010  -0.48885  -0.48882  -0.47945
 Alpha  occ. eigenvalues --   -0.46720  -0.45810  -0.45698  -0.44884  -0.43847
 Alpha  occ. eigenvalues --   -0.37382  -0.36286
 Alpha virt. eigenvalues --    0.04947   0.11043   0.16417   0.20806   0.22915
 Alpha virt. eigenvalues --    0.23984   0.25687   0.26464   0.27634   0.28242
 Alpha virt. eigenvalues --    0.28900   0.30518   0.31059   0.31822   0.31840

 Mulliken charges:
               1
     1  C   -0.171924
     2  C   -0.210537
     3  C   -0.178423
     4  C    0.164434
     5  C   -0.177717
     6  C   -0.211281
     7  H    0.225812
     8  H    0.224502
     9  H    0.276312
    10  H    0.276154
    11  H    0.224380
    12  N    0.487784
    13  O   -0.460264
    14  O   -0.460917
    15  C   -0.301233
    16  C   -0.300266
    17  C   -0.477768
    18  H    0.156359
    19  H    0.142832
    20  H    0.155422
    21  H    0.150350
    22  H    0.148610
    23  H    0.159686
    24  H    0.158891
    25  C   -0.297957
    26  C   -0.299779
    27  C   -0.475562
    28  H    0.153890
    29  H    0.148798
    30  H    0.149522
    31  H    0.146367
    32  H    0.155327
    33  H    0.158923
    34  H    0.159271
 Sum of Mulliken charges =  -0.00000

 Dipole moment (field-independent basis, Debye):
    X=              0.4895    Y=              3.6487    Z=              3.6287  Tot=              5.1691
 Quadrupole moment (field-independent basis, Debye-Ang):
   XX=            -95.8926   YY=            -98.0511   ZZ=            -92.5689
   XY=             -9.3348   XZ=             -5.3672   YZ=             -2.4154

 Normal termination of Gaussian 16 at Wed May  5 15:51:36 2021.
