 Gaussian 16, Revision A.03,
 Gaussian 16:  EM64L-G16RevA.03 25-Dec-2016

 -------------
 #p 6-31g* mp2
 -------------

 ------------------------------------------------------
 Input file generated by CHIRIPA (05-May-2021 14:53:18)
 ------------------------------------------------------
 Symbolic Z-matrix:
 Charge =  0 Multiplicity = 1

                         Standard orientation:
 ---------------------------------------------------------------------
 Center     Atomic      Atomic             Coordinates (Angstroms)
 Number     Number       Type             X           Y           Z
 ---------------------------------------------------------------------
      1          6           0       -1.655143    1.577432   -0.354380
      2          6           0       -0.842374    2.161186    0.801745
      3          6           0        0.170167    3.210526    0.341917
      4          1           0       -0.969499    1.130917   -1.087497
      5          1           0       -2.179675    2.392050   -0.872702
      6          1           0       -0.320625    1.345544    1.318584
      7          1           0       -1.530043    2.606194    1.532288
      8          1           0       -0.337222    4.043587   -0.155241
      9          1           0        0.879067    2.775774   -0.370159
     10          1           0        0.740206    3.614596    1.184320
     11          6           0       -2.671670    0.526984    0.089421
     12          6           0       -3.484439   -0.056769   -1.066703
     13          6           0       -4.496979   -1.106109   -0.606876
     14          1           0       -2.147137   -0.287634    0.607743
     15          1           0       -3.357314    0.973500    0.822538
     16          1           0       -2.796769   -0.501778   -1.797247
     17          1           0       -4.006187    0.758873   -1.583543
     18          1           0       -5.205880   -0.671357    0.105200
     19          1           0       -3.989590   -1.939171   -0.109718
     20          1           0       -5.067019   -1.510179   -1.449279
     21          6           0        3.437153    0.501348   -1.146536
     22          6           0        2.781761   -0.562252   -1.775611
     23          6           0        1.812087   -1.302422   -1.092655
     24          6           0        1.521269   -0.949978    0.224348
     25          6           0        2.156888    0.104264    0.878452
     26          6           0        3.123179    0.830632    0.176156
     27          1           0        4.189105    1.070970   -1.684584
     28          1           0        3.023562   -0.820231   -2.802754
     29          1           0        1.289382   -2.130635   -1.555539
     30          1           0        1.894405    0.337679    1.903166
     31          1           0        3.630558    1.656134    0.667232
     32          7           0        0.496508   -1.726257    0.957601
     33          8           0        0.258401   -1.395701    2.117201
     34          8           0       -0.049185   -2.650561    0.358839
 ---------------------------------------------------------------------

 SCF Done:  E(RHF) =  -669.534648613     A.U. after   15 cycles
 E2 =    -0.2097030595D+01 EUMP2 =    -0.67163167920775D+03

 The electronic state is 1-A.
 Alpha  occ. eigenvalues --  -20.61096 -20.61073 -15.86076 -11.31364 -11.27933
 Alpha  occ. eigenvalues --  -11.27909 -11.27652 -11.26917 -11.26893 -11.21276
 Alpha  occ. eigenvalues --  -11.21036 -11.21021 -11.20976 -11.20673 -11.20287
 Alpha  occ. eigenvalues --   -1.60137  -1.39692  -1.19549  -1.08953  -1.07965
 Alpha  occ. eigenvalues --   -1.04939  -1.03086  -0.95804  -0.95552  -0.86591
 Alpha  occ. eigenvalues --   -0.86320  -0.82629  -0.79183  -0.77788  -0.77644
 Alpha  occ. eigenvalues --   -0.72308  -0.71499  -0.70653  -0.65194  -0.64938
 Alpha  occ. eigenvalues --   -0.64581  -0.62300  -0.60537  -0.58953  -0.57153
 Alpha  occ. eigenvalues --   -0.55428  -0.54933  -0.53140  -0.53017  -0.52274
 Alpha  occ. eigenvalues --   -0.51953  -0.49532  -0.49079  -0.49055  -0.47472
 Alpha  occ. eigenvalues --   -0.46279  -0.45386  -0.45258  -0.44766  -0.43336
 Alpha  occ. eigenvalues --   -0.37481  -0.36440
 Alpha virt. eigenvalues --    0.04778   0.11048   0.16257   0.21004   0.23189
 Alpha virt. eigenvalues --    0.24644   0.26714   0.26955   0.27674   0.28304
 Alpha virt. eigenvalues --    0.29023   0.30799   0.31546   0.31875   0.32176

 Mulliken charges:
               1
     1  C   -0.300928
     2  C   -0.305290
     3  C   -0.479870
     4  H    0.145603
     5  H    0.147746
     6  H    0.156721
     7  H    0.153737
     8  H    0.154847
     9  H    0.156206
    10  H    0.152056
    11  C   -0.306038
    12  C   -0.297089
    13  C   -0.477940
    14  H    0.165212
    15  H    0.149412
    16  H    0.149456
    17  H    0.147462
    18  H    0.153129
    19  H    0.166799
    20  H    0.156464
    21  C   -0.171588
    22  C   -0.218491
    23  C   -0.171703
    24  C    0.161963
    25  C   -0.170940
    26  C   -0.217414
    27  H    0.226820
    28  H    0.224329
    29  H    0.276044
    30  H    0.276963
    31  H    0.225495
    32  N    0.487621
    33  O   -0.458306
    34  O   -0.458486
 Sum of Mulliken charges =  -0.00000

 Dipole moment (field-independent basis, Debye):
    X=              3.7313    Y=              2.4882    Z=             -2.4948  Tot=              5.1320
 Quadrupole moment (field-independent basis, Debye-Ang):
   XX=            -84.3567   YY=            -99.3441   ZZ=            -92.9921
   XY=              0.4275   XZ=             -2.8722   YZ=              5.9138

 Normal termination of Gaussian 16 at Wed May  5 22:04:38 2021.
