 Gaussian 16, Revision A.03,
 Gaussian 16:  EM64L-G16RevA.03 25-Dec-2016

 -------------
 #p 6-31g* mp2
 -------------

 ------------------------------------------------------
 Input file generated by CHIRIPA (05-May-2021 14:57:22)
 ------------------------------------------------------
 Symbolic Z-matrix:
 Charge =  0 Multiplicity = 1

                         Standard orientation:
 ---------------------------------------------------------------------
 Center     Atomic      Atomic             Coordinates (Angstroms)
 Number     Number       Type             X           Y           Z
 ---------------------------------------------------------------------
      1          6           0       -1.802076    2.336791    0.470413
      2          6           0       -1.758735    1.440971    1.543795
      3          6           0       -2.189865    0.120628    1.384512
      4          6           0       -2.660502   -0.271878    0.132422
      5          6           0       -2.716042    0.597053   -0.956230
      6          6           0       -2.279749    1.912721   -0.773980
      7          1           0       -1.465159    3.360649    0.603069
      8          1           0       -1.388256    1.767534    2.511342
      9          1           0       -2.167215   -0.593707    2.198533
     10          1           0       -3.090499    0.242277   -1.908771
     11          1           0       -2.314552    2.606244   -1.609359
     12          7           0       -3.119652   -1.667191   -0.048362
     13          8           0       -3.529939   -1.988302   -1.161550
     14          8           0       -3.060553   -2.413306    0.926552
     15          6           0        1.549065    2.311505   -0.539144
     16          6           0        2.156044    2.013689    0.685357
     17          6           0        2.733111    0.759431    0.905305
     18          6           0        2.684962   -0.177502   -0.125777
     19          6           0        2.087543    0.089141   -1.356745
     20          6           0        1.516809    1.349976   -1.554497
     21          1           0        1.103247    3.288398   -0.701384
     22          1           0        2.182576    2.758477    1.475694
     23          1           0        3.209479    0.502329    1.843596
     24          1           0        2.076699   -0.673828   -2.125626
     25          1           0        1.046100    1.578483   -2.506475
     26          7           0        3.292524   -1.508811    0.095323
     27          8           0        3.236930   -2.316918   -0.829073
     28          8           0        3.812822   -1.718974    1.188830
 ---------------------------------------------------------------------

 SCF Done:  E(RHF) =  -868.335089491     A.U. after   16 cycles
 E2 =    -0.2603303185D+01 EUMP2 =    -0.87093839267591D+03

 The electronic state is 1-A.
 Alpha  occ. eigenvalues --  -20.61015 -20.60999 -20.60929 -20.60912 -15.86072
 Alpha  occ. eigenvalues --  -15.85986 -11.31607 -11.31497 -11.28243 -11.28183
 Alpha  occ. eigenvalues --  -11.28135 -11.28087 -11.28080 -11.27988 -11.27335
 Alpha  occ. eigenvalues --  -11.27260 -11.27219 -11.27156  -1.60082  -1.59996
 Alpha  occ. eigenvalues --   -1.39631  -1.39546  -1.19831  -1.19699  -1.09250
 Alpha  occ. eigenvalues --   -1.09059  -1.05261  -1.05137  -0.96049  -0.95868
 Alpha  occ. eigenvalues --   -0.86684  -0.86534  -0.82862  -0.82712  -0.77833
 Alpha  occ. eigenvalues --   -0.77730  -0.72290  -0.72203  -0.71407  -0.71321
 Alpha  occ. eigenvalues --   -0.71173  -0.70738  -0.65495  -0.65379  -0.65329
 Alpha  occ. eigenvalues --   -0.65146  -0.62613  -0.62486  -0.55988  -0.55592
 Alpha  occ. eigenvalues --   -0.54107  -0.53381  -0.53257  -0.52921  -0.49062
 Alpha  occ. eigenvalues --   -0.49031  -0.48974  -0.48946  -0.44999  -0.44919
 Alpha  occ. eigenvalues --   -0.38577  -0.37242  -0.36876  -0.36362
 Alpha virt. eigenvalues --    0.04330   0.05166   0.10184   0.11453   0.15654
 Alpha virt. eigenvalues --    0.16787   0.19178   0.22048   0.25794   0.25919
 Alpha virt. eigenvalues --    0.27653   0.29461   0.29583   0.31277   0.32497

 Mulliken charges:
               1
     1  C   -0.168513
     2  C   -0.214394
     3  C   -0.169281
     4  C    0.159863
     5  C   -0.170873
     6  C   -0.219836
     7  H    0.217705
     8  H    0.221980
     9  H    0.278682
    10  H    0.275854
    11  H    0.218574
    12  N    0.488068
    13  O   -0.460030
    14  O   -0.456952
    15  C   -0.165277
    16  C   -0.219950
    17  C   -0.170824
    18  C    0.159240
    19  C   -0.170029
    20  C   -0.214209
    21  H    0.216038
    22  H    0.218542
    23  H    0.275829
    24  H    0.278534
    25  H    0.220646
    26  N    0.488140
    27  O   -0.457228
    28  O   -0.460300
 Sum of Mulliken charges =  -0.00000

 Dipole moment (field-independent basis, Debye):
    X=             -0.5391    Y=              9.2986    Z=             -0.1154  Tot=              9.3149
 Quadrupole moment (field-independent basis, Debye-Ang):
   XX=           -125.8147   YY=           -110.4406   ZZ=            -95.6838
   XY=             -0.3472   XZ=             -0.9548   YZ=              0.4514

 Normal termination of Gaussian 16 at Thu May  6 17:55:49 2021.
