 Gaussian 16, Revision A.03,
 Gaussian 16:  EM64L-G16RevA.03 25-Dec-2016

 -------------
 #p 6-31g* mp2
 -------------

 ------------------------------------------------------
 Input file generated by CHIRIPA (05-May-2021 14:55:20)
 ------------------------------------------------------
 Symbolic Z-matrix:
 Charge =  0 Multiplicity = 1

                         Standard orientation:
 ---------------------------------------------------------------------
 Center     Atomic      Atomic             Coordinates (Angstroms)
 Number     Number       Type             X           Y           Z
 ---------------------------------------------------------------------
      1          6           0       -1.659498    0.109564    0.225552
      2          6           0       -2.380597    1.308057    0.213232
      3          6           0       -3.771071    1.298609    0.068186
      4          6           0       -4.411114    0.067147   -0.062719
      5          6           0       -3.720596   -1.143804   -0.054230
      6          6           0       -2.330617   -1.110391    0.092017
      7          1           0       -0.579537    0.126212    0.338693
      8          1           0       -1.862043    2.256969    0.316739
      9          1           0       -4.353966    2.211564    0.055309
     10          1           0       -4.265397   -2.074143   -0.159494
     11          1           0       -1.773186   -2.042717    0.101235
     12          7           0       -5.882886    0.044459   -0.216908
     13          8           0       -6.423225   -1.053617   -0.330477
     14          8           0       -6.468253    1.125183   -0.221273
     15          6           0        6.005675   -0.304274   -0.250615
     16          6           0        7.122577    0.715297   -0.024811
     17          6           0        8.456651    0.273887   -0.627472
     18          1           0        6.304625   -1.268254    0.183342
     19          1           0        5.884104   -0.471569   -1.329794
     20          1           0        7.241069    0.881655    1.053568
     21          1           0        6.820854    1.677012   -0.459187
     22          1           0        8.361232    0.126493   -1.708106
     23          1           0        8.783834   -0.673384   -0.186757
     24          1           0        9.240948    1.017387   -0.454426
     25          6           0        4.665810    0.122806    0.346120
     26          6           0        3.548907   -0.896766    0.120318
     27          6           0        2.214834   -0.455356    0.722977
     28          1           0        4.787380    0.290101    1.425300
     29          1           0        4.366860    1.086786   -0.087835
     30          1           0        3.850631   -1.858481    0.554693
     31          1           0        3.430415   -1.063124   -0.958061
     32          1           0        1.887651    0.491915    0.282263
     33          1           0        2.310253   -0.307961    1.803612
     34          1           0        1.430537   -1.198856    0.549932
 ---------------------------------------------------------------------

 SCF Done:  E(RHF) =  -669.535235341     A.U. after   15 cycles
 E2 =    -0.2091178338D+01 EUMP2 =    -0.67162641367895D+03

 The electronic state is 1-A.
 Alpha  occ. eigenvalues --  -20.60676 -20.60671 -15.85731 -11.31065 -11.27647
 Alpha  occ. eigenvalues --  -11.27642 -11.27264 -11.26635 -11.26620 -11.22673
 Alpha  occ. eigenvalues --  -11.22566 -11.22230 -11.22155 -11.22033 -11.21527
 Alpha  occ. eigenvalues --   -1.59753  -1.39308  -1.19235  -1.09239  -1.08625
 Alpha  occ. eigenvalues --   -1.04642  -1.04396  -0.96888  -0.95465  -0.87920
 Alpha  occ. eigenvalues --   -0.86036  -0.82311  -0.80480  -0.78992  -0.77367
 Alpha  occ. eigenvalues --   -0.71948  -0.71077  -0.70343  -0.65860  -0.64884
 Alpha  occ. eigenvalues --   -0.64657  -0.61999  -0.61786  -0.60312  -0.58449
 Alpha  occ. eigenvalues --   -0.56226  -0.55178  -0.53459  -0.53296  -0.52967
 Alpha  occ. eigenvalues --   -0.52732  -0.50793  -0.48784  -0.48705  -0.48701
 Alpha  occ. eigenvalues --   -0.47467  -0.46549  -0.46433  -0.44720  -0.44625
 Alpha  occ. eigenvalues --   -0.37196  -0.36257
 Alpha virt. eigenvalues --    0.05177   0.11399   0.16671   0.20336   0.22286
 Alpha virt. eigenvalues --    0.23776   0.25635   0.26054   0.26259   0.27203
 Alpha virt. eigenvalues --    0.29100   0.29647   0.30755   0.31183   0.31877

 Mulliken charges:
               1
     1  C   -0.179370
     2  C   -0.222360
     3  C   -0.170538
     4  C    0.157719
     5  C   -0.170617
     6  C   -0.223424
     7  H    0.243848
     8  H    0.223019
     9  H    0.275039
    10  H    0.275067
    11  H    0.222377
    12  N    0.488043
    13  O   -0.460874
    14  O   -0.460840
    15  C   -0.299094
    16  C   -0.300207
    17  C   -0.476146
    18  H    0.151026
    19  H    0.150693
    20  H    0.152693
    21  H    0.152411
    22  H    0.155904
    23  H    0.155955
    24  H    0.161840
    25  C   -0.299652
    26  C   -0.299016
    27  C   -0.483379
    28  H    0.151110
    29  H    0.150155
    30  H    0.155793
    31  H    0.154661
    32  H    0.151823
    33  H    0.161928
    34  H    0.154412
 Sum of Mulliken charges =  -0.00000

 Dipole moment (field-independent basis, Debye):
    X=              5.5553    Y=              0.0676    Z=              0.5609  Tot=              5.5839
 Quadrupole moment (field-independent basis, Debye-Ang):
   XX=           -141.2124   YY=            -89.5818   ZZ=            -95.0340
   XY=             -0.1329   XZ=             -2.0985   YZ=             -0.1641

 Normal termination of Gaussian 16 at Wed May  5 17:22:58 2021.
