 Gaussian 16, Revision A.03,
 Gaussian 16:  EM64L-G16RevA.03 25-Dec-2016

 -------------
 #p 6-31g* mp2
 -------------

 ------------------------------------------------------
 Input file generated by CHIRIPA (05-May-2021 14:57:24)
 ------------------------------------------------------
 Symbolic Z-matrix:
 Charge =  0 Multiplicity = 1

                         Standard orientation:
 ---------------------------------------------------------------------
 Center     Atomic      Atomic             Coordinates (Angstroms)
 Number     Number       Type             X           Y           Z
 ---------------------------------------------------------------------
      1          6           0        4.545818   -1.516177    0.499789
      2          6           0        4.740049   -0.269288    1.103166
      3          6           0        3.903866    0.807421    0.793258
      4          6           0        2.878715    0.600955   -0.128550
      5          6           0        2.659703   -0.629263   -0.746520
      6          6           0        3.508095   -1.691875   -0.421504
      7          1           0        5.200127   -2.347115    0.746402
      8          1           0        5.545149   -0.129933    1.819015
      9          1           0        4.031737    1.783387    1.245538
     10          1           0        1.848603   -0.737564   -1.456312
     11          1           0        3.354894   -2.659107   -0.891649
     12          7           0        1.987023    1.733357   -0.464633
     13          8           0        1.091072    1.525614   -1.279956
     14          8           0        2.200950    2.807234    0.093632
     15          6           0       -5.194242    0.768745    0.586581
     16          6           0       -4.373979    0.326702    1.629790
     17          6           0       -3.170243   -0.329946    1.357060
     18          6           0       -2.816028   -0.528696    0.023524
     19          6           0       -3.611814   -0.100061   -1.037743
     20          6           0       -4.811217    0.554330   -0.741515
     21          1           0       -6.127651    1.277968    0.807571
     22          1           0       -4.668906    0.491843    2.662162
     23          1           0       -2.516284   -0.682558    2.145362
     24          1           0       -3.291109   -0.279179   -2.056804
     25          1           0       -5.446260    0.896536   -1.553711
     26          7           0       -1.543980   -1.222665   -0.277642
     27          8           0       -1.254464   -1.385526   -1.460982
     28          8           0       -0.860552   -1.590598    0.675347
 ---------------------------------------------------------------------

 SCF Done:  E(RHF) =  -868.340357677     A.U. after   16 cycles
 E2 =    -0.2599247952D+01 EUMP2 =    -0.87093960562870D+03

 The electronic state is 1-A.
 Alpha  occ. eigenvalues --  -20.60721 -20.60669 -20.59903 -20.59893 -15.85706
 Alpha  occ. eigenvalues --  -15.84944 -11.30858 -11.30048 -11.27435 -11.27392
 Alpha  occ. eigenvalues --  -11.27156 -11.26734 -11.26463 -11.26434 -11.26418
 Alpha  occ. eigenvalues --  -11.26388 -11.25715 -11.25532  -1.59738  -1.58984
 Alpha  occ. eigenvalues --   -1.39299  -1.38539  -1.19018  -1.18239  -1.08462
 Alpha  occ. eigenvalues --   -1.07708  -1.04402  -1.03599  -0.95334  -0.94567
 Alpha  occ. eigenvalues --   -0.85814  -0.85028  -0.82180  -0.81403  -0.77242
 Alpha  occ. eigenvalues --   -0.76454  -0.71954  -0.71218  -0.70975  -0.70282
 Alpha  occ. eigenvalues --   -0.70155  -0.69381  -0.64690  -0.64427  -0.63908
 Alpha  occ. eigenvalues --   -0.63630  -0.61760  -0.60935  -0.54941  -0.54187
 Alpha  occ. eigenvalues --   -0.52724  -0.52509  -0.51957  -0.51706  -0.48711
 Alpha  occ. eigenvalues --   -0.48701  -0.47940  -0.47907  -0.44746  -0.44005
 Alpha  occ. eigenvalues --   -0.36987  -0.36258  -0.35986  -0.35164
 Alpha virt. eigenvalues --    0.05287   0.06053   0.11673   0.12468   0.16809
 Alpha virt. eigenvalues --    0.17561   0.21746   0.22532   0.27664   0.28439
 Alpha virt. eigenvalues --    0.28645   0.29479   0.31291   0.32010   0.32857

 Mulliken charges:
               1
     1  C   -0.170529
     2  C   -0.220043
     3  C   -0.171947
     4  C    0.154688
     5  C   -0.163571
     6  C   -0.218533
     7  H    0.221744
     8  H    0.218416
     9  H    0.270795
    10  H    0.290672
    11  H    0.224735
    12  N    0.487752
    13  O   -0.460838
    14  O   -0.466671
    15  C   -0.169828
    16  C   -0.218365
    17  C   -0.169833
    18  C    0.161829
    19  C   -0.166592
    20  C   -0.218383
    21  H    0.224979
    22  H    0.222385
    23  H    0.273798
    24  H    0.276560
    25  H    0.223322
    26  N    0.491954
    27  O   -0.462484
    28  O   -0.466012
 Sum of Mulliken charges =  -0.00000

 Dipole moment (field-independent basis, Debye):
    X=             -1.6440    Y=             -1.6684    Z=              2.0741  Tot=              3.1287
 Quadrupole moment (field-independent basis, Debye-Ang):
   XX=            -62.1517   YY=           -112.1122   ZZ=            -98.8242
   XY=            -13.4293   XZ=              2.5545   YZ=              2.4137

 Normal termination of Gaussian 16 at Thu May  6 19:37:20 2021.
