 Gaussian 16, Revision A.03,
 Gaussian 16:  EM64L-G16RevA.03 25-Dec-2016

 -------------
 #p 6-31g* mp2
 -------------

 ------------------------------------------------------
 Input file generated by CHIRIPA (05-May-2021 14:55:22)
 ------------------------------------------------------
 Symbolic Z-matrix:
 Charge =  0 Multiplicity = 1

                         Standard orientation:
 ---------------------------------------------------------------------
 Center     Atomic      Atomic             Coordinates (Angstroms)
 Number     Number       Type             X           Y           Z
 ---------------------------------------------------------------------
      1          6           0       -4.804610    2.208793    0.155860
      2          6           0       -5.385703    1.031090    0.637388
      3          6           0       -4.727213   -0.194231    0.497647
      4          6           0       -3.483339   -0.205312   -0.131593
      5          6           0       -2.878373    0.950963   -0.621833
      6          6           0       -3.555003    2.165048   -0.471108
      7          1           0       -5.323186    3.156288    0.268681
      8          1           0       -6.356058    1.062057    1.124723
      9          1           0       -5.154126   -1.121057    0.861180
     10          1           0       -1.909963    0.888416   -1.103174
     11          1           0       -3.101313    3.078086   -0.846038
     12          7           0       -2.776623   -1.496557   -0.285345
     13          8           0       -1.681706   -1.479575   -0.843471
     14          8           0       -3.330999   -2.501166    0.155182
     15          6           0        5.251559    0.264691    0.442142
     16          6           0        6.406871    0.354953   -0.555401
     17          6           0        7.687935    0.905483    0.071961
     18          1           0        5.057615    1.262015    0.860083
     19          1           0        5.552399   -0.373976    1.284161
     20          1           0        6.103445    0.992140   -1.395961
     21          1           0        6.597961   -0.642667   -0.971159
     22          1           0        8.017540    0.267066    0.898027
     23          1           0        7.520216    1.911162    0.470811
     24          1           0        8.500845    0.961514   -0.658721
     25          6           0        3.963965   -0.283895   -0.170135
     26          6           0        2.808653   -0.374156    0.827408
     27          6           0        1.527589   -0.924686    0.200046
     28          1           0        3.663125    0.354773   -1.012153
     29          1           0        4.157909   -1.281219   -0.588076
     30          1           0        2.617563    0.623464    1.243166
     31          1           0        3.112079   -1.011344    1.667969
     32          1           0        1.695309   -1.930365   -0.198804
     33          1           0        1.197983   -0.286268   -0.626020
     34          1           0        0.714679   -0.980718    0.930729
 ---------------------------------------------------------------------

 SCF Done:  E(RHF) =  -669.535551767     A.U. after   15 cycles
 E2 =    -0.2091100485D+01 EUMP2 =    -0.67162665225257D+03

 The electronic state is 1-A.
 Alpha  occ. eigenvalues --  -20.60832 -20.60803 -15.85850 -11.31221 -11.27791
 Alpha  occ. eigenvalues --  -11.27787 -11.27537 -11.26809 -11.26799 -11.21291
 Alpha  occ. eigenvalues --  -11.20995 -11.20895 -11.20830 -11.20827 -11.19955
 Alpha  occ. eigenvalues --   -1.59884  -1.39438  -1.19395  -1.08791  -1.07944
 Alpha  occ. eigenvalues --   -1.04798  -1.02971  -0.95635  -0.95377  -0.86389
 Alpha  occ. eigenvalues --   -0.86195  -0.82456  -0.79042  -0.77755  -0.77487
 Alpha  occ. eigenvalues --   -0.72069  -0.71202  -0.70503  -0.65049  -0.64803
 Alpha  occ. eigenvalues --   -0.64586  -0.62146  -0.60379  -0.58795  -0.57005
 Alpha  occ. eigenvalues --   -0.55301  -0.54686  -0.53129  -0.52890  -0.52050
 Alpha  occ. eigenvalues --   -0.51802  -0.49361  -0.48832  -0.48814  -0.47342
 Alpha  occ. eigenvalues --   -0.46103  -0.45282  -0.45222  -0.44836  -0.43165
 Alpha  occ. eigenvalues --   -0.37376  -0.36401
 Alpha virt. eigenvalues --    0.05010   0.11248   0.16485   0.21208   0.23272
 Alpha virt. eigenvalues --    0.24603   0.26590   0.27252   0.27679   0.28004
 Alpha virt. eigenvalues --    0.29019   0.30704   0.31650   0.32187   0.32579

 Mulliken charges:
               1
     1  C   -0.170706
     2  C   -0.218599
     3  C   -0.170915
     4  C    0.157902
     5  C   -0.170953
     6  C   -0.218718
     7  H    0.225691
     8  H    0.223542
     9  H    0.275677
    10  H    0.276483
    11  H    0.223530
    12  N    0.489017
    13  O   -0.458569
    14  O   -0.460280
    15  C   -0.297465
    16  C   -0.299183
    17  C   -0.475366
    18  H    0.147339
    19  H    0.149278
    20  H    0.150706
    21  H    0.152391
    22  H    0.155087
    23  H    0.153976
    24  H    0.159313
    25  C   -0.297280
    26  C   -0.302844
    27  C   -0.464556
    28  H    0.146855
    29  H    0.150838
    30  H    0.145459
    31  H    0.150265
    32  H    0.160628
    33  H    0.150780
    34  H    0.160678
 Sum of Mulliken charges =  -0.00000

 Dipole moment (field-independent basis, Debye):
    X=             -2.6882    Y=              4.4404    Z=              0.4944  Tot=              5.2142
 Quadrupole moment (field-independent basis, Debye-Ang):
   XX=            -76.5805   YY=            -95.1352   ZZ=            -94.7270
   XY=            -14.4799   XZ=             -3.9950   YZ=             -2.3043

 Normal termination of Gaussian 16 at Thu May  6 09:23:36 2021.
