 Gaussian 16, Revision A.03,
 Gaussian 16:  EM64L-G16RevA.03 25-Dec-2016

 -------------
 #p 6-31g* mp2
 -------------

 ------------------------------------------------------
 Input file generated by CHIRIPA (05-May-2021 14:57:22)
 ------------------------------------------------------
 Symbolic Z-matrix:
 Charge =  0 Multiplicity = 1

                         Standard orientation:
 ---------------------------------------------------------------------
 Center     Atomic      Atomic             Coordinates (Angstroms)
 Number     Number       Type             X           Y           Z
 ---------------------------------------------------------------------
      1          6           0       -1.908104    2.202343   -1.279145
      2          6           0       -3.236809    2.314202   -0.856593
      3          6           0       -3.868653    1.247377   -0.210678
      4          6           0       -3.138730    0.078088   -0.002669
      5          6           0       -1.813731   -0.064004   -0.411908
      6          6           0       -1.202050    1.015689   -1.055848
      7          1           0       -1.425104    3.036076   -1.780140
      8          1           0       -3.787588    3.234570   -1.028670
      9          1           0       -4.896253    1.306935    0.126825
     10          1           0       -1.290478   -0.994146   -0.226273
     11          1           0       -0.170051    0.925983   -1.382920
     12          7           0       -3.796962   -1.058123    0.680086
     13          8           0       -3.132125   -2.077568    0.851439
     14          8           0       -4.965257   -0.907726    1.030950
     15          6           0        3.852151    1.682510    1.492235
     16          6           0        4.391297    1.445185    0.223567
     17          6           0        3.943493    0.368909   -0.548217
     18          6           0        2.950787   -0.453662   -0.017932
     19          6           0        2.393942   -0.243274    1.242604
     20          6           0        2.856949    0.839010    1.996815
     21          1           0        4.205922    2.520920    2.084950
     22          1           0        5.164292    2.098610   -0.170846
     23          1           0        4.343514    0.162183   -1.533440
     24          1           0        1.624513   -0.912014    1.608916
     25          1           0        2.436422    1.020908    2.981760
     26          7           0        2.468669   -1.596246   -0.825683
     27          8           0        1.593138   -2.306263   -0.335826
     28          8           0        2.975446   -1.760154   -1.933361
 ---------------------------------------------------------------------

 SCF Done:  E(RHF) =  -868.338660139     A.U. after   16 cycles
 E2 =    -0.2600025573D+01 EUMP2 =    -0.87093868571244D+03

 The electronic state is 1-A.
 Alpha  occ. eigenvalues --  -20.61537 -20.61517 -20.60428 -20.60403 -15.86555
 Alpha  occ. eigenvalues --  -15.85471 -11.31863 -11.30858 -11.28412 -11.28377
 Alpha  occ. eigenvalues --  -11.28102 -11.27490 -11.27389 -11.27346 -11.27326
 Alpha  occ. eigenvalues --  -11.27252 -11.26521 -11.26456  -1.60600  -1.59498
 Alpha  occ. eigenvalues --   -1.40149  -1.39047  -1.20018  -1.19055  -1.09420
 Alpha  occ. eigenvalues --   -1.08459  -1.05385  -1.04453  -0.96258  -0.95276
 Alpha  occ. eigenvalues --   -0.86787  -0.85854  -0.83074  -0.82101  -0.78144
 Alpha  occ. eigenvalues --   -0.77129  -0.72747  -0.71945  -0.71684  -0.71088
 Alpha  occ. eigenvalues --   -0.70828  -0.70156  -0.65649  -0.65362  -0.64706
 Alpha  occ. eigenvalues --   -0.64461  -0.62718  -0.61770  -0.55871  -0.54986
 Alpha  occ. eigenvalues --   -0.53754  -0.53455  -0.52802  -0.52530  -0.49525
 Alpha  occ. eigenvalues --   -0.49509  -0.48460  -0.48432  -0.45547  -0.44447
 Alpha  occ. eigenvalues --   -0.38002  -0.37079  -0.36995  -0.36052
 Alpha virt. eigenvalues --    0.04312   0.05383   0.10642   0.11575   0.15801
 Alpha virt. eigenvalues --    0.16853   0.20781   0.21612   0.26491   0.27045
 Alpha virt. eigenvalues --    0.27697   0.28683   0.30566   0.30931   0.31783

 Mulliken charges:
               1
     1  C   -0.171554
     2  C   -0.219421
     3  C   -0.171310
     4  C    0.157651
     5  C   -0.179394
     6  C   -0.220043
     7  H    0.223296
     8  H    0.221536
     9  H    0.274401
    10  H    0.290689
    11  H    0.221850
    12  N    0.487222
    13  O   -0.456419
    14  O   -0.463011
    15  C   -0.170822
    16  C   -0.219086
    17  C   -0.173301
    18  C    0.152937
    19  C   -0.173922
    20  C   -0.218118
    21  H    0.227887
    22  H    0.225074
    23  H    0.276524
    24  H    0.279937
    25  H    0.227570
    26  N    0.486240
    27  O   -0.459485
    28  O   -0.456929
 Sum of Mulliken charges =  -0.00000

 Dipole moment (field-independent basis, Debye):
    X=              4.2602    Y=              7.9201    Z=              0.5289  Tot=              9.0087
 Quadrupole moment (field-independent basis, Debye-Ang):
   XX=           -104.4170   YY=           -107.1441   ZZ=           -103.0894
   XY=             -2.5228   XZ=             13.2054   YZ=             -2.1927

 Normal termination of Gaussian 16 at Thu May  6 19:30:45 2021.
