 Gaussian 16, Revision A.03,
 Gaussian 16:  EM64L-G16RevA.03 25-Dec-2016

 -------------
 #p 6-31g* mp2
 -------------

 ------------------------------------------------------
 Input file generated by CHIRIPA (05-May-2021 14:57:26)
 ------------------------------------------------------
 Symbolic Z-matrix:
 Charge =  0 Multiplicity = 1

                         Standard orientation:
 ---------------------------------------------------------------------
 Center     Atomic      Atomic             Coordinates (Angstroms)
 Number     Number       Type             X           Y           Z
 ---------------------------------------------------------------------
      1          6           0       -5.269859    1.767455    0.087770
      2          6           0       -4.010864    1.800058    0.696367
      3          6           0       -3.192241    0.666743    0.695446
      4          6           0       -3.666330   -0.487494    0.073942
      5          6           0       -4.915816   -0.551336   -0.540875
      6          6           0       -5.717527    0.593931   -0.527823
      7          1           0       -5.899216    2.652484    0.093197
      8          1           0       -3.660603    2.710047    1.175201
      9          1           0       -2.213262    0.664313    1.159139
     10          1           0       -5.237621   -1.473052   -1.010236
     11          1           0       -6.694828    0.565711   -1.001250
     12          7           0       -2.808643   -1.693610    0.066545
     13          8           0       -3.249409   -2.698173   -0.487725
     14          8           0       -1.711862   -1.611563    0.615159
     15          6           0        2.004276    2.037372   -0.311413
     16          6           0        3.350832    2.415931   -0.312549
     17          6           0        4.358461    1.455583   -0.182305
     18          6           0        3.982035    0.119658   -0.052321
     19          6           0        2.649251   -0.288946   -0.047621
     20          6           0        1.658393    0.688520   -0.179186
     21          1           0        1.228039    2.790042   -0.413102
     22          1           0        3.622392    3.462730   -0.415076
     23          1           0        5.408705    1.720913   -0.180037
     24          1           0        2.409553   -1.340214    0.056294
     25          1           0        0.613456    0.391618   -0.177974
     26          7           0        5.039889   -0.906081    0.086261
     27          8           0        4.682082   -2.076477    0.199333
     28          8           0        6.206813   -0.520238    0.079185
 ---------------------------------------------------------------------

 SCF Done:  E(RHF) =  -868.338711626     A.U. after   16 cycles
 E2 =    -0.2599116005D+01 EUMP2 =    -0.87093782763096D+03

 The electronic state is 1-A.
 Alpha  occ. eigenvalues --  -20.61701 -20.61632 -20.60307 -20.60286 -15.86698
 Alpha  occ. eigenvalues --  -15.85350 -11.31984 -11.30710 -11.28592 -11.28488
 Alpha  occ. eigenvalues --  -11.28229 -11.27553 -11.27482 -11.27329 -11.27174
 Alpha  occ. eigenvalues --  -11.27106 -11.26389 -11.26208  -1.60722  -1.59376
 Alpha  occ. eigenvalues --   -1.40283  -1.38927  -1.20139  -1.18892  -1.09541
 Alpha  occ. eigenvalues --   -1.08314  -1.05532  -1.04269  -0.96393  -0.95141
 Alpha  occ. eigenvalues --   -0.86932  -0.85690  -0.83231  -0.81948  -0.78301
 Alpha  occ. eigenvalues --   -0.76975  -0.72916  -0.72032  -0.71570  -0.71238
 Alpha  occ. eigenvalues --   -0.70699  -0.70045  -0.65793  -0.65529  -0.64544
 Alpha  occ. eigenvalues --   -0.64270  -0.62886  -0.61588  -0.56013  -0.54858
 Alpha  occ. eigenvalues --   -0.53859  -0.53621  -0.52638  -0.52350  -0.49680
 Alpha  occ. eigenvalues --   -0.49653  -0.48335  -0.48318  -0.45694  -0.44332
 Alpha  occ. eigenvalues --   -0.38098  -0.37133  -0.36931  -0.35872
 Alpha virt. eigenvalues --    0.04193   0.05524   0.10489   0.11748   0.15707
 Alpha virt. eigenvalues --    0.16996   0.20126   0.21887   0.25621   0.27001
 Alpha virt. eigenvalues --    0.28546   0.28710   0.30099   0.31057   0.32353

 Mulliken charges:
               1
     1  C   -0.170212
     2  C   -0.218447
     3  C   -0.175091
     4  C    0.159057
     5  C   -0.170119
     6  C   -0.218020
     7  H    0.227984
     8  H    0.223664
     9  H    0.272149
    10  H    0.277979
    11  H    0.226390
    12  N    0.489265
    13  O   -0.453341
    14  O   -0.468044
    15  C   -0.172193
    16  C   -0.218543
    17  C   -0.172004
    18  C    0.158238
    19  C   -0.171578
    20  C   -0.225854
    21  H    0.218790
    22  H    0.220301
    23  H    0.273988
    24  H    0.284313
    25  H    0.234157
    26  N    0.487830
    27  O   -0.457780
    28  O   -0.462878
 Sum of Mulliken charges =  -0.00000

 Dipole moment (field-independent basis, Debye):
    X=             -7.1442    Y=              7.6459    Z=             -0.5016  Tot=             10.4762
 Quadrupole moment (field-independent basis, Debye-Ang):
   XX=           -107.1005   YY=           -105.0810   ZZ=           -105.0334
   XY=              4.2074   XZ=              0.0385   YZ=              1.3991

 Normal termination of Gaussian 16 at Thu May  6 13:07:00 2021.
