 Gaussian 16, Revision A.03,
 Gaussian 16:  EM64L-G16RevA.03 25-Dec-2016

 -------------
 #p 6-31g* mp2
 -------------

 ------------------------------------------------------
 Input file generated by CHIRIPA (05-May-2021 14:57:25)
 ------------------------------------------------------
 Symbolic Z-matrix:
 Charge =  0 Multiplicity = 1

                         Standard orientation:
 ---------------------------------------------------------------------
 Center     Atomic      Atomic             Coordinates (Angstroms)
 Number     Number       Type             X           Y           Z
 ---------------------------------------------------------------------
      1          6           0       -4.845351    1.958153   -0.516524
      2          6           0       -5.455136    0.701676   -0.439397
      3          6           0       -4.705274   -0.432724   -0.114756
      4          6           0       -3.341763   -0.273545    0.127707
      5          6           0       -2.705320    0.964785    0.058648
      6          6           0       -3.474805    2.085473   -0.267694
      7          1           0       -5.435483    2.834057   -0.769374
      8          1           0       -6.519335    0.599808   -0.632137
      9          1           0       -5.151850   -1.417384   -0.048178
     10          1           0       -1.642528    1.034828    0.256095
     11          1           0       -2.998565    3.060018   -0.326872
     12          7           0       -2.537530   -1.467226    0.472290
     13          8           0       -1.337918   -1.300391    0.681415
     14          8           0       -3.122014   -2.547065    0.526726
     15          6           0        3.911104    2.520813    0.378523
     16          6           0        4.981235    1.647412    0.158267
     17          6           0        4.751019    0.291292   -0.091708
     18          6           0        3.432082   -0.159465   -0.114366
     19          6           0        2.344779    0.685843    0.101315
     20          6           0        2.598606    2.038091    0.349396
     21          1           0        4.099112    3.572776    0.571974
     22          1           0        6.001581    2.019508    0.180299
     23          1           0        5.560857   -0.406820   -0.265545
     24          1           0        1.338624    0.285498    0.073153
     25          1           0        1.765576    2.714084    0.520102
     26          7           0        3.175865   -1.593079   -0.378000
     27          8           0        2.004613   -1.965357   -0.392727
     28          8           0        4.151145   -2.317322   -0.564917
 ---------------------------------------------------------------------

 SCF Done:  E(RHF) =  -868.335760539     A.U. after   16 cycles
 E2 =    -0.2600742469D+01 EUMP2 =    -0.87093650300733D+03

 The electronic state is 1-A.
 Alpha  occ. eigenvalues --  -20.60656 -20.60623 -20.59999 -20.59907 -15.85691
 Alpha  occ. eigenvalues --  -15.85012 -11.31299 -11.30696 -11.27987 -11.27838
 Alpha  occ. eigenvalues --  -11.27646 -11.27339 -11.27280 -11.27180 -11.26998
 Alpha  occ. eigenvalues --  -11.26904 -11.26469 -11.26413  -1.59693  -1.59039
 Alpha  occ. eigenvalues --   -1.39248  -1.38573  -1.19483  -1.18923  -1.08823
 Alpha  occ. eigenvalues --   -1.08268  -1.04933  -1.04382  -0.95624  -0.95037
 Alpha  occ. eigenvalues --   -0.86318  -0.85761  -0.82463  -0.81867  -0.77498
 Alpha  occ. eigenvalues --   -0.76834  -0.71905  -0.71206  -0.71012  -0.70597
 Alpha  occ. eigenvalues --   -0.70380  -0.70028  -0.65137  -0.64945  -0.64570
 Alpha  occ. eigenvalues --   -0.64405  -0.62308  -0.61703  -0.55407  -0.54889
 Alpha  occ. eigenvalues --   -0.53229  -0.53040  -0.52690  -0.52484  -0.48659
 Alpha  occ. eigenvalues --   -0.48650  -0.48031  -0.47943  -0.44587  -0.43910
 Alpha  occ. eigenvalues --   -0.37454  -0.36935  -0.36541  -0.35999
 Alpha virt. eigenvalues --    0.05074   0.05692   0.11110   0.11656   0.16526
 Alpha virt. eigenvalues --    0.17105   0.19576   0.22030   0.24935   0.27455
 Alpha virt. eigenvalues --    0.28147   0.29297   0.30696   0.31418   0.31940

 Mulliken charges:
               1
     1  C   -0.171037
     2  C   -0.218045
     3  C   -0.170221
     4  C    0.160123
     5  C   -0.169109
     6  C   -0.218211
     7  H    0.225519
     8  H    0.224359
     9  H    0.277450
    10  H    0.266859
    11  H    0.219982
    12  N    0.491128
    13  O   -0.459648
    14  O   -0.457040
    15  C   -0.171076
    16  C   -0.219255
    17  C   -0.170311
    18  C    0.157346
    19  C   -0.178051
    20  C   -0.219382
    21  H    0.222543
    22  H    0.221763
    23  H    0.275272
    24  H    0.290894
    25  H    0.214283
    26  N    0.485680
    27  O   -0.446309
    28  O   -0.465506
 Sum of Mulliken charges =  -0.00000

 Dipole moment (field-independent basis, Debye):
    X=             -2.1778    Y=              8.9159    Z=             -0.2904  Tot=              9.1826
 Quadrupole moment (field-independent basis, Debye-Ang):
   XX=            -71.9307   YY=           -108.2721   ZZ=           -107.1177
   XY=              5.6739   XZ=              6.8523   YZ=              0.3506

 Normal termination of Gaussian 16 at Fri May  7 09:34:45 2021.
