 Gaussian 16, Revision A.03,
 Gaussian 16:  EM64L-G16RevA.03 25-Dec-2016

 -------------
 #p 6-31g* mp2
 -------------

 ------------------------------------------------------
 Input file generated by CHIRIPA (05-May-2021 14:57:23)
 ------------------------------------------------------
 Symbolic Z-matrix:
 Charge =  0 Multiplicity = 1

                         Standard orientation:
 ---------------------------------------------------------------------
 Center     Atomic      Atomic             Coordinates (Angstroms)
 Number     Number       Type             X           Y           Z
 ---------------------------------------------------------------------
      1          6           0       -2.938619    2.608162    0.666420
      2          6           0       -3.932799    2.129696   -0.193347
      3          6           0       -4.004353    0.769582   -0.508811
      4          6           0       -3.061354   -0.087844    0.055869
      5          6           0       -2.059006    0.358400    0.915784
      6          6           0       -2.006539    1.722549    1.217270
      7          1           0       -2.890448    3.666299    0.906051
      8          1           0       -4.657991    2.815169   -0.622611
      9          1           0       -4.763581    0.372289   -1.171494
     10          1           0       -1.350078   -0.349212    1.328245
     11          1           0       -1.233353    2.091314    1.885282
     12          7           0       -3.127001   -1.529872   -0.270700
     13          8           0       -2.284415   -2.264751    0.239828
     14          8           0       -4.019798   -1.897949   -1.031009
     15          6           0        4.178726    2.068323   -0.525565
     16          6           0        2.826721    1.900345   -0.842407
     17          6           0        2.191312    0.675738   -0.616261
     18          6           0        2.941465   -0.364261   -0.069486
     19          6           0        4.289902   -0.227968    0.256749
     20          6           0        4.904721    1.005505    0.022038
     21          1           0        4.664329    3.023072   -0.704567
     22          1           0        2.260423    2.723994   -1.267792
     23          1           0        1.145874    0.518279   -0.852235
     24          1           0        4.828274   -1.067457    0.679638
     25          1           0        5.954835    1.133087    0.269078
     26          7           0        2.279685   -1.665391    0.174459
     27          8           0        2.962642   -2.566069    0.657144
     28          8           0        1.090555   -1.759900   -0.121641
 ---------------------------------------------------------------------

 SCF Done:  E(RHF) =  -868.336387030     A.U. after   16 cycles
 E2 =    -0.2601088435D+01 EUMP2 =    -0.87093747546502D+03

 The electronic state is 1-A.
 Alpha  occ. eigenvalues --  -20.60696 -20.60680 -20.60080 -20.59954 -15.85730
 Alpha  occ. eigenvalues --  -15.85073 -11.31309 -11.30822 -11.27906 -11.27883
 Alpha  occ. eigenvalues --  -11.27676 -11.27474 -11.27365 -11.27313 -11.26975
 Alpha  occ. eigenvalues --  -11.26938 -11.26572 -11.26561  -1.59760  -1.59093
 Alpha  occ. eigenvalues --   -1.39308  -1.38625  -1.19503  -1.19053  -1.08857
 Alpha  occ. eigenvalues --   -1.08384  -1.04932  -1.04504  -0.95652  -0.95141
 Alpha  occ. eigenvalues --   -0.86320  -0.85875  -0.82477  -0.81961  -0.77512
 Alpha  occ. eigenvalues --   -0.76914  -0.71937  -0.71269  -0.71099  -0.70601
 Alpha  occ. eigenvalues --   -0.70421  -0.70140  -0.65145  -0.64932  -0.64685
 Alpha  occ. eigenvalues --   -0.64501  -0.62277  -0.61807  -0.55421  -0.55012
 Alpha  occ. eigenvalues --   -0.53261  -0.53043  -0.52812  -0.52582  -0.48717
 Alpha  occ. eigenvalues --   -0.48682  -0.48096  -0.48001  -0.44660  -0.43931
 Alpha  occ. eigenvalues --   -0.37499  -0.37081  -0.36563  -0.36129
 Alpha virt. eigenvalues --    0.04981   0.05599   0.11086   0.11489   0.16441
 Alpha virt. eigenvalues --    0.16974   0.21175   0.21699   0.26999   0.27523
 Alpha virt. eigenvalues --    0.28064   0.28707   0.30604   0.31245   0.32114

 Mulliken charges:
               1
     1  C   -0.172873
     2  C   -0.219386
     3  C   -0.171525
     4  C    0.156764
     5  C   -0.174582
     6  C   -0.224159
     7  H    0.222336
     8  H    0.221634
     9  H    0.275495
    10  H    0.288501
    11  H    0.221083
    12  N    0.486440
    13  O   -0.443801
    14  O   -0.466138
    15  C   -0.171506
    16  C   -0.219608
    17  C   -0.175611
    18  C    0.158190
    19  C   -0.170966
    20  C   -0.218478
    21  H    0.225114
    22  H    0.222029
    23  H    0.276029
    24  H    0.276766
    25  H    0.223890
    26  N    0.487025
    27  O   -0.458651
    28  O   -0.454012
 Sum of Mulliken charges =  -0.00000

 Dipole moment (field-independent basis, Debye):
    X=              2.6772    Y=              9.2950    Z=              0.3242  Tot=              9.6783
 Quadrupole moment (field-independent basis, Debye-Ang):
   XX=            -86.6586   YY=           -109.4710   ZZ=           -103.6349
   XY=             -5.1996   XZ=             -1.9052   YZ=             -1.3371

 Normal termination of Gaussian 16 at Thu May  6 12:56:24 2021.
