 Gaussian 16, Revision A.03,
 Gaussian 16:  EM64L-G16RevA.03 25-Dec-2016

 -------------
 #p 6-31g* mp2
 -------------

 ------------------------------------------------------
 Input file generated by CHIRIPA (05-May-2021 14:57:27)
 ------------------------------------------------------
 Symbolic Z-matrix:
 Charge =  0 Multiplicity = 1

                         Standard orientation:
 ---------------------------------------------------------------------
 Center     Atomic      Atomic             Coordinates (Angstroms)
 Number     Number       Type             X           Y           Z
 ---------------------------------------------------------------------
      1          6           0        5.150102    1.281604    1.185479
      2          6           0        3.852642    1.180399    1.698195
      3          6           0        2.904639    0.363446    1.074957
      4          6           0        3.289978   -0.341423   -0.064325
      5          6           0        4.574791   -0.261468   -0.599256
      6          6           0        5.506407    0.561617    0.040409
      7          1           0        5.880169    1.918614    1.676006
      8          1           0        3.573124    1.738397    2.587325
      9          1           0        1.893238    0.266675    1.450619
     10          1           0        4.823857   -0.829863   -1.487125
     11          1           0        6.513303    0.638283   -0.360001
     12          7           0        2.295043   -1.209541   -0.732814
     13          8           0        2.659493   -1.820270   -1.735222
     14          8           0        1.169603   -1.262803   -0.241709
     15          6           0       -2.833816    2.337188   -1.231899
     16          6           0       -2.106229    1.167044   -1.472523
     17          6           0       -2.440923   -0.023771   -0.820997
     18          6           0       -3.513908   -0.008429    0.068812
     19          6           0       -4.258029    1.141152    0.329654
     20          6           0       -3.905504    2.320538   -0.333162
     21          1           0       -2.566891    3.257802   -1.742405
     22          1           0       -1.273457    1.177022   -2.169974
     23          1           0       -1.894599   -0.944008   -0.988661
     24          1           0       -5.083076    1.100085    1.030389
     25          1           0       -4.472333    3.227782   -0.144338
     26          7           0       -3.877673   -1.263041    0.764530
     27          8           0       -4.827279   -1.223248    1.543826
     28          8           0       -3.206296   -2.262441    0.517365
 ---------------------------------------------------------------------

 SCF Done:  E(RHF) =  -868.338813547     A.U. after   16 cycles
 E2 =    -0.2598883128D+01 EUMP2 =    -0.87093769667495D+03

 The electronic state is 1-A.
 Alpha  occ. eigenvalues --  -20.61240 -20.61231 -20.60001 -20.59954 -15.86272
 Alpha  occ. eigenvalues --  -15.85031 -11.31527 -11.30381 -11.28084 -11.28069
 Alpha  occ. eigenvalues --  -11.27806 -11.27073 -11.27068 -11.27059 -11.26822
 Alpha  occ. eigenvalues --  -11.26804 -11.26097 -11.25943  -1.60308  -1.59061
 Alpha  occ. eigenvalues --   -1.39862  -1.38609  -1.19691  -1.18593  -1.09108
 Alpha  occ. eigenvalues --   -1.08013  -1.05073  -1.03975  -0.95958  -0.94828
 Alpha  occ. eigenvalues --   -0.86476  -0.85387  -0.82790  -0.81645  -0.77850
 Alpha  occ. eigenvalues --   -0.76668  -0.72494  -0.71628  -0.71250  -0.70792
 Alpha  occ. eigenvalues --   -0.70389  -0.69706  -0.65342  -0.65071  -0.64243
 Alpha  occ. eigenvalues --   -0.63987  -0.62416  -0.61284  -0.55578  -0.54543
 Alpha  occ. eigenvalues --   -0.53415  -0.53159  -0.52348  -0.52058  -0.49251
 Alpha  occ. eigenvalues --   -0.49239  -0.48028  -0.47988  -0.45289  -0.44015
 Alpha  occ. eigenvalues --   -0.37670  -0.36674  -0.36639  -0.35580
 Alpha virt. eigenvalues --    0.04653   0.05842   0.10982   0.12054   0.16164
 Alpha virt. eigenvalues --    0.17296   0.21144   0.22174   0.27073   0.27920
 Alpha virt. eigenvalues --    0.28186   0.29128   0.30736   0.31666   0.32264

 Mulliken charges:
               1
     1  C   -0.170463
     2  C   -0.218832
     3  C   -0.171452
     4  C    0.156999
     5  C   -0.171007
     6  C   -0.218725
     7  H    0.226645
     8  H    0.224772
     9  H    0.277513
    10  H    0.275985
    11  H    0.224351
    12  N    0.488584
    13  O   -0.458800
    14  O   -0.463747
    15  C   -0.172225
    16  C   -0.222175
    17  C   -0.169851
    18  C    0.155032
    19  C   -0.172209
    20  C   -0.220282
    21  H    0.221533
    22  H    0.224759
    23  H    0.294334
    24  H    0.272729
    25  H    0.219422
    26  N    0.487326
    27  O   -0.465838
    28  O   -0.454377
 Sum of Mulliken charges =  -0.00000

 Dipole moment (field-independent basis, Debye):
    X=              5.1337    Y=              7.2858    Z=             -0.1231  Tot=              8.9136
 Quadrupole moment (field-independent basis, Debye-Ang):
   XX=            -87.0758   YY=           -106.9994   ZZ=           -103.0280
   XY=             -9.0227   XZ=             11.9671   YZ=              1.8766

 Normal termination of Gaussian 16 at Thu May  6 08:24:30 2021.
