 Gaussian 16, Revision A.03,
 Gaussian 16:  EM64L-G16RevA.03 25-Dec-2016

 -------------
 #p 6-31g* mp2
 -------------

 ------------------------------------------------------
 Input file generated by CHIRIPA (05-May-2021 14:51:09)
 ------------------------------------------------------
 Symbolic Z-matrix:
 Charge =  0 Multiplicity = 1

                         Standard orientation:
 ---------------------------------------------------------------------
 Center     Atomic      Atomic             Coordinates (Angstroms)
 Number     Number       Type             X           Y           Z
 ---------------------------------------------------------------------
      1          6           0        2.314999   -0.427431    0.392206
      2          6           0        3.311937    0.412103   -0.407344
      3          6           0        3.722906    1.692966    0.319490
      4          1           0        1.422986    0.177715    0.604475
      5          1           0        2.758210   -0.682702    1.364726
      6          1           0        2.867514    0.664549   -1.378619
      7          1           0        4.201599   -0.195173   -0.617899
      8          1           0        4.190218    1.457231    1.281077
      9          1           0        2.848553    2.321837    0.516034
     10          1           0        4.435912    2.277876   -0.269886
     11          6           0        1.894610   -1.711132   -0.321315
     12          6           0        0.897671   -2.550666    0.478235
     13          6           0        0.486702   -3.831529   -0.248599
     14          1           0        1.451398   -1.455861   -1.293835
     15          1           0        2.786622   -2.316278   -0.533584
     16          1           0        0.008009   -1.943390    0.688790
     17          1           0        1.342094   -2.803112    1.449510
     18          1           0        1.361055   -4.460400   -0.445143
     19          1           0        0.019390   -3.595794   -1.210186
     20          1           0       -0.226303   -4.416439    0.340777
     21          6           0       -2.619639    0.617250    0.302259
     22          6           0       -2.852662   -0.697970   -0.441972
     23          6           0       -3.885234   -1.591521    0.245891
     24          1           0       -2.291797    0.397872    1.327607
     25          1           0       -3.573424    1.156141    0.387617
     26          1           0       -1.898464   -1.233578   -0.527115
     27          1           0       -3.179802   -0.475435   -1.465726
     28          1           0       -4.850610   -1.080110    0.317374
     29          1           0       -3.561991   -1.842561    1.261319
     30          1           0       -4.036340   -2.526326   -0.302896
     31          6           0       -1.589970    1.521312   -0.373150
     32          6           0       -1.356947    2.836533    0.371081
     33          6           0       -0.324374    3.730084   -0.316782
     34          1           0       -0.636184    0.982422   -0.458508
     35          1           0       -1.917811    1.740691   -1.398498
     36          1           0       -1.029806    2.613997    1.394835
     37          1           0       -2.311144    3.372140    0.456224
     38          1           0       -0.647617    3.981123   -1.332210
     39          1           0        0.641002    3.218673   -0.388265
     40          1           0       -0.173268    4.664889    0.232005
 ---------------------------------------------------------------------

 SCF Done:  E(RHF) =  -470.732645758     A.U. after   11 cycles
 E2 =    -0.1585399405D+01 EUMP2 =    -0.47231804516275D+03

 The electronic state is 1-A.
 Alpha  occ. eigenvalues --  -11.21658 -11.21648 -11.21645 -11.21619 -11.21461
 Alpha  occ. eigenvalues --  -11.21458 -11.21402 -11.21399 -11.21122 -11.21112
 Alpha  occ. eigenvalues --  -11.21101 -11.21091  -1.08546  -1.08435  -1.03634
 Alpha  occ. eigenvalues --   -1.03527  -0.96073  -0.95983  -0.87090  -0.86998
 Alpha  occ. eigenvalues --   -0.79719  -0.79569  -0.78403  -0.78215  -0.65569
 Alpha  occ. eigenvalues --   -0.64711  -0.61398  -0.60615  -0.59414  -0.59351
 Alpha  occ. eigenvalues --   -0.57706  -0.57590  -0.55635  -0.55026  -0.52729
 Alpha  occ. eigenvalues --   -0.52699  -0.52534  -0.52367  -0.50211  -0.49690
 Alpha  occ. eigenvalues --   -0.48152  -0.47820  -0.46932  -0.46384  -0.46330
 Alpha  occ. eigenvalues --   -0.45822  -0.45784  -0.45211  -0.43842  -0.43818
 Alpha virt. eigenvalues --    0.18537   0.21125   0.23484   0.25465   0.25959
 Alpha virt. eigenvalues --    0.26007   0.26740   0.27916   0.29013   0.29910
 Alpha virt. eigenvalues --    0.30936   0.31522   0.31638   0.31819   0.32288

 Mulliken charges:
               1
     1  C   -0.303946
     2  C   -0.300054
     3  C   -0.480670
     4  H    0.153558
     5  H    0.150148
     6  H    0.152359
     7  H    0.152484
     8  H    0.155448
     9  H    0.159417
    10  H    0.160850
    11  C   -0.299178
    12  C   -0.305220
    13  C   -0.476504
    14  H    0.150134
    15  H    0.150383
    16  H    0.155795
    17  H    0.152605
    18  H    0.155557
    19  H    0.155889
    20  H    0.160757
    21  C   -0.298555
    22  C   -0.306784
    23  C   -0.475644
    24  H    0.149747
    25  H    0.150154
    26  H    0.158522
    27  H    0.152141
    28  H    0.155345
    29  H    0.155246
    30  H    0.160640
    31  C   -0.305218
    32  C   -0.299718
    33  C   -0.481411
    34  H    0.154787
    35  H    0.150128
    36  H    0.152127
    37  H    0.152542
    38  H    0.155609
    39  H    0.159668
    40  H    0.160859
 Sum of Mulliken charges =  -0.00000

 Dipole moment (field-independent basis, Debye):
    X=              0.0043    Y=             -0.0080    Z=             -0.0040  Tot=              0.0100
 Quadrupole moment (field-independent basis, Debye-Ang):
   XX=            -84.2325   YY=            -85.7371   ZZ=            -84.5906
   XY=             -1.6586   XZ=              0.8633   YZ=             -0.5552

 Normal termination of Gaussian 16 at Wed May  5 18:08:21 2021.
