 Gaussian 16, Revision A.03,
 Gaussian 16:  EM64L-G16RevA.03 25-Dec-2016

 -------------
 #p 6-31g* mp2
 -------------

 ------------------------------------------------------
 Input file generated by CHIRIPA (05-May-2021 14:51:09)
 ------------------------------------------------------
 Symbolic Z-matrix:
 Charge =  0 Multiplicity = 1

                         Standard orientation:
 ---------------------------------------------------------------------
 Center     Atomic      Atomic             Coordinates (Angstroms)
 Number     Number       Type             X           Y           Z
 ---------------------------------------------------------------------
      1          6           0       -2.976643   -0.365881   -0.201928
      2          6           0       -1.840726   -0.064055    0.776120
      3          6           0       -0.468815   -0.459329    0.228934
      4          1           0       -2.970768   -1.438106   -0.441188
      5          1           0       -2.789979    0.165889   -1.145205
      6          1           0       -2.030187   -0.595133    1.717755
      7          1           0       -1.849426    1.007542    1.013229
      8          1           0       -0.254112    0.080379   -0.699085
      9          1           0       -0.435901   -1.531402    0.009444
     10          1           0        0.328583   -0.234835    0.944210
     11          6           0       -4.354362    0.023708    0.330837
     12          6           0       -5.490279   -0.278118   -0.647211
     13          6           0       -6.862190    0.117156   -0.100025
     14          1           0       -4.541026   -0.508062    1.274115
     15          1           0       -4.360238    1.095932    0.570098
     16          1           0       -5.481579   -1.349715   -0.884319
     17          1           0       -5.300818    0.252960   -1.588845
     18          1           0       -6.895105    1.189229    0.119465
     19          1           0       -7.076893   -0.422552    0.827994
     20          1           0       -7.659588   -0.107338   -0.815300
     21          6           0        3.643604   -0.511014    0.278606
     22          6           0        4.237045   -1.635948   -0.570122
     23          6           0        4.186030   -2.994398    0.129740
     24          1           0        4.186239   -0.454421    1.232172
     25          1           0        2.601916   -0.758204    0.525945
     26          1           0        5.276875   -1.386059   -0.816948
     27          1           0        3.693058   -1.689744   -1.521858
     28          1           0        3.152097   -3.269637    0.361749
     29          1           0        4.744914   -2.964226    1.070664
     30          1           0        4.615364   -3.784088   -0.494696
     31          6           0        3.687401    0.853187   -0.407516
     32          6           0        3.093961    1.978121    0.441212
     33          6           0        3.144975    3.336571   -0.258649
     34          1           0        4.729089    1.100377   -0.654855
     35          1           0        3.144765    0.796595   -1.361082
     36          1           0        3.637947    2.031917    1.392948
     37          1           0        2.054130    1.728233    0.688038
     38          1           0        2.586092    3.306400   -1.199574
     39          1           0        4.178908    3.611810   -0.490659
     40          1           0        2.715641    4.126261    0.365787
 ---------------------------------------------------------------------

 SCF Done:  E(RHF) =  -470.732888623     A.U. after   11 cycles
 E2 =    -0.1583228471D+01 EUMP2 =    -0.47231611709452D+03

 The electronic state is 1-A.
 Alpha  occ. eigenvalues --  -11.21681 -11.21634 -11.21530 -11.21522 -11.21457
 Alpha  occ. eigenvalues --  -11.21395 -11.21311 -11.21228 -11.21182 -11.21096
 Alpha  occ. eigenvalues --  -11.21037 -11.21014  -1.08489  -1.08349  -1.03596
 Alpha  occ. eigenvalues --   -1.03463  -0.96060  -0.95908  -0.87077  -0.86931
 Alpha  occ. eigenvalues --   -0.79671  -0.79529  -0.78303  -0.78158  -0.65124
 Alpha  occ. eigenvalues --   -0.64998  -0.61023  -0.60833  -0.59441  -0.59276
 Alpha  occ. eigenvalues --   -0.57676  -0.57513  -0.55333  -0.55213  -0.52821
 Alpha  occ. eigenvalues --   -0.52590  -0.52470  -0.52330  -0.50015  -0.49832
 Alpha  occ. eigenvalues --   -0.47988  -0.47847  -0.46702  -0.46542  -0.45846
 Alpha  occ. eigenvalues --   -0.45762  -0.45710  -0.45641  -0.43759  -0.43669
 Alpha virt. eigenvalues --    0.21177   0.23011   0.23944   0.24473   0.26001
 Alpha virt. eigenvalues --    0.26566   0.26919   0.27594   0.27867   0.29294
 Alpha virt. eigenvalues --    0.30718   0.31296   0.31747   0.31992   0.32165

 Mulliken charges:
               1
     1  C   -0.298793
     2  C   -0.299953
     3  C   -0.481590
     4  H    0.149782
     5  H    0.149574
     6  H    0.152427
     7  H    0.152401
     8  H    0.155586
     9  H    0.155178
    10  H    0.165920
    11  C   -0.298342
    12  C   -0.299661
    13  C   -0.475736
    14  H    0.149665
    15  H    0.149801
    16  H    0.151996
    17  H    0.151977
    18  H    0.155252
    19  H    0.155248
    20  H    0.160368
    21  C   -0.306774
    22  C   -0.298946
    23  C   -0.475744
    24  H    0.148531
    25  H    0.159490
    26  H    0.151439
    27  H    0.151905
    28  H    0.155137
    29  H    0.154897
    30  H    0.159909
    31  C   -0.297231
    32  C   -0.304297
    33  C   -0.475412
    34  H    0.149110
    35  H    0.149402
    36  H    0.151365
    37  H    0.156413
    38  H    0.154751
    39  H    0.155128
    40  H    0.159828
 Sum of Mulliken charges =  -0.00000

 Dipole moment (field-independent basis, Debye):
    X=             -0.0635    Y=             -0.0115    Z=              0.0094  Tot=              0.0652
 Quadrupole moment (field-independent basis, Debye-Ang):
   XX=            -85.2582   YY=            -85.1160   ZZ=            -84.6678
   XY=              0.5318   XZ=              0.5874   YZ=              0.0118

 Normal termination of Gaussian 16 at Thu May  6 02:08:34 2021.
