 Gaussian 16, Revision A.03,
 Gaussian 16:  EM64L-G16RevA.03 25-Dec-2016

 -------------
 #p 6-31g* mp2
 -------------

 ------------------------------------------------------
 Input file generated by CHIRIPA (05-May-2021 14:53:13)
 ------------------------------------------------------
 Symbolic Z-matrix:
 Charge =  0 Multiplicity = 1

                         Standard orientation:
 ---------------------------------------------------------------------
 Center     Atomic      Atomic             Coordinates (Angstroms)
 Number     Number       Type             X           Y           Z
 ---------------------------------------------------------------------
      1          6           0       -2.900167    1.006464   -0.388310
      2          6           0       -3.431123    2.245160    0.333980
      3          6           0       -3.035269    3.549002   -0.359625
      4          1           0       -1.805453    1.070048   -0.455425
      5          1           0       -3.276918    1.002812   -1.420511
      6          1           0       -3.054605    2.245750    1.364926
      7          1           0       -4.524685    2.178526    0.399553
      8          1           0       -3.424118    3.574555   -1.382730
      9          1           0       -1.945685    3.642161   -0.411872
     10          1           0       -3.425214    4.421741    0.173414
     11          6           0       -3.287654   -0.304760    0.293067
     12          6           0       -2.756697   -1.543455   -0.429222
     13          6           0       -3.152552   -2.847298    0.264383
     14          1           0       -2.910903   -0.301108    1.325269
     15          1           0       -4.382368   -0.368344    0.360182
     16          1           0       -1.663136   -1.476822   -0.494795
     17          1           0       -3.133216   -1.544046   -1.460168
     18          1           0       -4.242135   -2.940457    0.316630
     19          1           0       -2.763703   -2.872851    1.287488
     20          1           0       -2.762607   -3.720037   -0.268656
     21          6           0        4.015608    1.676808    0.105741
     22          6           0        3.781229    1.005873   -1.099014
     23          6           0        2.897602   -0.076382   -1.148740
     24          6           0        2.262582   -0.462710    0.030578
     25          6           0        2.475248    0.185539    1.246240
     26          6           0        3.363020    1.265224    1.272467
     27          1           0        4.703641    2.516532    0.135241
     28          1           0        4.286635    1.323318   -2.006670
     29          1           0        2.697756   -0.613638   -2.067889
     30          1           0        1.956651   -0.154044    2.134587
     31          1           0        3.543113    1.784411    2.209514
     32          7           0        1.324931   -1.607085   -0.009624
     33          8           0        0.777958   -1.927905    1.043244
     34          8           0        1.154727   -2.161557   -1.093243
 ---------------------------------------------------------------------

 SCF Done:  E(RHF) =  -669.536269694     A.U. after   15 cycles
 E2 =    -0.2092060958D+01 EUMP2 =    -0.67162833065140D+03

 The electronic state is 1-A.
 Alpha  occ. eigenvalues --  -20.61031 -20.61022 -15.86037 -11.31352 -11.27910
 Alpha  occ. eigenvalues --  -11.27903 -11.27640 -11.26905 -11.26895 -11.21205
 Alpha  occ. eigenvalues --  -11.20842 -11.20789 -11.20437 -11.20181 -11.19625
 Alpha  occ. eigenvalues --   -1.60084  -1.39635  -1.19514  -1.08921  -1.07639
 Alpha  occ. eigenvalues --   -1.04904  -1.02649  -0.95764  -0.95139  -0.86305
 Alpha  occ. eigenvalues --   -0.86169  -0.82599  -0.78800  -0.77658  -0.77363
 Alpha  occ. eigenvalues --   -0.72251  -0.71419  -0.70619  -0.65166  -0.64906
 Alpha  occ. eigenvalues --   -0.64270  -0.62250  -0.60033  -0.58584  -0.56710
 Alpha  occ. eigenvalues --   -0.55408  -0.54441  -0.53237  -0.52994  -0.51837
 Alpha  occ. eigenvalues --   -0.51567  -0.49129  -0.49032  -0.49011  -0.47082
 Alpha  occ. eigenvalues --   -0.45846  -0.45049  -0.44907  -0.44737  -0.42927
 Alpha  occ. eigenvalues --   -0.37488  -0.36503
 Alpha virt. eigenvalues --    0.04821   0.11152   0.16323   0.21289   0.23516
 Alpha virt. eigenvalues --    0.25269   0.27208   0.27285   0.28119   0.28293
 Alpha virt. eigenvalues --    0.28804   0.30872   0.32241   0.32393   0.32430

 Mulliken charges:
               1
     1  C   -0.296087
     2  C   -0.298669
     3  C   -0.474943
     4  H    0.144660
     5  H    0.148527
     6  H    0.150020
     7  H    0.151828
     8  H    0.154923
     9  H    0.152154
    10  H    0.158121
    11  C   -0.298605
    12  C   -0.302565
    13  C   -0.473083
    14  H    0.149928
    15  H    0.145664
    16  H    0.168174
    17  H    0.145547
    18  H    0.145620
    19  H    0.159773
    20  H    0.163987
    21  C   -0.170362
    22  C   -0.218609
    23  C   -0.170643
    24  C    0.159417
    25  C   -0.171025
    26  C   -0.218638
    27  H    0.226332
    28  H    0.224174
    29  H    0.276240
    30  H    0.275809
    31  H    0.224085
    32  N    0.485905
    33  O   -0.459335
    34  O   -0.458324
 Sum of Mulliken charges =  -0.00000

 Dipole moment (field-independent basis, Debye):
    X=              3.5888    Y=              3.8929    Z=              0.1551  Tot=              5.2970
 Quadrupole moment (field-independent basis, Debye-Ang):
   XX=            -80.3796   YY=           -100.3592   ZZ=            -89.8025
   XY=              7.7244   XZ=             -0.0797   YZ=              1.0955

 Normal termination of Gaussian 16 at Wed May  5 17:03:46 2021.
