 Gaussian 16, Revision A.03,
 Gaussian 16:  EM64L-G16RevA.03 25-Dec-2016

 -------------
 #p 6-31g* mp2
 -------------

 ------------------------------------------------------
 Input file generated by CHIRIPA (05-May-2021 14:55:24)
 ------------------------------------------------------
 Symbolic Z-matrix:
 Charge =  0 Multiplicity = 1

                         Standard orientation:
 ---------------------------------------------------------------------
 Center     Atomic      Atomic             Coordinates (Angstroms)
 Number     Number       Type             X           Y           Z
 ---------------------------------------------------------------------
      1          6           0       -0.854218   -1.328705    1.225567
      2          6           0       -0.625368   -0.135951    0.531675
      3          6           0       -1.682909    0.543725   -0.080041
      4          6           0       -2.962311   -0.000254    0.022465
      5          6           0       -3.222331   -1.186614    0.706738
      6          6           0       -2.149686   -1.849312    1.310734
      7          1           0       -0.026828   -1.850099    1.697764
      8          1           0        0.379664    0.270698    0.463900
      9          1           0       -1.533986    1.468889   -0.623466
     10          1           0       -4.235214   -1.567339    0.757097
     11          1           0       -2.330375   -2.775434    1.848966
     12          7           0       -4.089877    0.710301   -0.621044
     13          8           0       -5.207731    0.210250   -0.516213
     14          8           0       -3.834460    1.753831   -1.218074
     15          6           0        3.602274    0.891369   -0.342819
     16          6           0        3.437193    1.817141    0.862868
     17          6           0        3.536439    3.296668    0.490117
     18          1           0        4.573720    1.087115   -0.817078
     19          1           0        2.834741    1.134323   -1.090657
     20          1           0        4.203943    1.571588    1.608799
     21          1           0        2.466108    1.619035    1.334425
     22          1           0        2.762138    3.563695   -0.236353
     23          1           0        4.509847    3.515978    0.039582
     24          1           0        3.415595    3.940545    1.366859
     25          6           0        3.505499   -0.590922    0.013799
     26          6           0        3.670581   -1.516693   -1.191887
     27          6           0        3.571335   -2.996221   -0.819136
     28          1           0        4.273033   -0.833875    0.761637
     29          1           0        2.534054   -0.786667    0.488058
     30          1           0        4.641665   -1.318588   -1.663445
     31          1           0        2.903831   -1.271141   -1.937819
     32          1           0        2.597927   -3.215530   -0.368601
     33          1           0        4.345636   -3.263247   -0.092667
     34          1           0        3.692178   -3.640098   -1.695879
 ---------------------------------------------------------------------

 SCF Done:  E(RHF) =  -669.535218408     A.U. after   15 cycles
 E2 =    -0.2092270510D+01 EUMP2 =    -0.67162748891827D+03

 The electronic state is 1-A.
 Alpha  occ. eigenvalues --  -20.60762 -20.60756 -15.85815 -11.31184 -11.27753
 Alpha  occ. eigenvalues --  -11.27748 -11.27495 -11.26769 -11.26732 -11.22579
 Alpha  occ. eigenvalues --  -11.22517 -11.22438 -11.22359 -11.21885 -11.21796
 Alpha  occ. eigenvalues --   -1.59837  -1.39390  -1.19356  -1.09427  -1.08750
 Alpha  occ. eigenvalues --   -1.04759  -1.04410  -0.96858  -0.95586  -0.87866
 Alpha  occ. eigenvalues --   -0.86165  -0.82418  -0.80475  -0.79253  -0.77466
 Alpha  occ. eigenvalues --   -0.72034  -0.71160  -0.70469  -0.66241  -0.65007
 Alpha  occ. eigenvalues --   -0.64653  -0.62103  -0.61805  -0.60215  -0.58463
 Alpha  occ. eigenvalues --   -0.56162  -0.55254  -0.53506  -0.53274  -0.53086
 Alpha  occ. eigenvalues --   -0.52844  -0.50808  -0.48801  -0.48789  -0.48778
 Alpha  occ. eigenvalues --   -0.47529  -0.46757  -0.46696  -0.44795  -0.44695
 Alpha  occ. eigenvalues --   -0.37336  -0.36360
 Alpha virt. eigenvalues --    0.05065   0.11229   0.16528   0.18297   0.22385
 Alpha virt. eigenvalues --    0.23332   0.25024   0.26039   0.26617   0.28059
 Alpha virt. eigenvalues --    0.29341   0.30736   0.31016   0.31454   0.31901

 Mulliken charges:
               1
     1  C   -0.174259
     2  C   -0.227427
     3  C   -0.172591
     4  C    0.159006
     5  C   -0.171136
     6  C   -0.218354
     7  H    0.226538
     8  H    0.235997
     9  H    0.275652
    10  H    0.275634
    11  H    0.223532
    12  N    0.487989
    13  O   -0.460409
    14  O   -0.460428
    15  C   -0.301574
    16  C   -0.303063
    17  C   -0.475861
    18  H    0.155931
    19  H    0.148461
    20  H    0.155838
    21  H    0.145297
    22  H    0.155766
    23  H    0.158458
    24  H    0.163679
    25  C   -0.300525
    26  C   -0.300237
    27  C   -0.475686
    28  H    0.153683
    29  H    0.137803
    30  H    0.155995
    31  H    0.154549
    32  H    0.150717
    33  H    0.156404
    34  H    0.164621
 Sum of Mulliken charges =  -0.00000

 Dipole moment (field-independent basis, Debye):
    X=              4.2097    Y=             -2.4694    Z=              2.1959  Tot=              5.3518
 Quadrupole moment (field-independent basis, Debye-Ang):
   XX=           -114.5473   YY=            -93.4204   ZZ=            -94.7827
   XY=             10.1494   XZ=             -7.9138   YZ=             -1.1881

 Normal termination of Gaussian 16 at Thu May  6 11:03:01 2021.
