 Gaussian 16, Revision A.03,
 Gaussian 16:  EM64L-G16RevA.03 25-Dec-2016

 -------------
 #p 6-31g* mp2
 -------------

 ------------------------------------------------------
 Input file generated by CHIRIPA (05-May-2021 14:55:19)
 ------------------------------------------------------
 Symbolic Z-matrix:
 Charge =  0 Multiplicity = 1

                         Standard orientation:
 ---------------------------------------------------------------------
 Center     Atomic      Atomic             Coordinates (Angstroms)
 Number     Number       Type             X           Y           Z
 ---------------------------------------------------------------------
      1          6           0        0.864316    0.618216    1.944664
      2          6           0        1.007808   -0.756592    1.730576
      3          6           0        1.961746   -1.239106    0.829615
      4          6           0        2.758990   -0.314466    0.156760
      5          6           0        2.640052    1.061178    0.348457
      6          6           0        1.679459    1.521121    1.254139
      7          1           0        0.120689    0.984278    2.646386
      8          1           0        0.376136   -1.460117    2.265447
      9          1           0        2.094034   -2.298240    0.644811
     10          1           0        3.284259    1.738071   -0.199477
     11          1           0        1.570243    2.589360    1.418405
     12          7           0        3.772404   -0.813335   -0.799546
     13          8           0        4.462515    0.021887   -1.379882
     14          8           0        3.857419   -2.030124   -0.950656
     15          6           0       -2.681416    0.610157   -0.686397
     16          6           0       -2.524154    2.089873   -0.334693
     17          6           0       -1.246426    2.701666   -0.909946
     18          1           0       -1.808412    0.056612   -0.314380
     19          1           0       -2.680011    0.498101   -1.779483
     20          1           0       -2.527245    2.199256    0.757388
     21          1           0       -3.397725    2.639930   -0.707423
     22          1           0       -1.238814    2.621889   -2.001816
     23          1           0       -0.363387    2.178711   -0.528683
     24          1           0       -1.154092    3.759921   -0.646452
     25          6           0       -3.954020   -0.015606   -0.118392
     26          6           0       -4.111281   -1.495322   -0.470095
     27          6           0       -5.389009   -2.107114    0.105158
     28          1           0       -3.955424    0.096451    0.974694
     29          1           0       -4.827024    0.537939   -0.490409
     30          1           0       -3.237710   -2.045378   -0.097365
     31          1           0       -4.108190   -1.604705   -1.562176
     32          1           0       -6.272047   -1.584160   -0.276106
     33          1           0       -5.396621   -2.027337    1.197027
     34          1           0       -5.481342   -3.165370   -0.158337
 ---------------------------------------------------------------------

 SCF Done:  E(RHF) =  -669.535146635     A.U. after   15 cycles
 E2 =    -0.2093134985D+01 EUMP2 =    -0.67162828162008D+03

 The electronic state is 1-A.
 Alpha  occ. eigenvalues --  -20.60843 -20.60838 -15.85898 -11.31314 -11.27890
 Alpha  occ. eigenvalues --  -11.27876 -11.27645 -11.26933 -11.26886 -11.22090
 Alpha  occ. eigenvalues --  -11.22009 -11.21830 -11.21739 -11.21446 -11.21373
 Alpha  occ. eigenvalues --   -1.59917  -1.39469  -1.19504  -1.08911  -1.08832
 Alpha  occ. eigenvalues --   -1.04916  -1.03944  -0.96383  -0.95707  -0.87406
 Alpha  occ. eigenvalues --   -0.86297  -0.82536  -0.80013  -0.78662  -0.77572
 Alpha  occ. eigenvalues --   -0.72116  -0.71240  -0.70593  -0.65515  -0.65150
 Alpha  occ. eigenvalues --   -0.64895  -0.62253  -0.61366  -0.59755  -0.58000
 Alpha  occ. eigenvalues --   -0.55721  -0.55398  -0.53317  -0.53098  -0.52974
 Alpha  occ. eigenvalues --   -0.52730  -0.50310  -0.48878  -0.48867  -0.48313
 Alpha  occ. eigenvalues --   -0.47049  -0.46194  -0.46127  -0.44863  -0.44202
 Alpha  occ. eigenvalues --   -0.37436  -0.36452
 Alpha virt. eigenvalues --    0.04947   0.11061   0.16382   0.20573   0.22768
 Alpha virt. eigenvalues --    0.23934   0.26032   0.26644   0.26916   0.28188
 Alpha virt. eigenvalues --    0.28471   0.30394   0.31209   0.31572   0.32062

 Mulliken charges:
               1
     1  C   -0.169655
     2  C   -0.218815
     3  C   -0.170706
     4  C    0.159226
     5  C   -0.170351
     6  C   -0.220773
     7  H    0.227082
     8  H    0.224259
     9  H    0.276349
    10  H    0.276807
    11  H    0.226752
    12  N    0.488103
    13  O   -0.459793
    14  O   -0.460025
    15  C   -0.301544
    16  C   -0.297196
    17  C   -0.486466
    18  H    0.151111
    19  H    0.152529
    20  H    0.143132
    21  H    0.153764
    22  H    0.158499
    23  H    0.163628
    24  H    0.155549
    25  C   -0.297907
    26  C   -0.299192
    27  C   -0.475779
    28  H    0.144940
    29  H    0.151198
    30  H    0.149039
    31  H    0.154691
    32  H    0.156516
    33  H    0.153400
    34  H    0.161626
 Sum of Mulliken charges =  -0.00000

 Dipole moment (field-independent basis, Debye):
    X=             -3.4727    Y=              1.6921    Z=              3.3373  Tot=              5.1049
 Quadrupole moment (field-independent basis, Debye-Ang):
   XX=           -115.1960   YY=            -92.0110   ZZ=            -93.4893
   XY=              7.1201   XZ=              9.4855   YZ=             -1.8182

 Normal termination of Gaussian 16 at Thu May  6 04:28:59 2021.
