 Gaussian 16, Revision A.03,
 Gaussian 16:  EM64L-G16RevA.03 25-Dec-2016

 -------------
 #p 6-31g* mp2
 -------------

 ------------------------------------------------------
 Input file generated by CHIRIPA (05-May-2021 14:55:20)
 ------------------------------------------------------
 Symbolic Z-matrix:
 Charge =  0 Multiplicity = 1

                         Standard orientation:
 ---------------------------------------------------------------------
 Center     Atomic      Atomic             Coordinates (Angstroms)
 Number     Number       Type             X           Y           Z
 ---------------------------------------------------------------------
      1          6           0       -0.972403   -0.533110    2.413846
      2          6           0       -0.887286   -1.453388    1.363910
      3          6           0       -1.532650   -1.205812    0.148690
      4          6           0       -2.257791   -0.022511    0.017316
      5          6           0       -2.361374    0.913887    1.044798
      6          6           0       -1.707878    0.645512    2.251225
      7          1           0       -0.467910   -0.733512    3.354442
      8          1           0       -0.316812   -2.369555    1.487368
      9          1           0       -1.483326   -1.901053   -0.680542
     10          1           0       -2.937489    1.818386    0.891860
     11          1           0       -1.775718    1.362016    3.064899
     12          7           0       -2.945313    0.250596   -1.264529
     13          8           0       -3.577884    1.300500   -1.355053
     14          8           0       -2.838605   -0.590417   -2.154442
     15          6           0        2.486379   -0.577133   -0.016415
     16          6           0        2.919639   -1.788101   -0.843354
     17          6           0        2.394602   -3.108256   -0.278270
     18          1           0        2.838928   -0.701469    1.016637
     19          1           0        1.388936   -0.546820    0.029352
     20          1           0        4.015913   -1.815339   -0.888705
     21          1           0        2.566182   -1.660778   -1.874604
     22          1           0        1.300200   -3.106474   -0.248588
     23          1           0        2.758167   -3.261913    0.742911
     24          1           0        2.716150   -3.960704   -0.884736
     25          6           0        3.003487    0.749990   -0.568748
     26          6           0        2.570228    1.960958    0.258191
     27          6           0        3.095263    3.281114   -0.306893
     28          1           0        4.100929    0.719676   -0.614515
     29          1           0        2.650938    0.874325   -1.601800
     30          1           0        2.923683    1.833635    1.289440
     31          1           0        1.473954    1.988196    0.303542
     32          1           0        2.731699    3.434770   -1.328076
     33          1           0        4.189666    3.279330   -0.336575
     34          1           0        2.773715    4.133560    0.299572
 ---------------------------------------------------------------------

 SCF Done:  E(RHF) =  -669.534183065     A.U. after   15 cycles
 E2 =    -0.2094425566D+01 EUMP2 =    -0.67162860863178D+03

 The electronic state is 1-A.
 Alpha  occ. eigenvalues --  -20.60840 -20.60835 -15.85894 -11.31285 -11.27829
 Alpha  occ. eigenvalues --  -11.27810 -11.27533 -11.26862 -11.26790 -11.22006
 Alpha  occ. eigenvalues --  -11.21827 -11.21793 -11.21591 -11.21530 -11.21200
 Alpha  occ. eigenvalues --   -1.59916  -1.39468  -1.19450  -1.08843  -1.08699
 Alpha  occ. eigenvalues --   -1.04862  -1.03876  -0.96338  -0.95662  -0.87362
 Alpha  occ. eigenvalues --   -0.86238  -0.82506  -0.79943  -0.78531  -0.77535
 Alpha  occ. eigenvalues --   -0.72109  -0.71241  -0.70529  -0.65384  -0.65077
 Alpha  occ. eigenvalues --   -0.64840  -0.62242  -0.61250  -0.59700  -0.57952
 Alpha  occ. eigenvalues --   -0.55671  -0.55314  -0.53326  -0.53022  -0.52981
 Alpha  occ. eigenvalues --   -0.52666  -0.50292  -0.48872  -0.48865  -0.48255
 Alpha  occ. eigenvalues --   -0.46968  -0.46054  -0.45925  -0.44867  -0.44085
 Alpha  occ. eigenvalues --   -0.37394  -0.36325
 Alpha virt. eigenvalues --    0.04955   0.11165   0.16368   0.20205   0.22821
 Alpha virt. eigenvalues --    0.23884   0.25717   0.26451   0.27359   0.28082
 Alpha virt. eigenvalues --    0.28876   0.30700   0.31290   0.31313   0.32463

 Mulliken charges:
               1
     1  C   -0.169358
     2  C   -0.219317
     3  C   -0.175293
     4  C    0.160001
     5  C   -0.172153
     6  C   -0.217794
     7  H    0.226383
     8  H    0.229313
     9  H    0.275862
    10  H    0.275939
    11  H    0.224111
    12  N    0.488081
    13  O   -0.460057
    14  O   -0.460329
    15  C   -0.307553
    16  C   -0.299699
    17  C   -0.477324
    18  H    0.142764
    19  H    0.161537
    20  H    0.153618
    21  H    0.156321
    22  H    0.145165
    23  H    0.152756
    24  H    0.165284
    25  C   -0.298070
    26  C   -0.300295
    27  C   -0.475900
    28  H    0.149028
    29  H    0.152929
    30  H    0.148057
    31  H    0.153430
    32  H    0.158134
    33  H    0.155097
    34  H    0.159332
 Sum of Mulliken charges =  -0.00000

 Dipole moment (field-independent basis, Debye):
    X=              2.3905    Y=             -0.9261    Z=              4.4881  Tot=              5.1687
 Quadrupole moment (field-independent basis, Debye-Ang):
   XX=           -105.3531   YY=            -92.3046   ZZ=            -94.0670
   XY=             -0.0176   XZ=            -10.6636   YZ=              1.9462

 Normal termination of Gaussian 16 at Wed May  5 15:54:11 2021.
