 Gaussian 16, Revision A.03,
 Gaussian 16:  EM64L-G16RevA.03 25-Dec-2016

 -------------
 #p 6-31g* mp2
 -------------

 ------------------------------------------------------
 Input file generated by CHIRIPA (05-May-2021 14:53:18)
 ------------------------------------------------------
 Symbolic Z-matrix:
 Charge =  0 Multiplicity = 1

                         Standard orientation:
 ---------------------------------------------------------------------
 Center     Atomic      Atomic             Coordinates (Angstroms)
 Number     Number       Type             X           Y           Z
 ---------------------------------------------------------------------
      1          6           0       -3.104991    0.895734   -0.244723
      2          6           0       -2.323745    1.644497   -1.324998
      3          6           0       -2.293015    3.155357   -1.092294
      4          1           0       -4.132228    1.283593   -0.208760
      5          1           0       -2.656384    1.107601    0.735715
      6          1           0       -2.772846    1.430178   -2.303258
      7          1           0       -1.298302    1.254678   -1.358524
      8          1           0       -1.825715    3.387468   -0.129820
      9          1           0       -3.308637    3.563966   -1.079921
     10          1           0       -1.729435    3.670907   -1.876159
     11          6           0       -3.144690   -0.615649   -0.463525
     12          6           0       -3.925935   -1.364412    0.616750
     13          6           0       -3.956665   -2.875272    0.384046
     14          1           0       -3.593296   -0.827516   -1.443963
     15          1           0       -2.117452   -1.003508   -0.499488
     16          1           0       -4.951378   -0.974593    0.650276
     17          1           0       -3.476834   -1.150093    1.595010
     18          1           0       -2.941043   -3.283881    0.371673
     19          1           0       -4.423965   -3.107384   -0.578428
     20          1           0       -4.520245   -3.390823    1.167911
     21          6           0        0.773887    1.008382    1.805144
     22          6           0        2.042341    1.569160    1.623281
     23          6           0        2.974204    0.958439    0.778771
     24          6           0        2.602479   -0.217472    0.128891
     25          6           0        1.346527   -0.800614    0.289575
     26          6           0        0.430634   -0.172633    1.138885
     27          1           0        0.056197    1.489509    2.463045
     28          1           0        2.311666    2.486282    2.139418
     29          1           0        3.963116    1.371024    0.619879
     30          1           0        1.107027   -1.715590   -0.238514
     31          1           0       -0.553739   -0.610400    1.278225
     32          7           0        3.580547   -0.873151   -0.767696
     33          8           0        3.228592   -1.908502   -1.328776
     34          8           0        4.680593   -0.339305   -0.892381
 ---------------------------------------------------------------------

 SCF Done:  E(RHF) =  -669.535197578     A.U. after   15 cycles
 E2 =    -0.2093418117D+01 EUMP2 =    -0.67162861569568D+03

 The electronic state is 1-A.
 Alpha  occ. eigenvalues --  -20.60808 -20.60803 -15.85862 -11.31258 -11.27831
 Alpha  occ. eigenvalues --  -11.27819 -11.27573 -11.26843 -11.26823 -11.22474
 Alpha  occ. eigenvalues --  -11.22254 -11.22188 -11.22093 -11.21779 -11.21596
 Alpha  occ. eigenvalues --   -1.59883  -1.39436  -1.19433  -1.09228  -1.08813
 Alpha  occ. eigenvalues --   -1.04840  -1.04217  -0.96678  -0.95651  -0.87687
 Alpha  occ. eigenvalues --   -0.86235  -0.82487  -0.80283  -0.79025  -0.77530
 Alpha  occ. eigenvalues --   -0.72080  -0.71206  -0.70538  -0.66116  -0.65085
 Alpha  occ. eigenvalues --   -0.64665  -0.62164  -0.61615  -0.60034  -0.58275
 Alpha  occ. eigenvalues --   -0.55999  -0.55318  -0.53338  -0.53148  -0.53101
 Alpha  occ. eigenvalues --   -0.52888  -0.50628  -0.48842  -0.48833  -0.48589
 Alpha  occ. eigenvalues --   -0.47335  -0.46543  -0.46506  -0.44835  -0.44499
 Alpha  occ. eigenvalues --   -0.37399  -0.36411
 Alpha virt. eigenvalues --    0.04977   0.11134   0.16356   0.18618   0.22893
 Alpha virt. eigenvalues --    0.23397   0.25200   0.25580   0.27129   0.28671
 Alpha virt. eigenvalues --    0.29521   0.30097   0.31160   0.31535   0.31653

 Mulliken charges:
               1
     1  C   -0.296968
     2  C   -0.302730
     3  C   -0.474935
     4  H    0.153229
     5  H    0.138814
     6  H    0.154650
     7  H    0.157555
     8  H    0.150259
     9  H    0.155767
    10  H    0.163698
    11  C   -0.303053
    12  C   -0.301842
    13  C   -0.475166
    14  H    0.156745
    15  H    0.143335
    16  H    0.156476
    17  H    0.145097
    18  H    0.152675
    19  H    0.159330
    20  H    0.163071
    21  C   -0.173034
    22  C   -0.218268
    23  C   -0.170822
    24  C    0.158879
    25  C   -0.174053
    26  C   -0.220105
    27  H    0.226169
    28  H    0.223923
    29  H    0.275976
    30  H    0.275949
    31  H    0.231565
    32  N    0.488110
    33  O   -0.460097
    34  O   -0.460197
 Sum of Mulliken charges =  -0.00000

 Dipole moment (field-independent basis, Debye):
    X=             -3.5225    Y=              2.3083    Z=              3.0517  Tot=              5.2009
 Quadrupole moment (field-independent basis, Debye-Ang):
   XX=           -109.4901   YY=            -94.5879   ZZ=            -94.0794
   XY=              9.6118   XZ=              9.4193   YZ=              0.3418

 Normal termination of Gaussian 16 at Thu May  6 07:38:16 2021.
