 Gaussian 16, Revision A.03,
 Gaussian 16:  EM64L-G16RevA.03 25-Dec-2016

 -------------
 #p 6-31g* mp2
 -------------

 ------------------------------------------------------
 Input file generated by CHIRIPA (05-May-2021 14:55:25)
 ------------------------------------------------------
 Symbolic Z-matrix:
 Charge =  0 Multiplicity = 1

                         Standard orientation:
 ---------------------------------------------------------------------
 Center     Atomic      Atomic             Coordinates (Angstroms)
 Number     Number       Type             X           Y           Z
 ---------------------------------------------------------------------
      1          6           0        2.226203    2.610928   -0.194346
      2          6           0        2.875373    1.895187    0.816996
      3          6           0        3.015140    0.507061    0.726879
      4          6           0        2.491421   -0.136120   -0.393534
      5          6           0        1.839454    0.549051   -1.417629
      6          6           0        1.711223    1.936764   -1.306470
      7          1           0        2.122109    3.689097   -0.116168
      8          1           0        3.276297    2.416115    1.681831
      9          1           0        3.513133   -0.071695    1.495294
     10          1           0        1.450155    0.001984   -2.267677
     11          1           0        1.206589    2.490034   -2.093415
     12          7           0        2.633279   -1.605448   -0.500075
     13          8           0        2.163134   -2.148638   -1.497344
     14          8           0        3.211927   -2.186096    0.415705
     15          6           0       -2.576949   -0.557782    0.738964
     16          6           0       -1.512778    0.260017    1.471583
     17          6           0       -0.354626   -0.598320    1.981226
     18          1           0       -2.963134   -1.333722    1.414036
     19          1           0       -2.109115   -1.082696   -0.105424
     20          1           0       -1.982752    0.784325    2.313510
     21          1           0       -1.129218    1.034223    0.794750
     22          1           0        0.140521   -1.110176    1.149701
     23          1           0       -0.717862   -1.361492    2.677090
     24          1           0        0.394518    0.006416    2.501744
     25          6           0       -3.741236    0.286312    0.223531
     26          6           0       -4.805406   -0.531487   -0.509087
     27          6           0       -5.963558    0.326850   -1.018730
     28          1           0       -4.209069    0.811226    1.067919
     29          1           0       -3.355050    1.062253   -0.451541
     30          1           0       -5.188966   -1.305693    0.167746
     31          1           0       -4.335432   -1.055795   -1.351014
     32          1           0       -5.600323    1.090023   -1.714595
     33          1           0       -6.458706    0.838705   -0.187206
     34          1           0       -6.712702   -0.277886   -1.539248
 ---------------------------------------------------------------------

 SCF Done:  E(RHF) =  -669.534779850     A.U. after   15 cycles
 E2 =    -0.2093670350D+01 EUMP2 =    -0.67162845020042D+03

 The electronic state is 1-A.
 Alpha  occ. eigenvalues --  -20.60824 -20.60810 -15.85863 -11.31198 -11.27821
 Alpha  occ. eigenvalues --  -11.27784 -11.27566 -11.26840 -11.26817 -11.21605
 Alpha  occ. eigenvalues --  -11.21572 -11.21427 -11.21302 -11.21122 -11.20948
 Alpha  occ. eigenvalues --   -1.59897  -1.39448  -1.19415  -1.08813  -1.08419
 Alpha  occ. eigenvalues --   -1.04821  -1.03513  -0.95965  -0.95642  -0.86983
 Alpha  occ. eigenvalues --   -0.86214  -0.82475  -0.79582  -0.78230  -0.77519
 Alpha  occ. eigenvalues --   -0.72087  -0.71246  -0.70524  -0.65071  -0.65054
 Alpha  occ. eigenvalues --   -0.64824  -0.62168  -0.60934  -0.59347  -0.57578
 Alpha  occ. eigenvalues --   -0.55362  -0.55296  -0.53172  -0.52913  -0.52524
 Alpha  occ. eigenvalues --   -0.52379  -0.49897  -0.48846  -0.48843  -0.47895
 Alpha  occ. eigenvalues --   -0.46631  -0.45769  -0.45703  -0.44847  -0.43779
 Alpha  occ. eigenvalues --   -0.37335  -0.36381
 Alpha virt. eigenvalues --    0.04990   0.11208   0.16465   0.21326   0.22789
 Alpha virt. eigenvalues --    0.24177   0.26563   0.27119   0.27410   0.27925
 Alpha virt. eigenvalues --    0.28319   0.30724   0.31382   0.31689   0.31846

 Mulliken charges:
               1
     1  C   -0.170438
     2  C   -0.218953
     3  C   -0.167933
     4  C    0.157278
     5  C   -0.172255
     6  C   -0.218654
     7  H    0.226016
     8  H    0.223682
     9  H    0.275988
    10  H    0.275568
    11  H    0.223631
    12  N    0.490697
    13  O   -0.460992
    14  O   -0.459145
    15  C   -0.299251
    16  C   -0.301195
    17  C   -0.472962
    18  H    0.151403
    19  H    0.152711
    20  H    0.149718
    21  H    0.149828
    22  H    0.155161
    23  H    0.157265
    24  H    0.155651
    25  C   -0.297482
    26  C   -0.299868
    27  C   -0.475494
    28  H    0.148761
    29  H    0.145697
    30  H    0.153281
    31  H    0.153158
    32  H    0.153347
    33  H    0.154810
    34  H    0.160968
 Sum of Mulliken charges =  -0.00000

 Dipole moment (field-independent basis, Debye):
    X=             -0.4287    Y=              5.1318    Z=              0.3811  Tot=              5.1638
 Quadrupole moment (field-independent basis, Debye-Ang):
   XX=            -97.3038   YY=            -96.9813   ZZ=            -90.8706
   XY=             13.7843   XZ=              2.8281   YZ=             -2.1769

 Normal termination of Gaussian 16 at Thu May  6 06:24:21 2021.
