 Gaussian 16, Revision A.03,
 Gaussian 16:  EM64L-G16RevA.03 25-Dec-2016

 -------------
 #p 6-31g* mp2
 -------------

 ------------------------------------------------------
 Input file generated by CHIRIPA (05-May-2021 14:51:12)
 ------------------------------------------------------
 Symbolic Z-matrix:
 Charge =  0 Multiplicity = 1

                         Standard orientation:
 ---------------------------------------------------------------------
 Center     Atomic      Atomic             Coordinates (Angstroms)
 Number     Number       Type             X           Y           Z
 ---------------------------------------------------------------------
      1          6           0       -2.113368   -1.301348   -0.034563
      2          6           0       -1.230511   -1.632748    1.169066
      3          6           0       -0.120144   -2.628205    0.831511
      4          1           0       -2.556036   -2.228780   -0.422971
      5          1           0       -1.486144   -0.893444   -0.839298
      6          1           0       -1.859414   -2.038617    1.971791
      7          1           0       -0.790045   -0.704396    1.554770
      8          1           0        0.531160   -2.227715    0.047922
      9          1           0       -0.544284   -3.569516    0.467313
     10          1           0        0.498877   -2.850961    1.706184
     11          6           0       -3.228009   -0.307441    0.287075
     12          6           0       -4.110866    0.023959   -0.916554
     13          6           0       -5.221233    1.019416   -0.578999
     14          1           0       -3.855233   -0.715345    1.091810
     15          1           0       -2.785341    0.619991    0.675482
     16          1           0       -4.551332   -0.904393   -1.302259
     17          1           0       -3.481963    0.429828   -1.719280
     18          1           0       -4.797093    1.960727   -0.214801
     19          1           0       -5.872538    0.618926    0.204589
     20          1           0       -5.840254    1.242172   -1.453672
     21          6           0        2.550880    1.414309    0.317684
     22          6           0        1.423477    2.317298   -0.183872
     23          6           0        1.195804    3.533192    0.714771
     24          1           0        2.317690    1.079602    1.337753
     25          1           0        3.477990    2.000224    0.385239
     26          1           0        0.499081    1.729509   -0.251780
     27          1           0        1.659286    2.649738   -1.202937
     28          1           0        2.102675    4.143664    0.773997
     29          1           0        0.935879    3.218206    1.730559
     30          1           0        0.385555    4.164998    0.337707
     31          6           0        2.790498    0.194481   -0.570196
     32          6           0        3.917900   -0.708509   -0.068639
     33          6           0        4.145574   -1.924403   -0.967284
     34          1           0        1.863387   -0.391435   -0.637751
     35          1           0        3.023687    0.529186   -1.590264
     36          1           0        3.682091   -1.040950    0.950426
     37          1           0        4.842296   -0.120721   -0.000732
     38          1           0        4.405499   -1.609417   -1.983071
     39          1           0        3.238702   -2.534875   -1.026508
     40          1           0        4.955822   -2.556209   -0.590218
 ---------------------------------------------------------------------

 SCF Done:  E(RHF) =  -470.733311335     A.U. after   11 cycles
 E2 =    -0.1583732075D+01 EUMP2 =    -0.47231704341002D+03

 The electronic state is 1-A.
 Alpha  occ. eigenvalues --  -11.21684 -11.21664 -11.21626 -11.21595 -11.21460
 Alpha  occ. eigenvalues --  -11.21431 -11.21397 -11.21367 -11.21144 -11.21122
 Alpha  occ. eigenvalues --  -11.21087 -11.21052  -1.08499  -1.08444  -1.03590
 Alpha  occ. eigenvalues --   -1.03547  -0.96038  -0.95996  -0.87060  -0.87007
 Alpha  occ. eigenvalues --   -0.79661  -0.79602  -0.78323  -0.78249  -0.65330
 Alpha  occ. eigenvalues --   -0.64908  -0.61060  -0.60876  -0.59404  -0.59367
 Alpha  occ. eigenvalues --   -0.57643  -0.57611  -0.55406  -0.55206  -0.52724
 Alpha  occ. eigenvalues --   -0.52694  -0.52471  -0.52415  -0.50085  -0.49857
 Alpha  occ. eigenvalues --   -0.48012  -0.47906  -0.46786  -0.46584  -0.45986
 Alpha  occ. eigenvalues --   -0.45799  -0.45772  -0.45455  -0.43836  -0.43808
 Alpha virt. eigenvalues --    0.18810   0.22299   0.23831   0.24627   0.25674
 Alpha virt. eigenvalues --    0.26611   0.27247   0.27796   0.28128   0.29500
 Alpha virt. eigenvalues --    0.31009   0.31509   0.31708   0.31816   0.32393

 Mulliken charges:
               1
     1  C   -0.299506
     2  C   -0.300635
     3  C   -0.482538
     4  H    0.150126
     5  H    0.150042
     6  H    0.152614
     7  H    0.152143
     8  H    0.160937
     9  H    0.155939
    10  H    0.160484
    11  C   -0.298791
    12  C   -0.299728
    13  C   -0.475771
    14  H    0.149743
    15  H    0.149945
    16  H    0.152013
    17  H    0.152224
    18  H    0.155339
    19  H    0.155192
    20  H    0.160386
    21  C   -0.298005
    22  C   -0.301412
    23  C   -0.475725
    24  H    0.149898
    25  H    0.149860
    26  H    0.152149
    27  H    0.152255
    28  H    0.155597
    29  H    0.155167
    30  H    0.160198
    31  C   -0.304613
    32  C   -0.299344
    33  C   -0.477711
    34  H    0.154806
    35  H    0.149683
    36  H    0.152635
    37  H    0.151945
    38  H    0.154930
    39  H    0.157125
    40  H    0.160404
 Sum of Mulliken charges =  -0.00000

 Dipole moment (field-independent basis, Debye):
    X=             -0.0073    Y=             -0.0098    Z=              0.0022  Tot=              0.0124
 Quadrupole moment (field-independent basis, Debye-Ang):
   XX=            -84.6677   YY=            -85.2061   ZZ=            -84.7348
   XY=              1.7471   XZ=             -0.2782   YZ=             -1.0633

 Normal termination of Gaussian 16 at Wed May  5 18:19:34 2021.
