 Gaussian 16, Revision A.03,
 Gaussian 16:  EM64L-G16RevA.03 25-Dec-2016

 -------------
 #p 6-31g* mp2
 -------------

 ------------------------------------------------------
 Input file generated by CHIRIPA (05-May-2021 14:53:16)
 ------------------------------------------------------
 Symbolic Z-matrix:
 Charge =  0 Multiplicity = 1

                         Standard orientation:
 ---------------------------------------------------------------------
 Center     Atomic      Atomic             Coordinates (Angstroms)
 Number     Number       Type             X           Y           Z
 ---------------------------------------------------------------------
      1          6           0        3.886655   -0.005650   -0.211019
      2          6           0        2.797586   -0.146386    0.852987
      3          6           0        1.389412   -0.171572    0.257836
      4          1           0        3.713018    0.914993   -0.784788
      5          1           0        3.803442   -0.838224   -0.923262
      6          1           0        2.883698    0.685447    1.563800
      7          1           0        2.973945   -1.066703    1.424416
      8          1           0        1.279543   -1.010971   -0.436382
      9          1           0        1.188783    0.751134   -0.296206
     10          1           0        0.626442   -0.272771    1.035973
     11          6           0        5.299891    0.021045    0.368445
     12          6           0        6.388960    0.161781   -0.695561
     13          6           0        7.797134    0.186967   -0.100410
     14          1           0        5.383104    0.853619    1.080689
     15          1           0        5.473528   -0.899598    0.942214
     16          1           0        6.212601    1.082098   -1.266989
     17          1           0        6.302848   -0.670051   -1.406374
     18          1           0        7.997763   -0.735739    0.453632
     19          1           0        7.907003    1.026366    0.593809
     20          1           0        8.560104    0.288166   -0.878546
     21          6           0       -3.930269    2.493563   -0.026410
     22          6           0       -5.034343    1.635512    0.009570
     23          6           0       -4.856850    0.248904   -0.009417
     24          6           0       -3.555453   -0.247663   -0.064886
     25          6           0       -2.435301    0.581306   -0.101751
     26          6           0       -2.636553    1.964653   -0.081857
     27          1           0       -4.077378    3.569446   -0.011308
     28          1           0       -6.040209    2.043460    0.052652
     29          1           0       -5.693818   -0.438247    0.017540
     30          1           0       -1.444722    0.145019   -0.144477
     31          1           0       -1.777254    2.628628   -0.109894
     32          7           0       -3.354973   -1.713877   -0.085467
     33          8           0       -2.198209   -2.126343   -0.134521
     34          8           0       -4.358397   -2.422869   -0.052154
 ---------------------------------------------------------------------

 SCF Done:  E(RHF) =  -669.535521512     A.U. after   15 cycles
 E2 =    -0.2091357919D+01 EUMP2 =    -0.67162687943051D+03

 The electronic state is 1-A.
 Alpha  occ. eigenvalues --  -20.60704 -20.60699 -15.85753 -11.31082 -11.27678
 Alpha  occ. eigenvalues --  -11.27579 -11.27425 -11.26692 -11.26666 -11.21762
 Alpha  occ. eigenvalues --  -11.21648 -11.21495 -11.21425 -11.21364 -11.21103
 Alpha  occ. eigenvalues --   -1.59778  -1.39332  -1.19267  -1.08674  -1.08529
 Alpha  occ. eigenvalues --   -1.04668  -1.03654  -0.96131  -0.95505  -0.87168
 Alpha  occ. eigenvalues --   -0.86061  -0.82340  -0.79741  -0.78335  -0.77376
 Alpha  occ. eigenvalues --   -0.71974  -0.71101  -0.70385  -0.65156  -0.64920
 Alpha  occ. eigenvalues --   -0.64683  -0.62051  -0.61039  -0.59468  -0.57718
 Alpha  occ. eigenvalues --   -0.55408  -0.55184  -0.53093  -0.52997  -0.52549
 Alpha  occ. eigenvalues --   -0.52460  -0.50056  -0.48731  -0.48724  -0.48038
 Alpha  occ. eigenvalues --   -0.46733  -0.45881  -0.45790  -0.44745  -0.43897
 Alpha  occ. eigenvalues --   -0.37262  -0.36268
 Alpha virt. eigenvalues --    0.05127   0.11355   0.16630   0.20945   0.22813
 Alpha virt. eigenvalues --    0.24122   0.25940   0.26586   0.27466   0.27936
 Alpha virt. eigenvalues --    0.29355   0.29895   0.31550   0.31656   0.31980

 Mulliken charges:
               1
     1  C   -0.298934
     2  C   -0.299325
     3  C   -0.486009
     4  H    0.147367
     5  H    0.152440
     6  H    0.150034
     7  H    0.157191
     8  H    0.169864
     9  H    0.144040
    10  H    0.162090
    11  C   -0.298605
    12  C   -0.299720
    13  C   -0.475788
    14  H    0.148676
    15  H    0.151258
    16  H    0.151054
    17  H    0.153080
    18  H    0.155960
    19  H    0.154707
    20  H    0.160455
    21  C   -0.170387
    22  C   -0.219393
    23  C   -0.169786
    24  C    0.156484
    25  C   -0.183281
    26  C   -0.224351
    27  H    0.225132
    28  H    0.223018
    29  H    0.275243
    30  H    0.299501
    31  H    0.223252
    32  N    0.486637
    33  O   -0.461195
    34  O   -0.460711
 Sum of Mulliken charges =  -0.00000

 Dipole moment (field-independent basis, Debye):
    X=             -0.5752    Y=              5.0470    Z=              0.0796  Tot=              5.0803
 Quadrupole moment (field-independent basis, Debye-Ang):
   XX=            -85.9288   YY=            -96.8282   ZZ=            -95.7656
   XY=            -17.9956   XZ=             -0.7060   YZ=             -0.3146

 Normal termination of Gaussian 16 at Wed May  5 20:21:25 2021.
