 Gaussian 16, Revision A.03,
 Gaussian 16:  EM64L-G16RevA.03 25-Dec-2016

 -------------
 #p 6-31g* mp2
 -------------

 ------------------------------------------------------
 Input file generated by CHIRIPA (05-May-2021 14:57:25)
 ------------------------------------------------------
 Symbolic Z-matrix:
 Charge =  0 Multiplicity = 1

                         Standard orientation:
 ---------------------------------------------------------------------
 Center     Atomic      Atomic             Coordinates (Angstroms)
 Number     Number       Type             X           Y           Z
 ---------------------------------------------------------------------
      1          6           0        6.269240   -0.874657    0.470149
      2          6           0        5.525269   -0.293227    1.502121
      3          6           0        4.242564    0.206492    1.258204
      4          6           0        3.732442    0.107885   -0.035374
      5          6           0        4.449005   -0.465836   -1.084503
      6          6           0        5.729685   -0.958957   -0.817599
      7          1           0        7.264890   -1.260288    0.668557
      8          1           0        5.941756   -0.226406    2.503180
      9          1           0        3.644835    0.661533    2.038637
     10          1           0        4.007077   -0.518202   -2.072114
     11          1           0        6.305181   -1.409989   -1.620980
     12          7           0        2.375571    0.633423   -0.305765
     13          8           0        1.948739    0.534524   -1.454099
     14          8           0        1.764580    1.134287    0.635756
     15          6           0       -2.777881    2.193561   -0.278102
     16          6           0       -2.154964    1.013759   -0.698296
     17          6           0       -2.798370   -0.219048   -0.554198
     18          6           0       -4.069973   -0.235392    0.016808
     19          6           0       -4.716778    0.922799    0.445208
     20          6           0       -4.054549    2.144403    0.291304
     21          1           0       -2.270758    3.146884   -0.393849
     22          1           0       -1.163522    1.048919   -1.140845
     23          1           0       -2.339227   -1.147654   -0.870894
     24          1           0       -5.705459    0.855947    0.882766
     25          1           0       -4.540735    3.059055    0.618535
     26          7           0       -4.761082   -1.534579    0.174547
     27          8           0       -5.881059   -1.522128    0.680641
     28          8           0       -4.169708   -2.540734   -0.210898
 ---------------------------------------------------------------------

 SCF Done:  E(RHF) =  -868.341261113     A.U. after   15 cycles
 E2 =    -0.2598505486D+01 EUMP2 =    -0.87093976659898D+03

 The electronic state is 1-A.
 Alpha  occ. eigenvalues --  -20.61826 -20.61815 -20.59877 -20.59870 -15.86800
 Alpha  occ. eigenvalues --  -15.84914 -11.31828 -11.30025 -11.28353 -11.28346
 Alpha  occ. eigenvalues --  -11.28032 -11.27288 -11.27279 -11.26590 -11.26437
 Alpha  occ. eigenvalues --  -11.26154 -11.25591 -11.25214  -1.60865  -1.58956
 Alpha  occ. eigenvalues --   -1.40423  -1.38516  -1.19966  -1.18135  -1.09428
 Alpha  occ. eigenvalues --   -1.07570  -1.05315  -1.03473  -0.96318  -0.94463
 Alpha  occ. eigenvalues --   -0.86729  -0.84875  -0.83161  -0.81290  -0.78247
 Alpha  occ. eigenvalues --   -0.76376  -0.73028  -0.72146  -0.71142  -0.71069
 Alpha  occ. eigenvalues --   -0.70274  -0.69243  -0.65621  -0.65316  -0.63770
 Alpha  occ. eigenvalues --   -0.63422  -0.62664  -0.60808  -0.55831  -0.53975
 Alpha  occ. eigenvalues --   -0.53662  -0.53401  -0.51849  -0.51548  -0.49804
 Alpha  occ. eigenvalues --   -0.49751  -0.47911  -0.47865  -0.45896  -0.43980
 Alpha  occ. eigenvalues --   -0.37925  -0.36900  -0.36101  -0.35066
 Alpha virt. eigenvalues --    0.04263   0.06102   0.10760   0.12585   0.15832
 Alpha virt. eigenvalues --    0.17690   0.20933   0.22836   0.26871   0.27791
 Alpha virt. eigenvalues --    0.28866   0.29536   0.30536   0.31990   0.32488

 Mulliken charges:
               1
     1  C   -0.169433
     2  C   -0.218539
     3  C   -0.170115
     4  C    0.158093
     5  C   -0.170203
     6  C   -0.218507
     7  H    0.228110
     8  H    0.225698
     9  H    0.276386
    10  H    0.275920
    11  H    0.225669
    12  N    0.489410
    13  O   -0.466733
    14  O   -0.460371
    15  C   -0.171856
    16  C   -0.221829
    17  C   -0.174888
    18  C    0.158002
    19  C   -0.174134
    20  C   -0.218867
    21  H    0.225890
    22  H    0.248472
    23  H    0.273487
    24  H    0.270912
    25  H    0.218578
    26  N    0.488151
    27  O   -0.464251
    28  O   -0.463054
 Sum of Mulliken charges =  -0.00000

 Dipole moment (field-independent basis, Debye):
    X=              7.9150    Y=              2.7629    Z=              0.3814  Tot=              8.3920
 Quadrupole moment (field-independent basis, Debye-Ang):
   XX=            -87.2607   YY=           -107.3937   ZZ=           -100.1543
   XY=            -28.4312   XZ=              3.8493   YZ=              2.9771

 Normal termination of Gaussian 16 at Wed May  5 21:09:18 2021.
