 Gaussian 16, Revision A.03,
 Gaussian 16:  EM64L-G16RevA.03 25-Dec-2016

 -------------
 #p 6-31g* mp2
 -------------

 ------------------------------------------------------
 Input file generated by CHIRIPA (05-May-2021 14:51:10)
 ------------------------------------------------------
 Symbolic Z-matrix:
 Charge =  0 Multiplicity = 1

                         Standard orientation:
 ---------------------------------------------------------------------
 Center     Atomic      Atomic             Coordinates (Angstroms)
 Number     Number       Type             X           Y           Z
 ---------------------------------------------------------------------
      1          6           0        4.546536    0.056713    0.217844
      2          6           0        5.564152   -0.897923   -0.407546
      3          6           0        7.009990   -0.475211   -0.145513
      4          1           0        4.711560    1.068504   -0.177112
      5          1           0        4.722979    0.111367    1.301022
      6          1           0        5.384961   -0.951827   -1.489027
      7          1           0        5.396563   -1.907596   -0.011201
      8          1           0        7.212079   -0.439632    0.929892
      9          1           0        7.200411    0.521568   -0.556331
     10          1           0        7.720743   -1.171515   -0.601420
     11          6           0        3.096677   -0.352531   -0.035448
     12          6           0        2.079061    0.602105    0.589943
     13          6           0        0.633223    0.179393    0.327909
     14          1           0        2.920234   -0.407185   -1.118626
     15          1           0        2.931653   -1.364322    0.359508
     16          1           0        2.246650    1.611778    0.193597
     17          1           0        2.258252    0.656009    1.671423
     18          1           0        0.442802   -0.817386    0.738728
     19          1           0        0.431134    0.143813   -0.747496
     20          1           0       -0.077530    0.875697    0.783816
     21          6           0       -4.333821   -0.337239    0.201547
     22          6           0       -4.257083   -1.738817   -0.404814
     23          6           0       -5.288029   -2.697949    0.191013
     24          1           0       -4.187522   -0.406238    1.288185
     25          1           0       -5.343980    0.066674    0.047184
     26          1           0       -3.246961   -2.139416   -0.250573
     27          1           0       -4.403391   -1.666452   -1.490160
     28          1           0       -6.303454   -2.324110    0.024410
     29          1           0       -5.140454   -2.799762    1.271041
     30          1           0       -5.215503   -3.694020   -0.256697
     31          6           0       -3.309392    0.633057   -0.383942
     32          6           0       -3.386130    2.034636    0.222418
     33          6           0       -2.355184    2.993768   -0.373410
     34          1           0       -2.299233    0.229145   -0.229580
     35          1           0       -3.455690    0.702056   -1.470580
     36          1           0       -3.239822    1.962271    1.307764
     37          1           0       -4.396252    2.435234    0.068176
     38          1           0       -2.502759    3.095579   -1.453436
     39          1           0       -1.339759    2.619928   -0.206806
     40          1           0       -2.427710    3.989838    0.074300
 ---------------------------------------------------------------------

 SCF Done:  E(RHF) =  -470.732497654     A.U. after   11 cycles
 E2 =    -0.1583403632D+01 EUMP2 =    -0.47231590128594D+03

 The electronic state is 1-A.
 Alpha  occ. eigenvalues --  -11.21669 -11.21626 -11.21536 -11.21531 -11.21447
 Alpha  occ. eigenvalues --  -11.21385 -11.21300 -11.21202 -11.21167 -11.21089
 Alpha  occ. eigenvalues --  -11.21024 -11.20979  -1.08479  -1.08342  -1.03599
 Alpha  occ. eigenvalues --   -1.03453  -0.96049  -0.95905  -0.87076  -0.86925
 Alpha  occ. eigenvalues --   -0.79701  -0.79493  -0.78299  -0.78129  -0.65111
 Alpha  occ. eigenvalues --   -0.64995  -0.61036  -0.60894  -0.59458  -0.59194
 Alpha  occ. eigenvalues --   -0.57698  -0.57474  -0.55349  -0.55182  -0.52792
 Alpha  occ. eigenvalues --   -0.52597  -0.52520  -0.52277  -0.49999  -0.49844
 Alpha  occ. eigenvalues --   -0.47971  -0.47820  -0.46707  -0.46524  -0.45883
 Alpha  occ. eigenvalues --   -0.45759  -0.45679  -0.45569  -0.43742  -0.43687
 Alpha virt. eigenvalues --    0.21456   0.22961   0.23695   0.24946   0.25953
 Alpha virt. eigenvalues --    0.26591   0.27043   0.27412   0.28015   0.29316
 Alpha virt. eigenvalues --    0.30470   0.31123   0.31690   0.31870   0.31980

 Mulliken charges:
               1
     1  C   -0.298374
     2  C   -0.299668
     3  C   -0.475735
     4  H    0.149856
     5  H    0.149582
     6  H    0.152033
     7  H    0.151953
     8  H    0.155205
     9  H    0.155265
    10  H    0.160348
    11  C   -0.298692
    12  C   -0.301068
    13  C   -0.480761
    14  H    0.149860
    15  H    0.149713
    16  H    0.152747
    17  H    0.152131
    18  H    0.155151
    19  H    0.156901
    20  H    0.164299
    21  C   -0.297519
    22  C   -0.299628
    23  C   -0.475626
    24  H    0.149106
    25  H    0.148975
    26  H    0.152038
    27  H    0.151703
    28  H    0.155062
    29  H    0.154987
    30  H    0.159969
    31  C   -0.308132
    32  C   -0.299245
    33  C   -0.481010
    34  H    0.162693
    35  H    0.148557
    36  H    0.150779
    37  H    0.151741
    38  H    0.154839
    39  H    0.160356
    40  H    0.159610
 Sum of Mulliken charges =  -0.00000

 Dipole moment (field-independent basis, Debye):
    X=              0.0726    Y=             -0.0187    Z=             -0.0038  Tot=              0.0751
 Quadrupole moment (field-independent basis, Debye-Ang):
   XX=            -86.2634   YY=            -85.2294   ZZ=            -83.6473
   XY=             -0.8657   XZ=              0.6030   YZ=             -0.4390

 Normal termination of Gaussian 16 at Thu May  6 00:38:45 2021.
