 Gaussian 16, Revision A.03,
 Gaussian 16:  EM64L-G16RevA.03 25-Dec-2016

 -------------
 #p 6-31g* mp2
 -------------

 ------------------------------------------------------
 Input file generated by CHIRIPA (05-May-2021 14:57:24)
 ------------------------------------------------------
 Symbolic Z-matrix:
 Charge =  0 Multiplicity = 1

                         Standard orientation:
 ---------------------------------------------------------------------
 Center     Atomic      Atomic             Coordinates (Angstroms)
 Number     Number       Type             X           Y           Z
 ---------------------------------------------------------------------
      1          6           0        4.692317   -2.288437    0.135994
      2          6           0        3.384694   -1.958922   -0.235575
      3          6           0        2.986835   -0.621477   -0.322164
      4          6           0        3.926700    0.365413   -0.028918
      5          6           0        5.236783    0.069018    0.344072
      6          6           0        5.612566   -1.275202    0.424124
      7          1           0        4.992808   -3.330028    0.200720
      8          1           0        2.667890   -2.743721   -0.459911
      9          1           0        1.980929   -0.338221   -0.607361
     10          1           0        5.928916    0.873390    0.561683
     11          1           0        6.628754   -1.528157    0.712947
     12          7           0        3.517190    1.784893   -0.117126
     13          8           0        4.364134    2.635732    0.146305
     14          8           0        2.357026    2.019763   -0.448023
     15          6           0       -1.547810   -0.719532   -0.173552
     16          6           0       -1.940066    0.619162   -0.070812
     17          6           0       -3.292730    0.956649    0.033820
     18          6           0       -4.230699   -0.074614    0.032549
     19          6           0       -3.871340   -1.417731   -0.068383
     20          6           0       -2.512997   -1.731921   -0.172012
     21          1           0       -0.494822   -0.972652   -0.254443
     22          1           0       -1.192677    1.407486   -0.071749
     23          1           0       -3.624156    1.984776    0.114619
     24          1           0       -4.639443   -2.181552   -0.064716
     25          1           0       -2.211276   -2.772432   -0.251669
     26          7           0       -5.665711    0.270337    0.142787
     27          8           0       -6.472585   -0.656798    0.139360
     28          8           0       -5.956425    1.461312    0.230532
 ---------------------------------------------------------------------

 SCF Done:  E(RHF) =  -868.337662860     A.U. after   16 cycles
 E2 =    -0.2599611714D+01 EUMP2 =    -0.87093727457401D+03

 The electronic state is 1-A.
 Alpha  occ. eigenvalues --  -20.61737 -20.61690 -20.60666 -20.60654 -15.86768
 Alpha  occ. eigenvalues --  -15.85713 -11.32118 -11.31103 -11.28798 -11.28607
 Alpha  occ. eigenvalues --  -11.28360 -11.27736 -11.27689 -11.27607 -11.27579
 Alpha  occ. eigenvalues --  -11.27520 -11.26797 -11.26561  -1.60778  -1.59736
 Alpha  occ. eigenvalues --   -1.40338  -1.39289  -1.20273  -1.19271  -1.09656
 Alpha  occ. eigenvalues --   -1.08689  -1.05690  -1.04655  -0.96506  -0.95523
 Alpha  occ. eigenvalues --   -0.87080  -0.86062  -0.83352  -0.82335  -0.78418
 Alpha  occ. eigenvalues --   -0.77352  -0.72991  -0.72093  -0.71933  -0.71406
 Alpha  occ. eigenvalues --   -0.71058  -0.70457  -0.65932  -0.65692  -0.64929
 Alpha  occ. eigenvalues --   -0.64640  -0.63060  -0.61979  -0.56166  -0.55272
 Alpha  occ. eigenvalues --   -0.53988  -0.53767  -0.53007  -0.52733  -0.49755
 Alpha  occ. eigenvalues --   -0.49722  -0.48692  -0.48686  -0.45747  -0.44688
 Alpha  occ. eigenvalues --   -0.38215  -0.37306  -0.37274  -0.36243
 Alpha virt. eigenvalues --    0.04133   0.05147   0.10368   0.11400   0.15641
 Alpha virt. eigenvalues --    0.16626   0.18030   0.22024   0.24803   0.26688
 Alpha virt. eigenvalues --    0.27631   0.29394   0.30548   0.30916   0.32517

 Mulliken charges:
               1
     1  C   -0.169983
     2  C   -0.218421
     3  C   -0.177204
     4  C    0.161067
     5  C   -0.169301
     6  C   -0.217933
     7  H    0.228597
     8  H    0.220477
     9  H    0.271651
    10  H    0.278371
    11  H    0.227032
    12  N    0.489086
    13  O   -0.454724
    14  O   -0.467524
    15  C   -0.172155
    16  C   -0.222795
    17  C   -0.171256
    18  C    0.159122
    19  C   -0.171517
    20  C   -0.218692
    21  H    0.216178
    22  H    0.240076
    23  H    0.278060
    24  H    0.274753
    25  H    0.219440
    26  N    0.487879
    27  O   -0.461297
    28  O   -0.458986
 Sum of Mulliken charges =  -0.00000

 Dipole moment (field-independent basis, Debye):
    X=              6.8042    Y=             -6.0600    Z=             -0.0115  Tot=              9.1116
 Quadrupole moment (field-independent basis, Debye-Ang):
   XX=           -130.5346   YY=           -103.5175   ZZ=           -106.2369
   XY=            -12.1652   XZ=              4.7184   YZ=              0.9078

 Normal termination of Gaussian 16 at Fri May  7 12:35:49 2021.
