 Gaussian 16, Revision A.03,
 Gaussian 16:  EM64L-G16RevA.03 25-Dec-2016

 -------------
 #p 6-31g* mp2
 -------------

 ------------------------------------------------------
 Input file generated by CHIRIPA (05-May-2021 14:53:16)
 ------------------------------------------------------
 Symbolic Z-matrix:
 Charge =  0 Multiplicity = 1

                         Standard orientation:
 ---------------------------------------------------------------------
 Center     Atomic      Atomic             Coordinates (Angstroms)
 Number     Number       Type             X           Y           Z
 ---------------------------------------------------------------------
      1          6           0       -3.112853    0.827200   -0.156278
      2          6           0       -3.424450    2.308301    0.061056
      3          6           0       -2.344320    3.229227   -0.507283
      4          1           0       -2.145716    0.590543    0.308033
      5          1           0       -2.997510    0.638025   -1.232523
      6          1           0       -3.540537    2.494352    1.136474
      7          1           0       -4.391048    2.541416   -0.403661
      8          1           0       -2.232651    3.072703   -1.585073
      9          1           0       -1.377308    3.025371   -0.036187
     10          1           0       -2.587240    4.283349   -0.340922
     11          6           0       -4.183451   -0.106028    0.406421
     12          6           0       -3.871854   -1.587129    0.189087
     13          6           0       -4.951984   -2.508055    0.757426
     14          1           0       -4.298794    0.083147    1.482667
     15          1           0       -5.150588    0.130629   -0.057890
     16          1           0       -2.905256   -1.820244    0.653804
     17          1           0       -3.755767   -1.773180   -0.886331
     18          1           0       -5.918996   -2.304199    0.286330
     19          1           0       -5.063653   -2.351531    1.835216
     20          1           0       -4.709063   -3.562177    0.591065
     21          6           0        5.038856    0.622826    0.772443
     22          6           0        4.936803   -0.720370    0.395705
     23          6           0        3.729062   -1.232382   -0.087776
     24          6           0        2.638519   -0.369154   -0.181836
     25          6           0        2.708675    0.973751    0.185552
     26          6           0        3.926428    1.464116    0.666350
     27          1           0        5.980948    1.012161    1.146980
     28          1           0        5.799083   -1.376042    0.477021
     29          1           0        3.622241   -2.268139   -0.386462
     30          1           0        1.831767    1.602965    0.093146
     31          1           0        4.002769    2.507689    0.958193
     32          7           0        1.354639   -0.899741   -0.692255
     33          8           0        0.408514   -0.118644   -0.765543
     34          8           0        1.318768   -2.086665   -1.009369
 ---------------------------------------------------------------------

 SCF Done:  E(RHF) =  -669.535822189     A.U. after   15 cycles
 E2 =    -0.2091310466D+01 EUMP2 =    -0.67162713265473D+03

 The electronic state is 1-A.
 Alpha  occ. eigenvalues --  -20.60915 -20.60909 -15.85950 -11.31287 -11.27853
 Alpha  occ. eigenvalues --  -11.27849 -11.27590 -11.26862 -11.26852 -11.20692
 Alpha  occ. eigenvalues --  -11.20404 -11.20361 -11.20271 -11.20143 -11.19953
 Alpha  occ. eigenvalues --   -1.59981  -1.39536  -1.19457  -1.08858  -1.07298
 Alpha  occ. eigenvalues --   -1.04855  -1.02540  -0.95698  -0.94996  -0.86255
 Alpha  occ. eigenvalues --   -0.86024  -0.82533  -0.78581  -0.77595  -0.77027
 Alpha  occ. eigenvalues --   -0.72165  -0.71298  -0.70565  -0.65112  -0.64857
 Alpha  occ. eigenvalues --   -0.63942  -0.62203  -0.59958  -0.58361  -0.56587
 Alpha  occ. eigenvalues --   -0.55358  -0.54300  -0.53187  -0.52947  -0.51751
 Alpha  occ. eigenvalues --   -0.51419  -0.48995  -0.48932  -0.48900  -0.46898
 Alpha  occ. eigenvalues --   -0.45616  -0.45053  -0.44579  -0.44374  -0.42743
 Alpha  occ. eigenvalues --   -0.37436  -0.36457
 Alpha virt. eigenvalues --    0.04924   0.11197   0.16401   0.20999   0.23708
 Alpha virt. eigenvalues --    0.24730   0.26532   0.27544   0.28040   0.29032
 Alpha virt. eigenvalues --    0.29110   0.30652   0.31595   0.32569   0.32777

 Mulliken charges:
               1
     1  C   -0.300701
     2  C   -0.299508
     3  C   -0.472508
     4  H    0.166665
     5  H    0.153780
     6  H    0.146749
     7  H    0.148338
     8  H    0.157384
     9  H    0.151142
    10  H    0.154043
    11  C   -0.298718
    12  C   -0.297986
    13  C   -0.475429
    14  H    0.143890
    15  H    0.144686
    16  H    0.157527
    17  H    0.155324
    18  H    0.152042
    19  H    0.151455
    20  H    0.159082
    21  C   -0.170601
    22  C   -0.218599
    23  C   -0.170674
    24  C    0.157677
    25  C   -0.171474
    26  C   -0.218687
    27  H    0.225983
    28  H    0.223781
    29  H    0.275810
    30  H    0.276244
    31  H    0.223997
    32  N    0.491092
    33  O   -0.462511
    34  O   -0.459295
 Sum of Mulliken charges =  -0.00000

 Dipole moment (field-independent basis, Debye):
    X=              4.8200    Y=              1.7404    Z=              1.6984  Tot=              5.3987
 Quadrupole moment (field-independent basis, Debye-Ang):
   XX=            -72.0077   YY=            -93.5350   ZZ=            -95.6153
   XY=              0.8450   XZ=              4.9234   YZ=             -0.0754

 Normal termination of Gaussian 16 at Thu May  6 18:50:21 2021.
