 Gaussian 16, Revision A.03,
 Gaussian 16:  EM64L-G16RevA.03 25-Dec-2016

 -------------
 #p 6-31g* mp2
 -------------

 ------------------------------------------------------
 Input file generated by CHIRIPA (05-May-2021 14:51:12)
 ------------------------------------------------------
 Symbolic Z-matrix:
 Charge =  0 Multiplicity = 1

                         Standard orientation:
 ---------------------------------------------------------------------
 Center     Atomic      Atomic             Coordinates (Angstroms)
 Number     Number       Type             X           Y           Z
 ---------------------------------------------------------------------
      1          6           0        5.114014   -0.169630    0.030980
      2          6           0        5.389915   -1.672314   -0.030699
      3          6           0        6.845682   -2.019404    0.282455
      4          1           0        5.776191    0.347649   -0.676755
      5          1           0        5.373710    0.203017    1.031523
      6          1           0        5.128471   -2.042273   -1.030396
      7          1           0        4.726870   -2.186095    0.677126
      8          1           0        7.115676   -1.677748    1.286933
      9          1           0        7.519559   -1.533108   -0.430291
     10          1           0        7.020722   -3.098638    0.232721
     11          6           0        3.662954    0.193142   -0.279747
     12          6           0        3.387053    1.695826   -0.218068
     13          6           0        1.931286    2.042916   -0.531222
     14          1           0        3.403257   -0.179505   -1.280290
     15          1           0        3.000777   -0.324137    0.427988
     16          1           0        4.050098    2.209607   -0.925893
     17          1           0        3.648497    2.065785    0.781629
     18          1           0        1.257409    1.556620    0.181524
     19          1           0        1.661292    1.701260   -1.535700
     20          1           0        1.756246    3.122150   -0.481488
     21          6           0       -3.699273    0.107990    0.431109
     22          6           0       -3.117921    1.482473    0.098222
     23          6           0       -1.738781    1.707114    0.718949
     24          1           0       -3.764597   -0.000941    1.522353
     25          1           0       -3.007098   -0.669931    0.080211
     26          1           0       -3.811641    2.257546    0.448409
     27          1           0       -3.054152    1.588219   -0.992359
     28          1           0       -1.028032    0.955349    0.360781
     29          1           0       -1.789825    1.628479    1.809735
     30          1           0       -1.341922    2.695815    0.468286
     31          6           0       -5.077695   -0.131502   -0.182342
     32          6           0       -5.659046   -1.505984    0.150545
     33          6           0       -7.038186   -1.730627   -0.470183
     34          1           0       -5.769870    0.646419    0.168555
     35          1           0       -5.012371   -0.022572   -1.273585
     36          1           0       -5.722816   -1.611731    1.241125
     37          1           0       -4.965327   -2.281058   -0.199642
     38          1           0       -6.987143   -1.651992   -1.560968
     39          1           0       -7.748936   -0.978861   -0.112014
     40          1           0       -7.435046   -2.719328   -0.219519
 ---------------------------------------------------------------------

 SCF Done:  E(RHF) =  -470.732823418     A.U. after   11 cycles
 E2 =    -0.1582414443D+01 EUMP2 =    -0.47231523786120D+03

 The electronic state is 1-A.
 Alpha  occ. eigenvalues --  -11.21589 -11.21587 -11.21558 -11.21536 -11.21384
 Alpha  occ. eigenvalues --  -11.21379 -11.21325 -11.21319 -11.21061 -11.21059
 Alpha  occ. eigenvalues --  -11.20994 -11.20942  -1.08410  -1.08394  -1.03524
 Alpha  occ. eigenvalues --   -1.03467  -0.96012  -0.95882  -0.87075  -0.86857
 Alpha  occ. eigenvalues --   -0.79661  -0.79465  -0.78237  -0.78195  -0.65057
 Alpha  occ. eigenvalues --   -0.65011  -0.60987  -0.60817  -0.59362  -0.59266
 Alpha  occ. eigenvalues --   -0.57620  -0.57506  -0.55413  -0.55089  -0.52798
 Alpha  occ. eigenvalues --   -0.52571  -0.52432  -0.52228  -0.50071  -0.49693
 Alpha  occ. eigenvalues --   -0.47978  -0.47768  -0.46698  -0.46461  -0.45805
 Alpha  occ. eigenvalues --   -0.45729  -0.45693  -0.45603  -0.43813  -0.43673
 Alpha virt. eigenvalues --    0.22647   0.22946   0.23700   0.24664   0.26190
 Alpha virt. eigenvalues --    0.26749   0.26986   0.27462   0.27660   0.29099
 Alpha virt. eigenvalues --    0.30220   0.31049   0.31650   0.31834   0.32369

 Mulliken charges:
               1
     1  C   -0.298195
     2  C   -0.299630
     3  C   -0.475685
     4  H    0.149630
     5  H    0.149545
     6  H    0.151796
     7  H    0.151888
     8  H    0.155189
     9  H    0.155155
    10  H    0.160171
    11  C   -0.298287
    12  C   -0.299781
    13  C   -0.479901
    14  H    0.149166
    15  H    0.149308
    16  H    0.151335
    17  H    0.151730
    18  H    0.163278
    19  H    0.153825
    20  H    0.159247
    21  C   -0.298545
    22  C   -0.299824
    23  C   -0.478135
    24  H    0.149421
    25  H    0.149558
    26  H    0.151565
    27  H    0.152145
    28  H    0.157530
    29  H    0.154057
    30  H    0.162570
    31  C   -0.298243
    32  C   -0.299625
    33  C   -0.475689
    34  H    0.149495
    35  H    0.149653
    36  H    0.151864
    37  H    0.151892
    38  H    0.155172
    39  H    0.155163
    40  H    0.160194
 Sum of Mulliken charges =  -0.00000

 Dipole moment (field-independent basis, Debye):
    X=             -0.0158    Y=              0.0081    Z=              0.0080  Tot=              0.0195
 Quadrupole moment (field-independent basis, Debye-Ang):
   XX=            -86.7921   YY=            -84.9248   ZZ=            -83.2851
   XY=             -0.0871   XZ=             -1.1481   YZ=              0.2325

 Normal termination of Gaussian 16 at Wed May  5 23:10:26 2021.
