 Gaussian 16, Revision A.03,
 Gaussian 16:  EM64L-G16RevA.03 25-Dec-2016

 -------------
 #p 6-31g* mp2
 -------------

 ------------------------------------------------------
 Input file generated by CHIRIPA (05-May-2021 14:53:13)
 ------------------------------------------------------
 Symbolic Z-matrix:
 Charge =  0 Multiplicity = 1

                         Standard orientation:
 ---------------------------------------------------------------------
 Center     Atomic      Atomic             Coordinates (Angstroms)
 Number     Number       Type             X           Y           Z
 ---------------------------------------------------------------------
      1          6           0        2.705465   -0.415195   -0.692435
      2          6           0        1.676269   -1.492326   -0.348155
      3          6           0        0.485607   -1.500409   -1.307348
      4          1           0        2.215855    0.568200   -0.679707
      5          1           0        3.062024   -0.573567   -1.719654
      6          1           0        1.322780   -1.332791    0.678592
      7          1           0        2.168429   -2.473253   -0.361516
      8          1           0        0.819266   -1.682388   -2.334069
      9          1           0       -0.031188   -0.535447   -1.288051
     10          1           0       -0.237744   -2.278006   -1.042838
     11          6           0        3.901674   -0.394559    0.257505
     12          6           0        4.930870    0.682572   -0.086775
     13          6           0        6.121532    0.690654    0.872418
     14          1           0        3.545115   -0.236188    1.284724
     15          1           0        4.391284   -1.377954    0.244777
     16          1           0        4.438711    1.663498   -0.073414
     17          1           0        5.284360    0.523037   -1.113522
     18          1           0        6.638328   -0.274308    0.853121
     19          1           0        5.787874    0.872634    1.899139
     20          1           0        6.844883    1.468252    0.607908
     21          6           0       -2.174599    2.736187   -0.417494
     22          6           0       -2.407049    1.799584   -1.430045
     23          6           0       -2.633367    0.456137   -1.116231
     24          6           0       -2.620194    0.082365    0.226681
     25          6           0       -2.391551    0.991866    1.258098
     26          6           0       -2.167604    2.330056    0.920986
     27          1           0       -1.999710    3.777767   -0.670322
     28          1           0       -2.413055    2.112135   -2.470391
     29          1           0       -2.815928   -0.289829   -1.880184
     30          1           0       -2.391610    0.650216    2.286054
     31          1           0       -1.987354    3.055247    1.709436
     32          7           0       -2.858533   -1.337099    0.571235
     33          8           0       -2.841823   -1.640994    1.762035
     34          8           0       -3.057540   -2.118901   -0.356029
 ---------------------------------------------------------------------

 SCF Done:  E(RHF) =  -669.534856855     A.U. after   15 cycles
 E2 =    -0.2093514016D+01 EUMP2 =    -0.67162837087074D+03

 The electronic state is 1-A.
 Alpha  occ. eigenvalues --  -20.60873 -20.60866 -15.85894 -11.31217 -11.27832
 Alpha  occ. eigenvalues --  -11.27789 -11.27577 -11.26827 -11.26816 -11.21622
 Alpha  occ. eigenvalues --  -11.21333 -11.21308 -11.21238 -11.21097 -11.20579
 Alpha  occ. eigenvalues --   -1.59929  -1.39486  -1.19433  -1.08822  -1.08319
 Alpha  occ. eigenvalues --   -1.04836  -1.03383  -0.95849  -0.95651  -0.86873
 Alpha  occ. eigenvalues --   -0.86214  -0.82496  -0.79467  -0.78135  -0.77538
 Alpha  occ. eigenvalues --   -0.72127  -0.71255  -0.70539  -0.65081  -0.64961
 Alpha  occ. eigenvalues --   -0.64824  -0.62175  -0.60812  -0.59187  -0.57440
 Alpha  occ. eigenvalues --   -0.55359  -0.55225  -0.53217  -0.52917  -0.52489
 Alpha  occ. eigenvalues --   -0.52181  -0.49766  -0.48886  -0.48884  -0.47762
 Alpha  occ. eigenvalues --   -0.46512  -0.45670  -0.45610  -0.44907  -0.43556
 Alpha  occ. eigenvalues --   -0.37377  -0.36374
 Alpha virt. eigenvalues --    0.04944   0.11207   0.16441   0.21346   0.22928
 Alpha virt. eigenvalues --    0.24442   0.26733   0.27158   0.27609   0.27923
 Alpha virt. eigenvalues --    0.28523   0.30816   0.31521   0.31840   0.32196

 Mulliken charges:
               1
     1  C   -0.297679
     2  C   -0.298417
     3  C   -0.493719
     4  H    0.146354
     5  H    0.148397
     6  H    0.152072
     7  H    0.153632
     8  H    0.151754
     9  H    0.153943
    10  H    0.177951
    11  C   -0.298023
    12  C   -0.299112
    13  C   -0.475534
    14  H    0.149155
    15  H    0.150858
    16  H    0.149350
    17  H    0.151692
    18  H    0.156094
    19  H    0.154821
    20  H    0.159373
    21  C   -0.170645
    22  C   -0.218300
    23  C   -0.173247
    24  C    0.162794
    25  C   -0.171360
    26  C   -0.219020
    27  H    0.226010
    28  H    0.224223
    29  H    0.277441
    30  H    0.275719
    31  H    0.223594
    32  N    0.488738
    33  O   -0.459628
    34  O   -0.459282
 Sum of Mulliken charges =  -0.00000

 Dipole moment (field-independent basis, Debye):
    X=              0.6963    Y=              4.9402    Z=             -1.1869  Tot=              5.1283
 Quadrupole moment (field-independent basis, Debye-Ang):
   XX=           -100.7047   YY=            -93.6754   ZZ=            -90.6978
   XY=            -13.5386   XZ=              3.2324   YZ=              2.5526

 Normal termination of Gaussian 16 at Thu May  6 02:36:12 2021.
