 Gaussian 16, Revision A.03,
 Gaussian 16:  EM64L-G16RevA.03 25-Dec-2016

 -------------
 #p 6-31g* mp2
 -------------

 ------------------------------------------------------
 Input file generated by CHIRIPA (05-May-2021 14:53:17)
 ------------------------------------------------------
 Symbolic Z-matrix:
 Charge =  0 Multiplicity = 1

                         Standard orientation:
 ---------------------------------------------------------------------
 Center     Atomic      Atomic             Coordinates (Angstroms)
 Number     Number       Type             X           Y           Z
 ---------------------------------------------------------------------
      1          6           0        5.641802   -0.018627   -0.311239
      2          6           0        6.651745   -0.923593    0.395187
      3          6           0        7.966977   -1.054613   -0.373442
      4          1           0        5.442956   -0.416023   -1.315968
      5          1           0        6.086554    0.976384   -0.451037
      6          1           0        6.204710   -1.916201    0.534850
      7          1           0        6.848064   -0.524103    1.398423
      8          1           0        8.438139   -0.074593   -0.500597
      9          1           0        7.791130   -1.474600   -1.369077
     10          1           0        8.674358   -1.705859    0.149388
     11          6           0        4.321926    0.122262    0.444940
     12          6           0        3.311983    1.027228   -0.261486
     13          6           0        1.996750    1.158248    0.507143
     14          1           0        3.877173   -0.872749    0.584738
     15          1           0        4.520771    0.519658    1.449669
     16          1           0        3.115664    0.627738   -1.264722
     17          1           0        3.759017    2.019836   -0.401149
     18          1           0        2.172598    1.578235    1.502778
     19          1           0        1.525589    0.178228    0.634298
     20          1           0        1.289369    1.809494   -0.015687
     21          6           0       -2.426081    2.010237   -0.158593
     22          6           0       -3.812558    2.146632   -0.033707
     23          6           0       -4.634556    1.017348    0.026175
     24          6           0       -4.033809   -0.238739   -0.041944
     25          6           0       -2.655634   -0.407318   -0.166469
     26          6           0       -1.853053    0.735944   -0.224459
     27          1           0       -1.795075    2.892922   -0.204376
     28          1           0       -4.260338    3.135013    0.017677
     29          1           0       -5.710751    1.094098    0.122771
     30          1           0       -2.238335   -1.405766   -0.215260
     31          1           0       -0.776594    0.626996   -0.321458
     32          7           0       -4.893743   -1.441661    0.020449
     33          8           0       -4.339942   -2.537146   -0.041616
     34          8           0       -6.105276   -1.266246    0.130236
 ---------------------------------------------------------------------

 SCF Done:  E(RHF) =  -669.535150990     A.U. after   15 cycles
 E2 =    -0.2091208530D+01 EUMP2 =    -0.67162635952035D+03

 The electronic state is 1-A.
 Alpha  occ. eigenvalues --  -20.60694 -20.60689 -15.85744 -11.31088 -11.27652
 Alpha  occ. eigenvalues --  -11.27629 -11.27380 -11.26675 -11.26557 -11.22519
 Alpha  occ. eigenvalues --  -11.22355 -11.22072 -11.22017 -11.21898 -11.21408
 Alpha  occ. eigenvalues --   -1.59769  -1.39324  -1.19250  -1.09091  -1.08651
 Alpha  occ. eigenvalues --   -1.04650  -1.04243  -0.96725  -0.95493  -0.87763
 Alpha  occ. eigenvalues --   -0.86042  -0.82325  -0.80321  -0.78848  -0.77374
 Alpha  occ. eigenvalues --   -0.71964  -0.71092  -0.70370  -0.65727  -0.64902
 Alpha  occ. eigenvalues --   -0.64690  -0.62089  -0.61586  -0.60106  -0.58295
 Alpha  occ. eigenvalues --   -0.56017  -0.55149  -0.53554  -0.53140  -0.52977
 Alpha  occ. eigenvalues --   -0.52619  -0.50622  -0.48721  -0.48716  -0.48625
 Alpha  occ. eigenvalues --   -0.47316  -0.46402  -0.46292  -0.44734  -0.44478
 Alpha  occ. eigenvalues --   -0.37234  -0.36246
 Alpha virt. eigenvalues --    0.05151   0.11386   0.16645   0.20199   0.22479
 Alpha virt. eigenvalues --    0.23881   0.25867   0.26172   0.26544   0.27428
 Alpha virt. eigenvalues --    0.28870   0.30277   0.31067   0.31574   0.31921

 Mulliken charges:
               1
     1  C   -0.298933
     2  C   -0.300254
     3  C   -0.476098
     4  H    0.150605
     5  H    0.150257
     6  H    0.153058
     7  H    0.152639
     8  H    0.155491
     9  H    0.155852
    10  H    0.161803
    11  C   -0.299545
    12  C   -0.299878
    13  C   -0.481525
    14  H    0.151112
    15  H    0.151380
    16  H    0.153294
    17  H    0.154682
    18  H    0.162256
    19  H    0.155010
    20  H    0.151907
    21  C   -0.173911
    22  C   -0.218357
    23  C   -0.171691
    24  C    0.159018
    25  C   -0.173552
    26  C   -0.224736
    27  H    0.224792
    28  H    0.222864
    29  H    0.275138
    30  H    0.274981
    31  H    0.235843
    32  N    0.488019
    33  O   -0.460762
    34  O   -0.460759
 Sum of Mulliken charges =  -0.00000

 Dipole moment (field-independent basis, Debye):
    X=              3.3346    Y=              4.2346    Z=             -0.1821  Tot=              5.3930
 Quadrupole moment (field-independent basis, Debye-Ang):
   XX=           -116.1942   YY=            -94.9297   ZZ=            -95.5112
   XY=            -20.1857   XZ=              1.0944   YZ=              0.5238

 Normal termination of Gaussian 16 at Thu May  6 07:32:48 2021.
