 Gaussian 16, Revision A.03,
 Gaussian 16:  EM64L-G16RevA.03 25-Dec-2016

 -------------
 #p 6-31g* mp2
 -------------

 ------------------------------------------------------
 Input file generated by CHIRIPA (05-May-2021 14:53:17)
 ------------------------------------------------------
 Symbolic Z-matrix:
 Charge =  0 Multiplicity = 1

                         Standard orientation:
 ---------------------------------------------------------------------
 Center     Atomic      Atomic             Coordinates (Angstroms)
 Number     Number       Type             X           Y           Z
 ---------------------------------------------------------------------
      1          6           0        4.171253   -0.711254    0.220460
      2          6           0        2.841051   -0.719350   -0.533517
      3          6           0        1.918227   -1.855709   -0.092067
      4          1           0        4.676470   -1.675167    0.070223
      5          1           0        3.973464   -0.626624    1.298009
      6          1           0        3.041342   -0.802547   -1.609426
      7          1           0        2.339031    0.244766   -0.381624
      8          1           0        1.689229   -1.773412    0.975355
      9          1           0        2.395530   -2.826675   -0.259423
     10          1           0        0.973091   -1.842687   -0.643798
     11          6           0        5.104605    0.419006   -0.209767
     12          6           0        6.434807    0.427103    0.544211
     13          6           0        7.357631    1.563462    0.102760
     14          1           0        5.302395    0.334376   -1.287316
     15          1           0        4.599388    1.382920   -0.059529
     16          1           0        6.936827   -0.537013    0.392318
     17          1           0        6.234517    0.510300    1.620119
     18          1           0        6.880328    2.534428    0.270116
     19          1           0        7.586629    1.481164   -0.964661
     20          1           0        8.302767    1.550440    0.654492
     21          6           0       -4.484033    2.485701    0.027381
     22          6           0       -3.165508    2.224626   -0.359730
     23          6           0       -2.677935    0.914523   -0.380964
     24          6           0       -3.540178   -0.115113   -0.007228
     25          6           0       -4.858826    0.112891    0.383244
     26          6           0       -5.325001    1.430860    0.396980
     27          1           0       -4.854480    3.506475    0.040964
     28          1           0       -2.510148    3.041856   -0.647275
     29          1           0       -1.661565    0.684073   -0.676431
     30          1           0       -5.488378   -0.722551    0.664528
     31          1           0       -6.349444    1.630643    0.698058
     32          7           0       -3.035333   -1.506223   -0.025739
     33          8           0       -3.815016   -2.395785    0.308045
     34          8           0       -1.869511   -1.680674   -0.373682
 ---------------------------------------------------------------------

 SCF Done:  E(RHF) =  -669.535878194     A.U. after   15 cycles
 E2 =    -0.2090695640D+01 EUMP2 =    -0.67162657383391D+03

 The electronic state is 1-A.
 Alpha  occ. eigenvalues --  -20.60865 -20.60859 -15.85915 -11.31252 -11.27820
 Alpha  occ. eigenvalues --  -11.27816 -11.27561 -11.26833 -11.26823 -11.21385
 Alpha  occ. eigenvalues --  -11.21109 -11.21041 -11.20933 -11.20925 -11.19969
 Alpha  occ. eigenvalues --   -1.59933  -1.39489  -1.19424  -1.08824  -1.08048
 Alpha  occ. eigenvalues --   -1.04824  -1.03066  -0.95669  -0.95471  -0.86482
 Alpha  occ. eigenvalues --   -0.86223  -0.82499  -0.79146  -0.77861  -0.77546
 Alpha  occ. eigenvalues --   -0.72143  -0.71251  -0.70534  -0.65082  -0.64828
 Alpha  occ. eigenvalues --   -0.64690  -0.62172  -0.60477  -0.58864  -0.57080
 Alpha  occ. eigenvalues --   -0.55328  -0.54779  -0.53155  -0.52917  -0.52100
 Alpha  occ. eigenvalues --   -0.51898  -0.49437  -0.48892  -0.48878  -0.47442
 Alpha  occ. eigenvalues --   -0.46216  -0.45394  -0.45331  -0.44896  -0.43282
 Alpha  occ. eigenvalues --   -0.37405  -0.36427
 Alpha virt. eigenvalues --    0.04987   0.11227   0.16481   0.21167   0.23162
 Alpha virt. eigenvalues --    0.24496   0.26808   0.27204   0.27645   0.28016
 Alpha virt. eigenvalues --    0.28944   0.30739   0.31735   0.31969   0.32217

 Mulliken charges:
               1
     1  C   -0.297399
     2  C   -0.299229
     3  C   -0.482392
     4  H    0.150096
     5  H    0.148675
     6  H    0.149787
     7  H    0.143546
     8  H    0.153268
     9  H    0.152426
    10  H    0.183680
    11  C   -0.297402
    12  C   -0.299293
    13  C   -0.475368
    14  H    0.148793
    15  H    0.146663
    16  H    0.152343
    17  H    0.151489
    18  H    0.153772
    19  H    0.154852
    20  H    0.159695
    21  C   -0.170704
    22  C   -0.218610
    23  C   -0.170692
    24  C    0.157768
    25  C   -0.170865
    26  C   -0.218565
    27  H    0.225837
    28  H    0.223764
    29  H    0.275844
    30  H    0.275789
    31  H    0.223670
    32  N    0.495407
    33  O   -0.459440
    34  O   -0.467203
 Sum of Mulliken charges =  -0.00000

 Dipole moment (field-independent basis, Debye):
    X=             -1.9978    Y=              4.8165    Z=              0.0534  Tot=              5.2147
 Quadrupole moment (field-independent basis, Debye-Ang):
   XX=            -79.3904   YY=            -95.9935   ZZ=            -94.6906
   XY=            -16.7399   XZ=             -2.0260   YZ=              0.0128

 Normal termination of Gaussian 16 at Thu May  6 15:36:26 2021.
