 Gaussian 16, Revision A.03,
 Gaussian 16:  EM64L-G16RevA.03 25-Dec-2016

 -------------
 #p 6-31g* mp2
 -------------

 ------------------------------------------------------
 Input file generated by CHIRIPA (05-May-2021 14:53:14)
 ------------------------------------------------------
 Symbolic Z-matrix:
 Charge =  0 Multiplicity = 1

                         Standard orientation:
 ---------------------------------------------------------------------
 Center     Atomic      Atomic             Coordinates (Angstroms)
 Number     Number       Type             X           Y           Z
 ---------------------------------------------------------------------
      1          6           0       -3.294459    0.327871    0.138838
      2          6           0       -4.346198   -0.401120   -0.698063
      3          6           0       -5.161321    0.546212   -1.578932
      4          1           0       -3.791682    1.078959    0.767791
      5          1           0       -2.619845    0.878470   -0.531334
      6          1           0       -5.017793   -0.951299   -0.026586
      7          1           0       -3.846435   -1.150692   -1.324956
      8          1           0       -4.507800    1.085954   -2.271889
      9          1           0       -5.685814    1.286481   -0.966142
     10          1           0       -5.907184    0.004122   -2.168581
     11          6           0       -2.471479   -0.605773    1.024694
     12          6           0       -1.419740    0.123218    1.861594
     13          6           0       -0.604617   -0.824114    2.742463
     14          1           0       -3.146093   -1.156372    1.694866
     15          1           0       -1.974256   -1.356861    0.395741
     16          1           0       -1.919503    0.872790    2.488487
     17          1           0       -0.748145    0.673397    1.190118
     18          1           0       -0.080124   -1.564383    2.129674
     19          1           0       -1.258138   -1.363856    3.435420
     20          1           0        0.141246   -0.282024    3.332113
     21          6           0        2.152882    2.596336   -0.045870
     22          6           0        1.073863    1.942471   -0.649772
     23          6           0        1.117994    0.564388   -0.881051
     24          6           0        2.261933   -0.131954   -0.494010
     25          6           0        3.353140    0.490985    0.109732
     26          6           0        3.287077    1.869787    0.331290
     27          1           0        2.110082    3.667143    0.130018
     28          1           0        0.191745    2.504171   -0.943721
     29          1           0        0.296906    0.033020   -1.346754
     30          1           0        4.218919   -0.095781    0.391775
     31          1           0        4.126552    2.374950    0.800479
     32          7           0        2.320262   -1.591249   -0.733709
     33          8           0        3.339519   -2.182071   -0.383454
     34          8           0        1.345616   -2.116591   -1.267301
 ---------------------------------------------------------------------

 SCF Done:  E(RHF) =  -669.534759807     A.U. after   15 cycles
 E2 =    -0.2094179652D+01 EUMP2 =    -0.67162893945910D+03

 The electronic state is 1-A.
 Alpha  occ. eigenvalues --  -20.60884 -20.60878 -15.85932 -11.31285 -11.27861
 Alpha  occ. eigenvalues --  -11.27849 -11.27591 -11.26859 -11.26848 -11.21751
 Alpha  occ. eigenvalues --  -11.21676 -11.21512 -11.21367 -11.21265 -11.20951
 Alpha  occ. eigenvalues --   -1.59954  -1.39508  -1.19472  -1.08857  -1.08551
 Alpha  occ. eigenvalues --   -1.04886  -1.03590  -0.96058  -0.95696  -0.87067
 Alpha  occ. eigenvalues --   -0.86264  -0.82535  -0.79671  -0.78370  -0.77574
 Alpha  occ. eigenvalues --   -0.72149  -0.71279  -0.70573  -0.65260  -0.65093
 Alpha  occ. eigenvalues --   -0.64851  -0.62213  -0.61019  -0.59428  -0.57668
 Alpha  occ. eigenvalues --   -0.55400  -0.55335  -0.53217  -0.52954  -0.52718
 Alpha  occ. eigenvalues --   -0.52465  -0.49994  -0.48908  -0.48904  -0.47979
 Alpha  occ. eigenvalues --   -0.46717  -0.45918  -0.45819  -0.44902  -0.43867
 Alpha  occ. eigenvalues --   -0.37440  -0.36340
 Alpha virt. eigenvalues --    0.04931   0.11112   0.16336   0.19685   0.22910
 Alpha virt. eigenvalues --    0.24200   0.25225   0.26723   0.27533   0.28184
 Alpha virt. eigenvalues --    0.30316   0.30731   0.31414   0.31812   0.31945

 Mulliken charges:
               1
     1  C   -0.296248
     2  C   -0.300559
     3  C   -0.475405
     4  H    0.149673
     5  H    0.136357
     6  H    0.154281
     7  H    0.155928
     8  H    0.152017
     9  H    0.154609
    10  H    0.162317
    11  C   -0.303318
    12  C   -0.307430
    13  C   -0.476722
    14  H    0.151551
    15  H    0.158647
    16  H    0.148463
    17  H    0.155349
    18  H    0.160250
    19  H    0.155943
    20  H    0.158021
    21  C   -0.170463
    22  C   -0.218905
    23  C   -0.173416
    24  C    0.160952
    25  C   -0.170637
    26  C   -0.218592
    27  H    0.226406
    28  H    0.225717
    29  H    0.277885
    30  H    0.276069
    31  H    0.223961
    32  N    0.488123
    33  O   -0.459353
    34  O   -0.461472
 Sum of Mulliken charges =  -0.00000

 Dipole moment (field-independent basis, Debye):
    X=             -0.1250    Y=              5.0518    Z=              0.8305  Tot=              5.1211
 Quadrupole moment (field-independent basis, Debye-Ang):
   XX=            -91.3081   YY=            -96.8921   ZZ=            -95.5522
   XY=             12.3238   XZ=              3.2469   YZ=             -2.3016

 Normal termination of Gaussian 16 at Wed May  5 17:06:07 2021.
