 Gaussian 16, Revision A.03,
 Gaussian 16:  EM64L-G16RevA.03 25-Dec-2016

 -------------
 #p 6-31g* mp2
 -------------

 ------------------------------------------------------
 Input file generated by CHIRIPA (05-May-2021 14:57:24)
 ------------------------------------------------------
 Symbolic Z-matrix:
 Charge =  0 Multiplicity = 1

                         Standard orientation:
 ---------------------------------------------------------------------
 Center     Atomic      Atomic             Coordinates (Angstroms)
 Number     Number       Type             X           Y           Z
 ---------------------------------------------------------------------
      1          6           0        3.927163    2.385954    0.445460
      2          6           0        4.665883    1.714967   -0.534636
      3          6           0        4.368402    0.389393   -0.864648
      4          6           0        3.320876   -0.237553   -0.191656
      5          6           0        2.566524    0.404115    0.789418
      6          6           0        2.881684    1.729544    1.103200
      7          1           0        4.165120    3.415636    0.695518
      8          1           0        5.478360    2.222242   -1.047080
      9          1           0        4.924105   -0.153758   -1.619366
     10          1           0        1.762347   -0.127926    1.283026
     11          1           0        2.306288    2.248158    1.864780
     12          7           0        2.996589   -1.640802   -0.532434
     13          8           0        2.068871   -2.170883    0.075012
     14          8           0        3.676270   -2.184016   -1.400529
     15          6           0       -5.004188    1.307127   -1.284812
     16          6           0       -5.123589   -0.082339   -1.176891
     17          6           0       -4.226170   -0.813311   -0.392757
     18          6           0       -3.216753   -0.119481    0.272801
     19          6           0       -3.071662    1.264195    0.185166
     20          6           0       -3.980410    1.974783   -0.604638
     21          1           0       -5.705725    1.867046   -1.896148
     22          1           0       -5.917689   -0.603497   -1.704002
     23          1           0       -4.295552   -1.889593   -0.291658
     24          1           0       -2.269736    1.755810    0.722424
     25          1           0       -3.885265    3.053797   -0.686611
     26          7           0       -2.260699   -0.882538    1.105930
     27          8           0       -1.380123   -0.247717    1.682319
     28          8           0       -2.410023   -2.100995    1.166772
 ---------------------------------------------------------------------

 SCF Done:  E(RHF) =  -868.338235766     A.U. after   16 cycles
 E2 =    -0.2599193163D+01 EUMP2 =    -0.87093742892905D+03

 The electronic state is 1-A.
 Alpha  occ. eigenvalues --  -20.60841 -20.60754 -20.59969 -20.59913 -15.85846
 Alpha  occ. eigenvalues --  -15.84996 -11.31216 -11.30429 -11.27829 -11.27748
 Alpha  occ. eigenvalues --  -11.27530 -11.27106 -11.26880 -11.26865 -11.26830
 Alpha  occ. eigenvalues --  -11.26777 -11.26146 -11.26036  -1.59841  -1.59029
 Alpha  occ. eigenvalues --   -1.39406  -1.38571  -1.19386  -1.18643  -1.08777
 Alpha  occ. eigenvalues --   -1.08046  -1.04796  -1.04042  -0.95615  -0.94848
 Alpha  occ. eigenvalues --   -0.86194  -0.85446  -0.82458  -0.81665  -0.77502
 Alpha  occ. eigenvalues --   -0.76678  -0.72079  -0.71215  -0.71136  -0.70503
 Alpha  occ. eigenvalues --   -0.70364  -0.69749  -0.65048  -0.64804  -0.64291
 Alpha  occ. eigenvalues --   -0.64053  -0.62150  -0.61349  -0.55297  -0.54593
 Alpha  occ. eigenvalues --   -0.53116  -0.52894  -0.52405  -0.52123  -0.48831
 Alpha  occ. eigenvalues --   -0.48791  -0.47999  -0.47945  -0.44805  -0.43963
 Alpha  occ. eigenvalues --   -0.37362  -0.36683  -0.36397  -0.35660
 Alpha virt. eigenvalues --    0.05027   0.05829   0.11258   0.11982   0.16498
 Alpha virt. eigenvalues --    0.17274   0.21332   0.22135   0.27241   0.27835
 Alpha virt. eigenvalues --    0.28363   0.29129   0.30946   0.31632   0.32483

 Mulliken charges:
               1
     1  C   -0.171666
     2  C   -0.219847
     3  C   -0.171645
     4  C    0.155811
     5  C   -0.176957
     6  C   -0.222454
     7  H    0.221829
     8  H    0.220030
     9  H    0.273262
    10  H    0.296809
    11  H    0.223298
    12  N    0.486491
    13  O   -0.451686
    14  O   -0.465949
    15  C   -0.170717
    16  C   -0.218357
    17  C   -0.169727
    18  C    0.159682
    19  C   -0.170405
    20  C   -0.218254
    21  H    0.225589
    22  H    0.224366
    23  H    0.277858
    24  H    0.270672
    25  H    0.221977
    26  N    0.491545
    27  O   -0.470991
    28  O   -0.450562
 Sum of Mulliken charges =  -0.00000

 Dipole moment (field-independent basis, Debye):
    X=             -2.5850    Y=              7.3706    Z=             -1.6499  Tot=              7.9831
 Quadrupole moment (field-independent basis, Debye-Ang):
   XX=            -73.4204   YY=           -105.1049   ZZ=           -105.6489
   XY=             10.3213   XZ=             10.7464   YZ=              0.8059

 Normal termination of Gaussian 16 at Thu May  6 13:01:37 2021.
