 Gaussian 16, Revision A.03,
 Gaussian 16:  EM64L-G16RevA.03 25-Dec-2016

 -------------
 #p 6-31g* mp2
 -------------

 ------------------------------------------------------
 Input file generated by CHIRIPA (05-May-2021 14:55:22)
 ------------------------------------------------------
 Symbolic Z-matrix:
 Charge =  0 Multiplicity = 1

                         Standard orientation:
 ---------------------------------------------------------------------
 Center     Atomic      Atomic             Coordinates (Angstroms)
 Number     Number       Type             X           Y           Z
 ---------------------------------------------------------------------
      1          6           0        5.943429   -0.416735    0.611295
      2          6           0        5.335421   -1.404763   -0.170144
      3          6           0        3.990298   -1.293852   -0.534689
      4          6           0        3.279796   -0.176645   -0.098427
      5          6           0        3.857310    0.824465    0.681025
      6          6           0        5.203737    0.692769    1.033641
      7          1           0        6.988859   -0.510967    0.889849
      8          1           0        5.907427   -2.267509   -0.499574
      9          1           0        3.494663   -2.044003   -1.138872
     10          1           0        3.261309    1.673012    0.994343
     11          1           0        5.673311    1.461631    1.640599
     12          7           0        1.855085   -0.048226   -0.478040
     13          8           0        1.250912    0.945727   -0.080966
     14          8           0        1.369546   -0.943957   -1.165467
     15          6           0       -3.973359    0.747362    0.297406
     16          6           0       -3.180844    1.414494   -0.827245
     17          6           0       -2.133733    2.400397   -0.308256
     18          1           0       -4.464974    1.522716    0.900804
     19          1           0       -3.276669    0.224789    0.967432
     20          1           0       -3.878947    1.934498   -1.495723
     21          1           0       -2.691214    0.637454   -1.428149
     22          1           0       -1.414707    1.891824    0.342094
     23          1           0       -2.609188    3.196237    0.274136
     24          1           0       -1.578891    2.865722   -1.128917
     25          6           0       -5.024032   -0.240969   -0.205599
     26          6           0       -5.816548   -0.908101    0.919052
     27          6           0       -6.863659   -1.894004    0.400064
     28          1           0       -5.720722    0.281604   -0.875625
     29          1           0       -4.532417   -1.016323   -0.808996
     30          1           0       -6.306178   -0.131060    1.519956
     31          1           0       -5.118444   -1.428104    1.587531
     32          1           0       -6.388203   -2.689844   -0.182328
     33          1           0       -7.582684   -1.385430   -0.250287
     34          1           0       -7.418501   -2.359329    1.220724
 ---------------------------------------------------------------------

 SCF Done:  E(RHF) =  -669.536009061     A.U. after   15 cycles
 E2 =    -0.2090788311D+01 EUMP2 =    -0.67162679737249D+03

 The electronic state is 1-A.
 Alpha  occ. eigenvalues --  -20.60955 -20.60948 -15.85989 -11.31305 -11.27868
 Alpha  occ. eigenvalues --  -11.27864 -11.27605 -11.26875 -11.26865 -11.20828
 Alpha  occ. eigenvalues --  -11.20428 -11.20414 -11.20204 -11.20107 -11.19258
 Alpha  occ. eigenvalues --   -1.60018  -1.39574  -1.19474  -1.08879  -1.07336
 Alpha  occ. eigenvalues --   -1.04869  -1.02365  -0.95724  -0.94809  -0.86270
 Alpha  occ. eigenvalues --   -0.85833  -0.82555  -0.78481  -0.77608  -0.77108
 Alpha  occ. eigenvalues --   -0.72213  -0.71333  -0.70582  -0.65130  -0.64873
 Alpha  occ. eigenvalues --   -0.63964  -0.62216  -0.59746  -0.58255  -0.56417
 Alpha  occ. eigenvalues --   -0.55376  -0.54087  -0.53202  -0.52960  -0.51510
 Alpha  occ. eigenvalues --   -0.51251  -0.49143  -0.48966  -0.48554  -0.46777
 Alpha  occ. eigenvalues --   -0.45502  -0.44988  -0.44648  -0.44523  -0.42636
 Alpha  occ. eigenvalues --   -0.37453  -0.36470
 Alpha virt. eigenvalues --    0.04916   0.11185   0.16413   0.21320   0.23911
 Alpha virt. eigenvalues --    0.25543   0.27240   0.27719   0.28196   0.28549
 Alpha virt. eigenvalues --    0.29228   0.30892   0.32384   0.32632   0.32747

 Mulliken charges:
               1
     1  C   -0.170580
     2  C   -0.218602
     3  C   -0.170578
     4  C    0.157610
     5  C   -0.170890
     6  C   -0.218556
     7  H    0.226030
     8  H    0.223825
     9  H    0.275796
    10  H    0.276018
    11  H    0.223913
    12  N    0.490820
    13  O   -0.461538
    14  O   -0.459821
    15  C   -0.297781
    16  C   -0.300065
    17  C   -0.477035
    18  H    0.145041
    19  H    0.151386
    20  H    0.144350
    21  H    0.159779
    22  H    0.176181
    23  H    0.142504
    24  H    0.158331
    25  C   -0.297898
    26  C   -0.298820
    27  C   -0.475142
    28  H    0.146916
    29  H    0.151142
    30  H    0.149904
    31  H    0.151348
    32  H    0.154943
    33  H    0.153919
    34  H    0.157550
 Sum of Mulliken charges =  -0.00000

 Dipole moment (field-independent basis, Debye):
    X=              5.4124    Y=             -0.5251    Z=              1.3229  Tot=              5.5964
 Quadrupole moment (field-independent basis, Debye-Ang):
   XX=            -64.0591   YY=            -91.5280   ZZ=            -94.5961
   XY=             -3.5221   XZ=              3.8389   YZ=              2.2564

 Normal termination of Gaussian 16 at Wed May  5 23:52:33 2021.
