 Gaussian 16, Revision A.03,
 Gaussian 16:  EM64L-G16RevA.03 25-Dec-2016

 -------------
 #p 6-31g* mp2
 -------------

 ------------------------------------------------------
 Input file generated by CHIRIPA (05-May-2021 14:55:20)
 ------------------------------------------------------
 Symbolic Z-matrix:
 Charge =  0 Multiplicity = 1

                         Standard orientation:
 ---------------------------------------------------------------------
 Center     Atomic      Atomic             Coordinates (Angstroms)
 Number     Number       Type             X           Y           Z
 ---------------------------------------------------------------------
      1          6           0       -4.367987    2.187685    0.596532
      2          6           0       -5.105375    1.007073    0.458929
      3          6           0       -4.494912   -0.161080   -0.007229
      4          6           0       -3.139165   -0.112646   -0.328001
      5          6           0       -2.377623    1.048127   -0.201710
      6          6           0       -3.008861    2.204415    0.266355
      7          1           0       -4.850279    3.090526    0.959395
      8          1           0       -6.161040    0.991142    0.714590
      9          1           0       -5.042068   -1.088747   -0.123292
     10          1           0       -1.326858    1.033050   -0.464548
     11          1           0       -2.433711    3.119860    0.372220
     12          7           0       -2.481898   -1.343036   -0.822511
     13          8           0       -1.286155   -1.274230   -1.098373
     14          8           0       -3.174922   -2.352925   -0.924882
     15          6           0        3.419454   -0.142487    0.513095
     16          6           0        3.028770   -1.440132    1.221239
     17          6           0        1.550615   -1.479393    1.610228
     18          1           0        3.188379    0.708942    1.167784
     19          1           0        2.799407   -0.022649   -0.386113
     20          1           0        3.650323   -1.558181    2.118096
     21          1           0        3.260979   -2.288581    0.564865
     22          1           0        0.916146   -1.386652    0.722844
     23          1           0        1.307703   -0.652100    2.284900
     24          1           0        1.293069   -2.415692    2.115078
     25          6           0        4.894122   -0.088264    0.117945
     26          6           0        5.284806    1.209381   -0.590200
     27          6           0        6.762961    1.248642   -0.979188
     28          1           0        5.514169   -0.208102    1.017152
     29          1           0        5.125196   -0.939693   -0.536745
     30          1           0        5.052597    2.057830    0.066175
     31          1           0        4.663253    1.327430   -1.487056
     32          1           0        7.005872    0.421349   -1.653860
     33          1           0        7.397430    1.155901   -0.091805
     34          1           0        7.020507    2.184941   -1.484038
 ---------------------------------------------------------------------

 SCF Done:  E(RHF) =  -669.536370768     A.U. after   15 cycles
 E2 =    -0.2090934421D+01 EUMP2 =    -0.67162730518873D+03

 The electronic state is 1-A.
 Alpha  occ. eigenvalues --  -20.60934 -20.60921 -15.85956 -11.31253 -11.27818
 Alpha  occ. eigenvalues --  -11.27811 -11.27556 -11.26824 -11.26813 -11.21350
 Alpha  occ. eigenvalues --  -11.21020 -11.20967 -11.20896 -11.20856 -11.20166
 Alpha  occ. eigenvalues --   -1.59983  -1.39542  -1.19422  -1.08832  -1.07993
 Alpha  occ. eigenvalues --   -1.04817  -1.03046  -0.95680  -0.95485  -0.86507
 Alpha  occ. eigenvalues --   -0.86219  -0.82515  -0.79132  -0.77813  -0.77563
 Alpha  occ. eigenvalues --   -0.72186  -0.71290  -0.70535  -0.65082  -0.64822
 Alpha  occ. eigenvalues --   -0.64618  -0.62165  -0.60430  -0.58887  -0.57104
 Alpha  occ. eigenvalues --   -0.55326  -0.54757  -0.53148  -0.52910  -0.52179
 Alpha  occ. eigenvalues --   -0.51920  -0.49434  -0.48944  -0.48924  -0.47447
 Alpha  occ. eigenvalues --   -0.46181  -0.45373  -0.45293  -0.44820  -0.43318
 Alpha  occ. eigenvalues --   -0.37401  -0.36416
 Alpha virt. eigenvalues --    0.04922   0.11234   0.16388   0.21253   0.23279
 Alpha virt. eigenvalues --    0.24691   0.26755   0.27298   0.27687   0.28200
 Alpha virt. eigenvalues --    0.28894   0.30770   0.31762   0.32128   0.32483

 Mulliken charges:
               1
     1  C   -0.170556
     2  C   -0.218617
     3  C   -0.170810
     4  C    0.158481
     5  C   -0.170286
     6  C   -0.218685
     7  H    0.225860
     8  H    0.223661
     9  H    0.275696
    10  H    0.276160
    11  H    0.223884
    12  N    0.489735
    13  O   -0.461619
    14  O   -0.458548
    15  C   -0.298892
    16  C   -0.298155
    17  C   -0.487871
    18  H    0.144350
    19  H    0.152631
    20  H    0.148048
    21  H    0.154572
    22  H    0.178760
    23  H    0.145365
    24  H    0.159411
    25  C   -0.297901
    26  C   -0.299329
    27  C   -0.475439
    28  H    0.148331
    29  H    0.151169
    30  H    0.149363
    31  H    0.151893
    32  H    0.155930
    33  H    0.154635
    34  H    0.158772
 Sum of Mulliken charges =  -0.00000

 Dipole moment (field-independent basis, Debye):
    X=             -2.5204    Y=              4.2652    Z=              1.6306  Tot=              5.2157
 Quadrupole moment (field-independent basis, Debye-Ang):
   XX=            -77.9893   YY=            -94.7524   ZZ=            -96.3896
   XY=            -11.3631   XZ=             -4.9370   YZ=             -1.2118

 Normal termination of Gaussian 16 at Thu May  6 04:31:49 2021.
