 Gaussian 16, Revision A.03,
 Gaussian 16:  EM64L-G16RevA.03 25-Dec-2016

 -------------
 #p 6-31g* mp2
 -------------

 ------------------------------------------------------
 Input file generated by CHIRIPA (05-May-2021 14:55:23)
 ------------------------------------------------------
 Symbolic Z-matrix:
 Charge =  0 Multiplicity = 1

                         Standard orientation:
 ---------------------------------------------------------------------
 Center     Atomic      Atomic             Coordinates (Angstroms)
 Number     Number       Type             X           Y           Z
 ---------------------------------------------------------------------
      1          6           0       -1.024942   -0.120059    1.922485
      2          6           0       -0.945694    0.763196    0.840773
      3          6           0       -1.952547    0.790525   -0.128787
      4          6           0       -3.029262   -0.083108    0.015229
      5          6           0       -3.136775   -0.974609    1.081511
      6          6           0       -2.118302   -0.984619    2.039196
      7          1           0       -0.238281   -0.134562    2.671050
      8          1           0       -0.097744    1.435758    0.747569
      9          1           0       -1.916394    1.464172   -0.976319
     10          1           0       -3.994360   -1.633112    1.147393
     11          1           0       -2.182488   -1.671629    2.878208
     12          7           0       -4.101323   -0.063344   -1.004915
     13          8           0       -5.039521   -0.843096   -0.855216
     14          8           0       -3.983108    0.731525   -1.934885
     15          6           0        3.386057    0.675461    0.205700
     16          6           0        3.336858    2.027557   -0.506620
     17          6           0        2.804055    3.147675    0.387389
     18          1           0        2.378166    0.417062    0.558305
     19          1           0        4.017401    0.763168    1.100747
     20          1           0        2.706914    1.936966   -1.400813
     21          1           0        4.344947    2.282677   -0.857739
     22          1           0        3.436027    3.266998    1.273376
     23          1           0        1.788686    2.919323    0.727217
     24          1           0        2.777377    4.105343   -0.141780
     25          6           0        3.916531   -0.454365   -0.675105
     26          6           0        3.965730   -1.806461    0.037215
     27          6           0        4.498533   -2.926578   -0.856794
     28          1           0        3.285187   -0.542072   -1.570151
     29          1           0        4.924422   -0.195967   -1.027712
     30          1           0        2.957641   -2.061581    0.388334
     31          1           0        4.595674   -1.715871    0.931408
     32          1           0        5.513902   -2.698227   -1.196622
     33          1           0        3.866561   -3.045901   -1.742782
     34          1           0        4.525210   -3.884247   -0.327626
 ---------------------------------------------------------------------

 SCF Done:  E(RHF) =  -669.535418454     A.U. after   15 cycles
 E2 =    -0.2091796549D+01 EUMP2 =    -0.67162721500291D+03

 The electronic state is 1-A.
 Alpha  occ. eigenvalues --  -20.60775 -20.60770 -15.85829 -11.31202 -11.27774
 Alpha  occ. eigenvalues --  -11.27769 -11.27514 -11.26783 -11.26763 -11.22455
 Alpha  occ. eigenvalues --  -11.22255 -11.22172 -11.22111 -11.22005 -11.21502
 Alpha  occ. eigenvalues --   -1.59851  -1.39404  -1.19376  -1.09180  -1.08767
 Alpha  occ. eigenvalues --   -1.04781  -1.04260  -0.96716  -0.95601  -0.87728
 Alpha  occ. eigenvalues --   -0.86182  -0.82434  -0.80327  -0.78984  -0.77481
 Alpha  occ. eigenvalues --   -0.72047  -0.71174  -0.70478  -0.65883  -0.65026
 Alpha  occ. eigenvalues --   -0.64762  -0.62206  -0.61577  -0.60082  -0.58317
 Alpha  occ. eigenvalues --   -0.56037  -0.55268  -0.53388  -0.53180  -0.53091
 Alpha  occ. eigenvalues --   -0.52858  -0.50665  -0.48824  -0.48801  -0.48618
 Alpha  occ. eigenvalues --   -0.47352  -0.46517  -0.46419  -0.44807  -0.44505
 Alpha  occ. eigenvalues --   -0.37351  -0.36378
 Alpha virt. eigenvalues --    0.05054   0.11156   0.16540   0.18899   0.22755
 Alpha virt. eigenvalues --    0.23534   0.25354   0.26504   0.26598   0.28270
 Alpha virt. eigenvalues --    0.29109   0.29930   0.31005   0.31428   0.31882

 Mulliken charges:
               1
     1  C   -0.174357
     2  C   -0.227312
     3  C   -0.174033
     4  C    0.158924
     5  C   -0.171013
     6  C   -0.218598
     7  H    0.226952
     8  H    0.237216
     9  H    0.276258
    10  H    0.275691
    11  H    0.223586
    12  N    0.488049
    13  O   -0.460447
    14  O   -0.460333
    15  C   -0.300660
    16  C   -0.301577
    17  C   -0.479396
    18  H    0.142354
    19  H    0.150623
    20  H    0.153531
    21  H    0.156963
    22  H    0.158931
    23  H    0.145550
    24  H    0.166242
    25  C   -0.298463
    26  C   -0.300263
    27  C   -0.476199
    28  H    0.152393
    29  H    0.152095
    30  H    0.150859
    31  H    0.151484
    32  H    0.156328
    33  H    0.157392
    34  H    0.161230
 Sum of Mulliken charges =  -0.00000

 Dipole moment (field-independent basis, Debye):
    X=              3.9509    Y=             -0.0840    Z=              3.5239  Tot=              5.2948
 Quadrupole moment (field-independent basis, Debye-Ang):
   XX=           -115.5004   YY=            -93.0369   ZZ=            -94.0703
   XY=              2.6273   XZ=            -12.0384   YZ=             -2.8729

 Normal termination of Gaussian 16 at Wed May  5 20:44:02 2021.
