 Gaussian 16, Revision A.03,
 Gaussian 16:  EM64L-G16RevA.03 25-Dec-2016

 -------------
 #p 6-31g* mp2
 -------------

 ------------------------------------------------------
 Input file generated by CHIRIPA (05-May-2021 14:57:21)
 ------------------------------------------------------
 Symbolic Z-matrix:
 Charge =  0 Multiplicity = 1

                         Standard orientation:
 ---------------------------------------------------------------------
 Center     Atomic      Atomic             Coordinates (Angstroms)
 Number     Number       Type             X           Y           Z
 ---------------------------------------------------------------------
      1          6           0       -1.529098    2.249567    0.025249
      2          6           0       -2.719383    2.089628    0.742301
      3          6           0       -3.432600    0.889035    0.675610
      4          6           0       -2.924315   -0.135410   -0.121540
      5          6           0       -1.741364   -0.006585   -0.847709
      6          6           0       -1.044742    1.202795   -0.766072
      7          1           0       -0.981500    3.185629    0.082861
      8          1           0       -3.097918    2.900855    1.357659
      9          1           0       -4.356690    0.738281    1.220357
     10          1           0       -1.389076   -0.833266   -1.452614
     11          1           0       -0.120625    1.324182   -1.324031
     12          7           0       -3.670582   -1.411075   -0.200053
     13          8           0       -3.201629   -2.298408   -0.909532
     14          8           0       -4.710328   -1.499453    0.449373
     15          6           0        2.253169    2.356612   -0.283216
     16          6           0        2.054898    1.789054    0.979752
     17          6           0        2.355149    0.442886    1.208289
     18          6           0        2.854315   -0.309899    0.146479
     19          6           0        3.062792    0.226725   -1.123113
     20          6           0        2.755596    1.575013   -1.328774
     21          1           0        2.017229    3.403170   -0.451864
     22          1           0        1.664836    2.393653    1.793604
     23          1           0        2.211304   -0.021954    2.176096
     24          1           0        3.453005   -0.401252   -1.914818
     25          1           0        2.910588    2.013118   -2.310653
     26          7           0        3.175853   -1.736149    0.376312
     27          8           0        3.614452   -2.378008   -0.575677
     28          8           0        2.983187   -2.185177    1.504093
 ---------------------------------------------------------------------

 SCF Done:  E(RHF) =  -868.334866547     A.U. after   16 cycles
 E2 =    -0.2604308811D+01 EUMP2 =    -0.87093917535811D+03

 The electronic state is 1-A.
 Alpha  occ. eigenvalues --  -20.61371 -20.61361 -20.60802 -20.60785 -15.86432
 Alpha  occ. eigenvalues --  -15.85848 -11.32118 -11.31332 -11.28722 -11.28650
 Alpha  occ. eigenvalues --  -11.28522 -11.27897 -11.27818 -11.27810 -11.27752
 Alpha  occ. eigenvalues --  -11.27735 -11.27023 -11.26800  -1.60437  -1.59868
 Alpha  occ. eigenvalues --   -1.39981  -1.39418  -1.20338  -1.19503  -1.09705
 Alpha  occ. eigenvalues --   -1.08899  -1.05748  -1.04908  -0.96461  -0.95721
 Alpha  occ. eigenvalues --   -0.87138  -0.86324  -0.83258  -0.82541  -0.78234
 Alpha  occ. eigenvalues --   -0.77556  -0.72641  -0.72068  -0.71766  -0.71468
 Alpha  occ. eigenvalues --   -0.71191  -0.70674  -0.65961  -0.65731  -0.65161
 Alpha  occ. eigenvalues --   -0.64984  -0.63054  -0.62300  -0.56300  -0.55518
 Alpha  occ. eigenvalues --   -0.54369  -0.53816  -0.53205  -0.52688  -0.49425
 Alpha  occ. eigenvalues --   -0.49378  -0.48832  -0.48815  -0.45314  -0.44797
 Alpha  occ. eigenvalues --   -0.38518  -0.37752  -0.37099  -0.36331
 Alpha virt. eigenvalues --    0.04238   0.04930   0.10064   0.11271   0.15570
 Alpha virt. eigenvalues --    0.16412   0.19452   0.21933   0.25648   0.26558
 Alpha virt. eigenvalues --    0.27553   0.29386   0.30026   0.31032   0.32363

 Mulliken charges:
               1
     1  C   -0.176173
     2  C   -0.218792
     3  C   -0.172067
     4  C    0.160053
     5  C   -0.175345
     6  C   -0.215002
     7  H    0.213615
     8  H    0.221655
     9  H    0.275960
    10  H    0.277409
    11  H    0.229685
    12  N    0.487928
    13  O   -0.457708
    14  O   -0.460357
    15  C   -0.184990
    16  C   -0.209852
    17  C   -0.167421
    18  C    0.159613
    19  C   -0.171882
    20  C   -0.226857
    21  H    0.223971
    22  H    0.224501
    23  H    0.280446
    24  H    0.279790
    25  H    0.226812
    26  N    0.487987
    27  O   -0.457338
    28  O   -0.455641
 Sum of Mulliken charges =  -0.00000

 Dipole moment (field-independent basis, Debye):
    X=              1.7476    Y=              9.1924    Z=             -0.4316  Tot=              9.3670
 Quadrupole moment (field-independent basis, Debye-Ang):
   XX=           -124.4498   YY=           -110.1280   ZZ=            -99.0358
   XY=             -0.4486   XZ=             -7.5091   YZ=              2.2797

 Normal termination of Gaussian 16 at Thu May  6 06:31:48 2021.
