 Gaussian 16, Revision A.03,
 Gaussian 16:  EM64L-G16RevA.03 25-Dec-2016

 -------------
 #p 6-31g* mp2
 -------------

 ------------------------------------------------------
 Input file generated by CHIRIPA (05-May-2021 14:51:12)
 ------------------------------------------------------
 Symbolic Z-matrix:
 Charge =  0 Multiplicity = 1

                         Standard orientation:
 ---------------------------------------------------------------------
 Center     Atomic      Atomic             Coordinates (Angstroms)
 Number     Number       Type             X           Y           Z
 ---------------------------------------------------------------------
      1          6           0        3.263434    1.028286   -0.417045
      2          6           0        1.877896    1.672318   -0.476146
      3          6           0        1.937240    3.199546   -0.519121
      4          1           0        3.796564    1.400996    0.468282
      5          1           0        3.846795    1.349032   -1.291234
      6          1           0        1.296843    1.349355    0.397175
      7          1           0        1.347929    1.297886   -1.361331
      8          1           0        2.493964    3.538843   -1.398631
      9          1           0        2.442587    3.590604    0.369866
     10          1           0        0.935841    3.639204   -0.561081
     11          6           0        3.220617   -0.498150   -0.373612
     12          6           0        4.606155   -1.142182   -0.314511
     13          6           0        4.546810   -2.669410   -0.271536
     14          1           0        2.637256   -0.818896    0.500577
     15          1           0        2.687486   -0.870860   -1.258939
     16          1           0        5.136121   -0.767750    0.570674
     17          1           0        5.187207   -0.819219   -1.187832
     18          1           0        4.041463   -3.060468   -1.160523
     19          1           0        3.990087   -3.008707    0.607974
     20          1           0        5.548209   -3.109068   -0.229576
     21          6           0       -3.898409   -0.024219    0.087783
     22          6           0       -4.379417   -0.894912   -1.073469
     23          6           0       -5.693723   -0.400336   -1.678275
     24          1           0       -4.674657    0.001090    0.864793
     25          1           0       -3.775018    1.009238   -0.264546
     26          1           0       -4.500540   -1.926696   -0.719395
     27          1           0       -3.601856   -0.918307   -1.847721
     28          1           0       -5.582927    0.620435   -2.058215
     29          1           0       -6.486716   -0.393684   -0.923478
     30          1           0       -6.019208   -1.037223   -2.506704
     31          6           0       -2.585642   -0.505918    0.702874
     32          6           0       -2.104632    0.364776    1.864127
     33          6           0       -0.790328   -0.129801    2.468932
     34          1           0       -2.709033   -1.539374    1.055203
     35          1           0       -1.809394   -0.531226   -0.074136
     36          1           0       -2.882195    0.388171    2.638378
     37          1           0       -1.983511    1.396560    1.510052
     38          1           0        0.002665   -0.136452    1.714135
     39          1           0       -0.901123   -1.150570    2.848872
     40          1           0       -0.464843    0.507087    3.297361
 ---------------------------------------------------------------------

 SCF Done:  E(RHF) =  -470.733306883     A.U. after   11 cycles
 E2 =    -0.1582924197D+01 EUMP2 =    -0.47231623108001D+03

 The electronic state is 1-A.
 Alpha  occ. eigenvalues --  -11.21621 -11.21609 -11.21607 -11.21595 -11.21425
 Alpha  occ. eigenvalues --  -11.21393 -11.21366 -11.21334 -11.21102 -11.21077
 Alpha  occ. eigenvalues --  -11.21067 -11.21067  -1.08457  -1.08419  -1.03562
 Alpha  occ. eigenvalues --   -1.03517  -0.95995  -0.95982  -0.87023  -0.86989
 Alpha  occ. eigenvalues --   -0.79649  -0.79565  -0.78293  -0.78210  -0.65155
 Alpha  occ. eigenvalues --   -0.64994  -0.61076  -0.60815  -0.59368  -0.59342
 Alpha  occ. eigenvalues --   -0.57610  -0.57588  -0.55308  -0.55256  -0.52696
 Alpha  occ. eigenvalues --   -0.52676  -0.52426  -0.52402  -0.50030  -0.49869
 Alpha  occ. eigenvalues --   -0.48010  -0.47856  -0.46772  -0.46536  -0.45904
 Alpha  occ. eigenvalues --   -0.45766  -0.45721  -0.45473  -0.43801  -0.43784
 Alpha virt. eigenvalues --    0.20854   0.23100   0.23756   0.24563   0.25599
 Alpha virt. eigenvalues --    0.26515   0.26975   0.27833   0.28027   0.29102
 Alpha virt. eigenvalues --    0.31016   0.31481   0.31683   0.31757   0.32187

 Mulliken charges:
               1
     1  C   -0.297682
     2  C   -0.307948
     3  C   -0.475076
     4  H    0.149832
     5  H    0.149640
     6  H    0.160191
     7  H    0.151104
     8  H    0.155289
     9  H    0.155455
    10  H    0.159796
    11  C   -0.301054
    12  C   -0.299619
    13  C   -0.475804
    14  H    0.151820
    15  H    0.149428
    16  H    0.152126
    17  H    0.152016
    18  H    0.155141
    19  H    0.155549
    20  H    0.160261
    21  C   -0.298326
    22  C   -0.299642
    23  C   -0.475703
    24  H    0.149563
    25  H    0.149514
    26  H    0.151933
    27  H    0.151945
    28  H    0.155158
    29  H    0.155168
    30  H    0.160220
    31  C   -0.298761
    32  C   -0.299565
    33  C   -0.483290
    34  H    0.149438
    35  H    0.150668
    36  H    0.152075
    37  H    0.152136
    38  H    0.161809
    39  H    0.155423
    40  H    0.159772
 Sum of Mulliken charges =  -0.00000

 Dipole moment (field-independent basis, Debye):
    X=              0.0124    Y=             -0.0038    Z=              0.0027  Tot=              0.0133
 Quadrupole moment (field-independent basis, Debye-Ang):
   XX=            -85.3958   YY=            -85.7304   ZZ=            -83.6363
   XY=              0.6648   XZ=             -0.8651   YZ=             -0.1811

 Normal termination of Gaussian 16 at Wed May  5 16:46:48 2021.
