 Gaussian 16, Revision A.03,
 Gaussian 16:  EM64L-G16RevA.03 25-Dec-2016

 -------------
 #p 6-31g* mp2
 -------------

 ------------------------------------------------------
 Input file generated by CHIRIPA (05-May-2021 14:57:26)
 ------------------------------------------------------
 Symbolic Z-matrix:
 Charge =  0 Multiplicity = 1

                         Standard orientation:
 ---------------------------------------------------------------------
 Center     Atomic      Atomic             Coordinates (Angstroms)
 Number     Number       Type             X           Y           Z
 ---------------------------------------------------------------------
      1          6           0        1.351254   -2.236403    0.590181
      2          6           0        1.347163   -1.117544    1.429621
      3          6           0        2.218752   -0.050093    1.194190
      4          6           0        3.085034   -0.135161    0.105334
      5          6           0        3.112936   -1.236298   -0.749072
      6          6           0        2.232574   -2.292111   -0.494574
      7          1           0        0.670775   -3.061105    0.780475
      8          1           0        0.663810   -1.071547    2.272804
      9          1           0        2.236608    0.828099    1.828129
     10          1           0        3.805635   -1.253337   -1.581716
     11          1           0        2.237955   -3.159772   -1.148164
     12          7           0        4.012390    0.988742   -0.153999
     13          8           0        4.765878    0.889470   -1.119938
     14          8           0        3.968204    1.947647    0.613585
     15          6           0       -3.558735   -2.123416   -0.182187
     16          6           0       -4.541040   -1.151920    0.036432
     17          6           0       -4.205339    0.205066    0.057405
     18          6           0       -2.871624    0.556652   -0.144777
     19          6           0       -1.870164   -0.387726   -0.365049
     20          6           0       -2.228776   -1.738896   -0.381878
     21          1           0       -3.828414   -3.175297   -0.196870
     22          1           0       -5.574702   -1.447628    0.191812
     23          1           0       -4.945720    0.977944    0.224484
     24          1           0       -0.848184   -0.062230   -0.516796
     25          1           0       -1.463801   -2.491194   -0.551887
     26          7           0       -2.504104    1.990154   -0.124767
     27          8           0       -1.321984    2.273967   -0.305544
     28          8           0       -3.405121    2.802778    0.071314
 ---------------------------------------------------------------------

 SCF Done:  E(RHF) =  -868.336381766     A.U. after   16 cycles
 E2 =    -0.2602429957D+01 EUMP2 =    -0.87093881172335D+03

 The electronic state is 1-A.
 Alpha  occ. eigenvalues --  -20.61039 -20.61034 -20.60836 -20.60806 -15.86098
 Alpha  occ. eigenvalues --  -15.85886 -11.31569 -11.31547 -11.28178 -11.28154
 Alpha  occ. eigenvalues --  -11.28116 -11.28081 -11.28045 -11.27994 -11.27304
 Alpha  occ. eigenvalues --  -11.27255 -11.27219 -11.27200  -1.60116  -1.59889
 Alpha  occ. eigenvalues --   -1.39664  -1.39434  -1.19809  -1.19751  -1.09180
 Alpha  occ. eigenvalues --   -1.09133  -1.05237  -1.05156  -0.95971  -0.95910
 Alpha  occ. eigenvalues --   -0.86622  -0.86563  -0.82833  -0.82684  -0.77833
 Alpha  occ. eigenvalues --   -0.77675  -0.72308  -0.72104  -0.71450  -0.71210
 Alpha  occ. eigenvalues --   -0.70940  -0.70886  -0.65449  -0.65400  -0.65257
 Alpha  occ. eigenvalues --   -0.65146  -0.62570  -0.62490  -0.55854  -0.55674
 Alpha  occ. eigenvalues --   -0.53675  -0.53419  -0.53264  -0.53212  -0.49078
 Alpha  occ. eigenvalues --   -0.49056  -0.48886  -0.48835  -0.45045  -0.44774
 Alpha  occ. eigenvalues --   -0.37912  -0.37803  -0.37016  -0.36491
 Alpha virt. eigenvalues --    0.04684   0.04789   0.10582   0.11021   0.15978
 Alpha virt. eigenvalues --    0.16257   0.19864   0.21767   0.25808   0.26982
 Alpha virt. eigenvalues --    0.27832   0.28515   0.30226   0.31497   0.32219

 Mulliken charges:
               1
     1  C   -0.180904
     2  C   -0.222588
     3  C   -0.166399
     4  C    0.160443
     5  C   -0.170119
     6  C   -0.220791
     7  H    0.220625
     8  H    0.227861
     9  H    0.282856
    10  H    0.277939
    11  H    0.222984
    12  N    0.488482
    13  O   -0.459973
    14  O   -0.454428
    15  C   -0.170973
    16  C   -0.219060
    17  C   -0.170042
    18  C    0.157256
    19  C   -0.174020
    20  C   -0.223902
    21  H    0.224597
    22  H    0.224549
    23  H    0.277130
    24  H    0.282531
    25  H    0.215694
    26  N    0.487627
    27  O   -0.458201
    28  O   -0.459173
 Sum of Mulliken charges =  -0.00000

 Dipole moment (field-independent basis, Debye):
    X=             -4.3465    Y=             -8.6702    Z=              0.9094  Tot=              9.7413
 Quadrupole moment (field-independent basis, Debye-Ang):
   XX=           -112.1234   YY=           -109.4428   ZZ=           -102.2651
   XY=             -0.1116   XZ=              0.3995   YZ=              2.6792

 Normal termination of Gaussian 16 at Thu May  6 08:21:46 2021.
