 Gaussian 16, Revision A.03,
 Gaussian 16:  EM64L-G16RevA.03 25-Dec-2016

 -------------
 #p 6-31g* mp2
 -------------

 ------------------------------------------------------
 Input file generated by CHIRIPA (05-May-2021 14:51:09)
 ------------------------------------------------------
 Symbolic Z-matrix:
 Charge =  0 Multiplicity = 1

                         Standard orientation:
 ---------------------------------------------------------------------
 Center     Atomic      Atomic             Coordinates (Angstroms)
 Number     Number       Type             X           Y           Z
 ---------------------------------------------------------------------
      1          6           0        3.958567    0.929680   -0.228024
      2          6           0        2.453276    1.119636   -0.038283
      3          6           0        2.006560    2.564276   -0.264671
      4          1           0        4.495499    1.593618    0.463233
      5          1           0        4.235822    1.245356   -1.243344
      6          1           0        2.178722    0.802396    0.975914
      7          1           0        1.919865    0.455029   -0.729938
      8          1           0        2.252112    2.888654   -1.281079
      9          1           0        2.512440    3.237994    0.434465
     10          1           0        0.927098    2.677445   -0.123911
     11          6           0        4.420453   -0.509309   -0.005089
     12          6           0        5.925744   -0.699264   -0.194831
     13          6           0        6.372460   -2.143905    0.031557
     14          1           0        4.143198   -0.824984    1.010230
     15          1           0        3.883521   -1.173246   -0.696346
     16          1           0        6.459155   -0.034657    0.496824
     17          1           0        6.200298   -0.382024   -1.209027
     18          1           0        5.866580   -2.817622   -0.667579
     19          1           0        6.126908   -2.468282    1.047965
     20          1           0        7.451922   -2.257073   -0.109203
     21          6           0       -4.920468   -0.195555    0.337731
     22          6           0       -5.894211   -0.631918   -0.757439
     23          6           0       -7.352689   -0.597363   -0.299790
     24          1           0       -5.047120   -0.847224    1.213076
     25          1           0       -5.179095    0.821056    0.664856
     26          1           0       -5.632968   -1.646874   -1.083372
     27          1           0       -5.765092    0.020745   -1.630350
     28          1           0       -7.636432    0.414675    0.006593
     29          1           0       -7.503557   -1.262420    0.556680
     30          1           0       -8.031553   -0.913009   -1.098144
     31          6           0       -3.458551   -0.224818   -0.104617
     32          6           0       -2.484809    0.211546    0.990553
     33          6           0       -1.026331    0.176991    0.532903
     34          1           0       -3.199924   -1.241427   -0.431742
     35          1           0       -3.331899    0.426853   -0.979962
     36          1           0       -2.613928   -0.441117    1.863464
     37          1           0       -2.746052    1.226503    1.316485
     38          1           0       -0.875462    0.842048   -0.323566
     39          1           0       -0.742588   -0.835047    0.226521
     40          1           0       -0.347467    0.492637    1.331258
 ---------------------------------------------------------------------

 SCF Done:  E(RHF) =  -470.732552313     A.U. after   11 cycles
 E2 =    -0.1583181587D+01 EUMP2 =    -0.47231573389955D+03

 The electronic state is 1-A.
 Alpha  occ. eigenvalues --  -11.21598 -11.21571 -11.21564 -11.21468 -11.21398
 Alpha  occ. eigenvalues --  -11.21341 -11.21339 -11.21275 -11.21069 -11.21044
 Alpha  occ. eigenvalues --  -11.21012 -11.20965  -1.08427  -1.08358  -1.03560
 Alpha  occ. eigenvalues --   -1.03424  -0.96034  -0.95855  -0.86996  -0.86930
 Alpha  occ. eigenvalues --   -0.79690  -0.79434  -0.78263  -0.78133  -0.65056
 Alpha  occ. eigenvalues --   -0.64998  -0.60951  -0.60870  -0.59529  -0.59129
 Alpha  occ. eigenvalues --   -0.57585  -0.57538  -0.55260  -0.55193  -0.52747
 Alpha  occ. eigenvalues --   -0.52534  -0.52403  -0.52297  -0.49885  -0.49860
 Alpha  occ. eigenvalues --   -0.47919  -0.47836  -0.46610  -0.46537  -0.45825
 Alpha  occ. eigenvalues --   -0.45710  -0.45682  -0.45607  -0.43775  -0.43667
 Alpha virt. eigenvalues --    0.21852   0.23050   0.23489   0.25052   0.26298
 Alpha virt. eigenvalues --    0.26565   0.26682   0.27537   0.27784   0.29191
 Alpha virt. eigenvalues --    0.29721   0.31062   0.31293   0.31906   0.32338

 Mulliken charges:
               1
     1  C   -0.298286
     2  C   -0.299216
     3  C   -0.479676
     4  H    0.149075
     5  H    0.149027
     6  H    0.152151
     7  H    0.154495
     8  H    0.154382
     9  H    0.154394
    10  H    0.163585
    11  C   -0.298095
    12  C   -0.299548
    13  C   -0.475647
    14  H    0.149267
    15  H    0.149493
    16  H    0.151831
    17  H    0.151840
    18  H    0.155076
    19  H    0.155070
    20  H    0.160112
    21  C   -0.298200
    22  C   -0.299608
    23  C   -0.475693
    24  H    0.149638
    25  H    0.149498
    26  H    0.151884
    27  H    0.151901
    28  H    0.155183
    29  H    0.155169
    30  H    0.160230
    31  C   -0.298569
    32  C   -0.301136
    33  C   -0.476780
    34  H    0.149417
    35  H    0.149519
    36  H    0.151683
    37  H    0.151533
    38  H    0.156885
    39  H    0.154927
    40  H    0.163191
 Sum of Mulliken charges =  -0.00000

 Dipole moment (field-independent basis, Debye):
    X=             -0.0194    Y=             -0.0126    Z=              0.0022  Tot=              0.0233
 Quadrupole moment (field-independent basis, Debye-Ang):
   XX=            -86.5130   YY=            -84.8765   ZZ=            -83.7471
   XY=              0.3488   XZ=              0.3375   YZ=              0.0341

 Normal termination of Gaussian 16 at Wed May  5 16:37:41 2021.
