 Gaussian 16, Revision A.03,
 Gaussian 16:  EM64L-G16RevA.03 25-Dec-2016

 -------------
 #p 6-31g* mp2
 -------------

 ------------------------------------------------------
 Input file generated by CHIRIPA (05-May-2021 14:57:27)
 ------------------------------------------------------
 Symbolic Z-matrix:
 Charge =  0 Multiplicity = 1

                         Standard orientation:
 ---------------------------------------------------------------------
 Center     Atomic      Atomic             Coordinates (Angstroms)
 Number     Number       Type             X           Y           Z
 ---------------------------------------------------------------------
      1          6           0       -2.008028    2.398987   -0.605334
      2          6           0       -1.162517    1.485777    0.033164
      3          6           0       -1.613926    0.200700    0.348370
      4          6           0       -2.922602   -0.139193    0.009064
      5          6           0       -3.789031    0.748266   -0.627338
      6          6           0       -3.316280    2.027971   -0.932970
      7          1           0       -1.649073    3.395179   -0.846475
      8          1           0       -0.146027    1.771160    0.288801
      9          1           0       -0.980558   -0.526036    0.842453
     10          1           0       -4.797219    0.434780   -0.869622
     11          1           0       -3.975137    2.735110   -1.428859
     12          7           0       -3.411786   -1.496803    0.337690
     13          8           0       -4.569037   -1.771764    0.028169
     14          8           0       -2.628694   -2.260231    0.898567
     15          6           0        2.498492    2.195061    1.070417
     16          6           0        2.301643    1.044199    1.840670
     17          6           0        2.489069   -0.224040    1.283007
     18          6           0        2.875187   -0.304942   -0.054026
     19          6           0        3.079150    0.823048   -0.847328
     20          6           0        2.885934    2.081013   -0.268762
     21          1           0        2.350646    3.176270    1.511742
     22          1           0        2.000742    1.129743    2.880951
     23          1           0        2.343593   -1.131447    1.856475
     24          1           0        3.379007    0.705879   -1.881627
     25          1           0        3.039534    2.973063   -0.869344
     26          7           0        3.076671   -1.642132   -0.655464
     27          8           0        3.416920   -1.686480   -1.835676
     28          8           0        2.890528   -2.620554    0.064730
 ---------------------------------------------------------------------

 SCF Done:  E(RHF) =  -868.336683249     A.U. after   16 cycles
 E2 =    -0.2602803478D+01 EUMP2 =    -0.87093948672748D+03

 The electronic state is 1-A.
 Alpha  occ. eigenvalues --  -20.61319 -20.61297 -20.60685 -20.60674 -15.86376
 Alpha  occ. eigenvalues --  -15.85734 -11.32122 -11.31169 -11.28688 -11.28683
 Alpha  occ. eigenvalues --  -11.28502 -11.27809 -11.27792 -11.27734 -11.27699
 Alpha  occ. eigenvalues --  -11.27512 -11.26799 -11.26612  -1.60379  -1.59755
 Alpha  occ. eigenvalues --   -1.39921  -1.39307  -1.20346  -1.19335  -1.09676
 Alpha  occ. eigenvalues --   -1.08730  -1.05761  -1.04736  -0.96425  -0.95558
 Alpha  occ. eigenvalues --   -0.87126  -0.86146  -0.83225  -0.82380  -0.78202
 Alpha  occ. eigenvalues --   -0.77418  -0.72580  -0.71951  -0.71711  -0.71392
 Alpha  occ. eigenvalues --   -0.71079  -0.70485  -0.65951  -0.65713  -0.64986
 Alpha  occ. eigenvalues --   -0.64785  -0.63050  -0.62146  -0.56240  -0.55356
 Alpha  occ. eigenvalues --   -0.54175  -0.53803  -0.53082  -0.52624  -0.49371
 Alpha  occ. eigenvalues --   -0.49316  -0.48713  -0.48705  -0.45241  -0.44696
 Alpha  occ. eigenvalues --   -0.38348  -0.37468  -0.37297  -0.36321
 Alpha virt. eigenvalues --    0.04268   0.05104   0.10192   0.11303   0.15656
 Alpha virt. eigenvalues --    0.16587   0.20417   0.21640   0.26302   0.27247
 Alpha virt. eigenvalues --    0.27576   0.28328   0.30194   0.31305   0.31755

 Mulliken charges:
               1
     1  C   -0.175206
     2  C   -0.226193
     3  C   -0.176807
     4  C    0.160271
     5  C   -0.171613
     6  C   -0.217876
     7  H    0.220931
     8  H    0.235099
     9  H    0.273802
    10  H    0.275679
    11  H    0.222474
    12  N    0.487969
    13  O   -0.460566
    14  O   -0.458637
    15  C   -0.188362
    16  C   -0.221029
    17  C   -0.176394
    18  C    0.161110
    19  C   -0.169182
    20  C   -0.218735
    21  H    0.228437
    22  H    0.229656
    23  H    0.282905
    24  H    0.279738
    25  H    0.226076
    26  N    0.487980
    27  O   -0.457549
    28  O   -0.453978
 Sum of Mulliken charges =  -0.00000

 Dipole moment (field-independent basis, Debye):
    X=              1.3537    Y=              9.2565    Z=              0.9493  Tot=              9.4030
 Quadrupole moment (field-independent basis, Debye-Ang):
   XX=           -114.9372   YY=           -109.0260   ZZ=           -101.0955
   XY=             -1.0261   XZ=             10.4262   YZ=             -3.3806

 Normal termination of Gaussian 16 at Wed May  5 19:38:55 2021.
