 Gaussian 16, Revision A.03,
 Gaussian 16:  EM64L-G16RevA.03 25-Dec-2016

 -------------
 #p 6-31g* mp2
 -------------

 ------------------------------------------------------
 Input file generated by CHIRIPA (05-May-2021 14:53:14)
 ------------------------------------------------------
 Symbolic Z-matrix:
 Charge =  0 Multiplicity = 1

                         Standard orientation:
 ---------------------------------------------------------------------
 Center     Atomic      Atomic             Coordinates (Angstroms)
 Number     Number       Type             X           Y           Z
 ---------------------------------------------------------------------
      1          6           0        4.484582   -0.029905   -0.349858
      2          6           0        5.042518    1.216444    0.338115
      3          6           0        6.409503    1.630797   -0.207283
      4          1           0        5.196099   -0.857993   -0.227547
      5          1           0        4.407646    0.159196   -1.429541
      6          1           0        5.117080    1.025531    1.416358
      7          1           0        4.329503    2.041610    0.214316
      8          1           0        6.347125    1.848148   -1.278483
      9          1           0        7.139177    0.826296   -0.069611
     10          1           0        6.789657    2.523831    0.298517
     11          6           0        3.118523   -0.456576    0.184521
     12          6           0        2.560587   -1.702925   -0.503451
     13          6           0        1.193603   -2.117278    0.041946
     14          1           0        3.195460   -0.645677    1.264205
     15          1           0        2.407007    0.371512    0.062210
     16          1           0        3.273603   -2.528091   -0.379653
     17          1           0        2.486025   -1.512012   -1.581695
     18          1           0        0.463928   -1.312776   -0.095726
     19          1           0        1.255981   -2.334629    1.113146
     20          1           0        0.813448   -3.010312   -0.463853
     21          6           0       -2.434705   -2.265420    0.288591
     22          6           0       -3.045629   -1.785427   -0.874551
     23          6           0       -3.346789   -0.426891   -1.009580
     24          6           0       -3.021710    0.427416    0.042929
     25          6           0       -2.412780   -0.020415    1.214228
     26          6           0       -2.120784   -1.382938    1.327437
     27          1           0       -2.204316   -3.322312    0.385009
     28          1           0       -3.290563   -2.468468   -1.682950
     29          1           0       -3.819525   -0.028473   -1.899075
     30          1           0       -2.180618    0.684771    2.003043
     31          1           0       -1.646310   -1.752897    2.231898
     32          7           0       -3.335684    1.867747   -0.088470
     33          8           0       -3.039158    2.599879    0.853173
     34          8           0       -3.872358    2.237274   -1.130616
 ---------------------------------------------------------------------

 SCF Done:  E(RHF) =  -669.534615830     A.U. after   15 cycles
 E2 =    -0.2092438770D+01 EUMP2 =    -0.67162705460011D+03

 The electronic state is 1-A.
 Alpha  occ. eigenvalues --  -20.60774 -20.60769 -15.85828 -11.31192 -11.27755
 Alpha  occ. eigenvalues --  -11.27736 -11.27460 -11.26758 -11.26726 -11.21919
 Alpha  occ. eigenvalues --  -11.21690 -11.21628 -11.21524 -11.21509 -11.21128
 Alpha  occ. eigenvalues --   -1.59850  -1.39404  -1.19364  -1.08761  -1.08635
 Alpha  occ. eigenvalues --   -1.04763  -1.03758  -0.96231  -0.95582  -0.87258
 Alpha  occ. eigenvalues --   -0.86147  -0.82417  -0.79836  -0.78444  -0.77468
 Alpha  occ. eigenvalues --   -0.72044  -0.71176  -0.70454  -0.65270  -0.65005
 Alpha  occ. eigenvalues --   -0.64756  -0.62106  -0.61159  -0.59610  -0.57843
 Alpha  occ. eigenvalues --   -0.55555  -0.55248  -0.53422  -0.52870  -0.52833
 Alpha  occ. eigenvalues --   -0.52425  -0.50121  -0.48804  -0.48800  -0.48136
 Alpha  occ. eigenvalues --   -0.46841  -0.45990  -0.45899  -0.44810  -0.44025
 Alpha  occ. eigenvalues --   -0.37258  -0.36335
 Alpha virt. eigenvalues --    0.05048   0.11260   0.16532   0.21007   0.22708
 Alpha virt. eigenvalues --    0.24127   0.26215   0.26831   0.27208   0.27700
 Alpha virt. eigenvalues --    0.28651   0.30016   0.31349   0.31802   0.32309

 Mulliken charges:
               1
     1  C   -0.298413
     2  C   -0.300165
     3  C   -0.475881
     4  H    0.149184
     5  H    0.150456
     6  H    0.151403
     7  H    0.154128
     8  H    0.155791
     9  H    0.154633
    10  H    0.161218
    11  C   -0.298905
    12  C   -0.299946
    13  C   -0.478002
    14  H    0.147850
    15  H    0.152116
    16  H    0.151068
    17  H    0.153192
    18  H    0.166051
    19  H    0.147591
    20  H    0.152828
    21  C   -0.166402
    22  C   -0.219162
    23  C   -0.171542
    24  C    0.158101
    25  C   -0.172902
    26  C   -0.216143
    27  H    0.226134
    28  H    0.223362
    29  H    0.275500
    30  H    0.275623
    31  H    0.224150
    32  N    0.488076
    33  O   -0.460460
    34  O   -0.460530
 Sum of Mulliken charges =  -0.00000

 Dipole moment (field-independent basis, Debye):
    X=              1.1038    Y=             -5.0348    Z=              0.4487  Tot=              5.1739
 Quadrupole moment (field-independent basis, Debye-Ang):
   XX=           -102.2108   YY=            -99.6408   ZZ=            -90.3371
   XY=             15.9612   XZ=              1.1742   YZ=              0.5546

 Normal termination of Gaussian 16 at Thu May  6 05:50:54 2021.
