 Gaussian 16, Revision A.03,
 Gaussian 16:  EM64L-G16RevA.03 25-Dec-2016

 -------------
 #p 6-31g* mp2
 -------------

 ------------------------------------------------------
 Input file generated by CHIRIPA (05-May-2021 14:57:25)
 ------------------------------------------------------
 Symbolic Z-matrix:
 Charge =  0 Multiplicity = 1

                         Standard orientation:
 ---------------------------------------------------------------------
 Center     Atomic      Atomic             Coordinates (Angstroms)
 Number     Number       Type             X           Y           Z
 ---------------------------------------------------------------------
      1          6           0       -2.062770    1.842724    1.237220
      2          6           0       -3.283432    2.074139    0.594605
      3          6           0       -3.968385    1.025949   -0.027235
      4          6           0       -3.401168   -0.246819    0.012968
      5          6           0       -2.186761   -0.509176    0.645166
      6          6           0       -1.519289    0.554077    1.260408
      7          1           0       -1.537472    2.662833    1.717717
      8          1           0       -3.707887    3.073889    0.575016
      9          1           0       -4.914940    1.177051   -0.531833
     10          1           0       -1.788722   -1.516635    0.648029
     11          1           0       -0.571471    0.371416    1.758726
     12          7           0       -4.117044   -1.364464   -0.641853
     13          8           0       -3.596153   -2.476606   -0.592365
     14          8           0       -5.185484   -1.107169   -1.192192
     15          6           0        4.202489   -2.130792    0.721581
     16          6           0        4.640983   -1.611337   -0.500879
     17          6           0        4.138482   -0.396884   -0.977478
     18          6           0        3.194309    0.274668   -0.202338
     19          6           0        2.737645   -0.216954    1.019569
     20          6           0        3.253891   -1.433172    1.476572
     21          1           0        4.598182   -3.074893    1.084203
     22          1           0        5.377590   -2.150943   -1.089335
     23          1           0        4.460498    0.028135   -1.920390
     24          1           0        2.002447    0.343857    1.583831
     25          1           0        2.911521   -1.834190    2.426315
     26          7           0        2.655058    1.561289   -0.696519
     27          8           0        1.824010    2.133590    0.005241
     28          8           0        3.073653    1.973080   -1.776262
 ---------------------------------------------------------------------

 SCF Done:  E(RHF) =  -868.338031972     A.U. after   16 cycles
 E2 =    -0.2599736056D+01 EUMP2 =    -0.87093776802847D+03

 The electronic state is 1-A.
 Alpha  occ. eigenvalues --  -20.61464 -20.61429 -20.60492 -20.60481 -15.86496
 Alpha  occ. eigenvalues --  -15.85542 -11.31828 -11.30787 -11.28483 -11.28315
 Alpha  occ. eigenvalues --  -11.28051 -11.27411 -11.27404 -11.27345 -11.27315
 Alpha  occ. eigenvalues --  -11.27000 -11.26393 -11.26281  -1.60510  -1.59568
 Alpha  occ. eigenvalues --   -1.40071  -1.39125  -1.19976  -1.18949  -1.09363
 Alpha  occ. eigenvalues --   -1.08340  -1.05386  -1.04360  -0.96218  -0.95199
 Alpha  occ. eigenvalues --   -0.86780  -0.85750  -0.83061  -0.82060  -0.78135
 Alpha  occ. eigenvalues --   -0.77142  -0.72726  -0.71821  -0.71763  -0.71086
 Alpha  occ. eigenvalues --   -0.70889  -0.70007  -0.65632  -0.65403  -0.64603
 Alpha  occ. eigenvalues --   -0.64386  -0.62759  -0.61715  -0.55849  -0.54783
 Alpha  occ. eigenvalues --   -0.53693  -0.53493  -0.52653  -0.52447  -0.49492
 Alpha  occ. eigenvalues --   -0.49455  -0.48525  -0.48510  -0.45481  -0.44560
 Alpha  occ. eigenvalues --   -0.37917  -0.36985  -0.36846  -0.35956
 Alpha virt. eigenvalues --    0.04404   0.05426   0.10626   0.11706   0.15945
 Alpha virt. eigenvalues --    0.16957   0.19374   0.22099   0.25145   0.27257
 Alpha virt. eigenvalues --    0.28644   0.29100   0.30355   0.31112   0.32413

 Mulliken charges:
               1
     1  C   -0.164147
     2  C   -0.219041
     3  C   -0.170580
     4  C    0.158159
     5  C   -0.173260
     6  C   -0.212449
     7  H    0.231637
     8  H    0.223902
     9  H    0.274632
    10  H    0.271260
    11  H    0.214932
    12  N    0.488367
    13  O   -0.463399
    14  O   -0.460919
    15  C   -0.169834
    16  C   -0.217463
    17  C   -0.169651
    18  C    0.160401
    19  C   -0.175418
    20  C   -0.218795
    21  H    0.228643
    22  H    0.226619
    23  H    0.277858
    24  H    0.269283
    25  H    0.223552
    26  N    0.489046
    27  O   -0.467568
    28  O   -0.455766
 Sum of Mulliken charges =  -0.00000

 Dipole moment (field-independent basis, Debye):
    X=              4.6835    Y=             -0.5004    Z=              3.9223  Tot=              6.1294
 Quadrupole moment (field-independent basis, Debye-Ang):
   XX=           -105.6610   YY=           -107.9279   ZZ=           -102.7651
   XY=            -31.9898   XZ=             -4.5574   YZ=              0.2341

 Normal termination of Gaussian 16 at Thu May  6 05:06:30 2021.
