 Gaussian 16, Revision A.03,
 Gaussian 16:  EM64L-G16RevA.03 25-Dec-2016

 -------------
 #p 6-31g* mp2
 -------------

 ------------------------------------------------------
 Input file generated by CHIRIPA (05-May-2021 14:57:23)
 ------------------------------------------------------
 Symbolic Z-matrix:
 Charge =  0 Multiplicity = 1

                         Standard orientation:
 ---------------------------------------------------------------------
 Center     Atomic      Atomic             Coordinates (Angstroms)
 Number     Number       Type             X           Y           Z
 ---------------------------------------------------------------------
      1          6           0        2.609723    2.672955    0.185163
      2          6           0        1.537033    1.776468    0.138617
      3          6           0        1.761010    0.411052   -0.061436
      4          6           0        3.076385   -0.025358   -0.211850
      5          6           0        4.166103    0.843018   -0.170286
      6          6           0        3.918527    2.204196    0.030835
      7          1           0        2.426566    3.731997    0.340984
      8          1           0        0.519546    2.137680    0.258161
      9          1           0        0.949072   -0.304876   -0.101715
     10          1           0        5.169293    0.453096   -0.292715
     11          1           0        4.753532    2.898124    0.066538
     12          7           0        3.325991   -1.468620   -0.424202
     13          8           0        4.494202   -1.827898   -0.553964
     14          8           0        2.348694   -2.213241   -0.456862
     15          6           0       -1.251485   -1.610383    1.285932
     16          6           0       -1.313999   -0.234240    1.528506
     17          6           0       -2.298071    0.550095    0.919434
     18          6           0       -3.207695   -0.077367    0.069629
     19          6           0       -3.171381   -1.446130   -0.192023
     20          6           0       -2.178740   -2.210877    0.427954
     21          1           0       -0.483706   -2.212066    1.763310
     22          1           0       -0.595196    0.234809    2.194358
     23          1           0       -2.369384    1.617510    1.089604
     24          1           0       -3.901781   -1.885268   -0.860671
     25          1           0       -2.132592   -3.279393    0.237722
     26          7           0       -4.254023    0.742605   -0.580940
     27          8           0       -5.043699    0.165805   -1.325487
     28          8           0       -4.264647    1.946573   -0.333992
 ---------------------------------------------------------------------

 SCF Done:  E(RHF) =  -868.337803280     A.U. after   15 cycles
 E2 =    -0.2602636611D+01 EUMP2 =    -0.87094043989138D+03

 The electronic state is 1-A.
 Alpha  occ. eigenvalues --  -20.61373 -20.61330 -20.61188 -20.61167 -15.86399
 Alpha  occ. eigenvalues --  -15.86237 -11.31668 -11.31619 -11.28326 -11.28202
 Alpha  occ. eigenvalues --  -11.28150 -11.28076 -11.27928 -11.27823 -11.27269
 Alpha  occ. eigenvalues --  -11.27180 -11.27169 -11.27103  -1.60426  -1.60255
 Alpha  occ. eigenvalues --   -1.39985  -1.39807  -1.19866  -1.19784  -1.09225
 Alpha  occ. eigenvalues --   -1.09196  -1.05344  -1.05103  -0.96094  -0.95995
 Alpha  occ. eigenvalues --   -0.86678  -0.86537  -0.82985  -0.82778  -0.78076
 Alpha  occ. eigenvalues --   -0.77825  -0.72627  -0.72449  -0.71749  -0.71582
 Alpha  occ. eigenvalues --   -0.70931  -0.70812  -0.65519  -0.65482  -0.65206
 Alpha  occ. eigenvalues --   -0.65125  -0.62778  -0.62362  -0.55720  -0.55602
 Alpha  occ. eigenvalues --   -0.53685  -0.53554  -0.53242  -0.53120  -0.49383
 Alpha  occ. eigenvalues --   -0.49361  -0.49212  -0.49200  -0.45421  -0.45200
 Alpha  occ. eigenvalues --   -0.37814  -0.37761  -0.37016  -0.36600
 Alpha virt. eigenvalues --    0.04483   0.04591   0.10581   0.10999   0.15776
 Alpha virt. eigenvalues --    0.16180   0.20198   0.21862   0.25566   0.27609
 Alpha virt. eigenvalues --    0.28277   0.28433   0.30821   0.31041   0.31961

 Mulliken charges:
               1
     1  C   -0.169803
     2  C   -0.226615
     3  C   -0.180718
     4  C    0.156592
     5  C   -0.169834
     6  C   -0.219149
     7  H    0.228061
     8  H    0.222598
     9  H    0.286182
    10  H    0.276377
    11  H    0.225183
    12  N    0.488436
    13  O   -0.457667
    14  O   -0.466918
    15  C   -0.173450
    16  C   -0.232988
    17  C   -0.177121
    18  C    0.159669
    19  C   -0.170359
    20  C   -0.215309
    21  H    0.239559
    22  H    0.226698
    23  H    0.271766
    24  H    0.278485
    25  H    0.231644
    26  N    0.488225
    27  O   -0.457270
    28  O   -0.462274
 Sum of Mulliken charges =  -0.00000

 Dipole moment (field-independent basis, Debye):
    X=              2.7250    Y=              1.9449    Z=              3.0046  Tot=              4.4985
 Quadrupole moment (field-independent basis, Debye-Ang):
   XX=           -128.3749   YY=           -101.2556   ZZ=           -105.1668
   XY=             28.2895   XZ=             -3.9178   YZ=              0.3465

 Normal termination of Gaussian 16 at Thu May  6 22:46:22 2021.
