 Gaussian 16, Revision A.03,
 Gaussian 16:  EM64L-G16RevA.03 25-Dec-2016

 -------------
 #p 6-31g* mp2
 -------------

 ------------------------------------------------------
 Input file generated by CHIRIPA (05-May-2021 14:55:22)
 ------------------------------------------------------
 Symbolic Z-matrix:
 Charge =  0 Multiplicity = 1

                         Standard orientation:
 ---------------------------------------------------------------------
 Center     Atomic      Atomic             Coordinates (Angstroms)
 Number     Number       Type             X           Y           Z
 ---------------------------------------------------------------------
      1          6           0        2.447805   -0.713430   -2.333781
      2          6           0        2.535646   -1.765120   -1.415765
      3          6           0        2.322678   -1.537583   -0.052893
      4          6           0        2.022454   -0.240101    0.359048
      5          6           0        1.927911    0.828500   -0.531145
      6          6           0        2.144752    0.577747   -1.889324
      7          1           0        2.614748   -0.899203   -3.390670
      8          1           0        2.770842   -2.768887   -1.758080
      9          1           0        2.384483   -2.333435    0.679376
     10          1           0        1.691785    1.818336   -0.159812
     11          1           0        2.075884    1.396426   -2.600006
     12          7           0        1.794945    0.013070    1.799376
     13          8           0        1.531858    1.165246    2.136887
     14          8           0        1.884017   -0.945463    2.563520
     15          6           0       -1.991757    0.769859   -0.163049
     16          6           0       -2.227048    2.269611   -0.345719
     17          6           0       -0.927252    3.074699   -0.358290
     18          1           0       -1.445988    0.602441    0.775594
     19          1           0       -1.342147    0.406568   -0.971395
     20          1           0       -2.877147    2.629691    0.461949
     21          1           0       -2.772488    2.433462   -1.283943
     22          1           0       -0.276778    2.743406   -1.174212
     23          1           0       -0.382032    2.940751    0.581601
     24          1           0       -1.118724    4.144211   -0.489975
     25          6           0       -3.281717   -0.048381   -0.148412
     26          6           0       -3.046426   -1.548133    0.034258
     27          6           0       -4.346221   -2.353222    0.046828
     28          1           0       -3.931327    0.314909    0.659934
     29          1           0       -3.827485    0.119035   -1.087056
     30          1           0       -2.500986   -1.711984    0.972482
     31          1           0       -2.396326   -1.908214   -0.773411
     32          1           0       -4.891441   -2.219273   -0.893062
     33          1           0       -4.996696   -2.021929    0.862750
     34          1           0       -4.154749   -3.422735    0.178514
 ---------------------------------------------------------------------

 SCF Done:  E(RHF) =  -669.534964635     A.U. after   15 cycles
 E2 =    -0.2094459930D+01 EUMP2 =    -0.67162942456527D+03

 The electronic state is 1-A.
 Alpha  occ. eigenvalues --  -20.60888 -20.60879 -15.85909 -11.31149 -11.27765
 Alpha  occ. eigenvalues --  -11.27666 -11.27513 -11.26747 -11.26736 -11.21556
 Alpha  occ. eigenvalues --  -11.21476 -11.21261 -11.21191 -11.21116 -11.20974
 Alpha  occ. eigenvalues --   -1.59942  -1.39501  -1.19353  -1.08771  -1.08325
 Alpha  occ. eigenvalues --   -1.04755  -1.03467  -0.95950  -0.95608  -0.86977
 Alpha  occ. eigenvalues --   -0.86145  -0.82461  -0.79571  -0.78173  -0.77475
 Alpha  occ. eigenvalues --   -0.72137  -0.71248  -0.70481  -0.65057  -0.64904
 Alpha  occ. eigenvalues --   -0.64767  -0.62158  -0.60855  -0.59281  -0.57537
 Alpha  occ. eigenvalues --   -0.55283  -0.55202  -0.53109  -0.52971  -0.52621
 Alpha  occ. eigenvalues --   -0.52217  -0.49892  -0.48892  -0.48882  -0.47831
 Alpha  occ. eigenvalues --   -0.46554  -0.45719  -0.45601  -0.44812  -0.43702
 Alpha  occ. eigenvalues --   -0.37330  -0.36284
 Alpha virt. eigenvalues --    0.04980   0.11276   0.16383   0.21060   0.23045
 Alpha virt. eigenvalues --    0.24449   0.26106   0.26535   0.27514   0.27958
 Alpha virt. eigenvalues --    0.29285   0.30016   0.31635   0.31899   0.32331

 Mulliken charges:
               1
     1  C   -0.170211
     2  C   -0.219469
     3  C   -0.170048
     4  C    0.156139
     5  C   -0.165986
     6  C   -0.223393
     7  H    0.225549
     8  H    0.223269
     9  H    0.275360
    10  H    0.282598
    11  H    0.223604
    12  N    0.489145
    13  O   -0.462718
    14  O   -0.459374
    15  C   -0.304984
    16  C   -0.296948
    17  C   -0.490685
    18  H    0.156964
    19  H    0.147888
    20  H    0.155668
    21  H    0.149257
    22  H    0.141574
    23  H    0.176279
    24  H    0.160880
    25  C   -0.297951
    26  C   -0.300562
    27  C   -0.475533
    28  H    0.151532
    29  H    0.147304
    30  H    0.156330
    31  H    0.148724
    32  H    0.153577
    33  H    0.156644
    34  H    0.159578
 Sum of Mulliken charges =  -0.00000

 Dipole moment (field-independent basis, Debye):
    X=              0.8228    Y=             -0.8987    Z=             -4.9012  Tot=              5.0504
 Quadrupole moment (field-independent basis, Debye-Ang):
   XX=            -92.9399   YY=            -90.3068   ZZ=            -97.8946
   XY=             -3.6350   XZ=            -10.2285   YZ=              0.2423

 Normal termination of Gaussian 16 at Thu May  6 04:41:10 2021.
