 Gaussian 16, Revision A.03,
 Gaussian 16:  EM64L-G16RevA.03 25-Dec-2016

 -------------
 #p 6-31g* mp2
 -------------

 ------------------------------------------------------
 Input file generated by CHIRIPA (05-May-2021 14:53:17)
 ------------------------------------------------------
 Symbolic Z-matrix:
 Charge =  0 Multiplicity = 1

                         Standard orientation:
 ---------------------------------------------------------------------
 Center     Atomic      Atomic             Coordinates (Angstroms)
 Number     Number       Type             X           Y           Z
 ---------------------------------------------------------------------
      1          6           0       -3.703811    0.020135   -0.013904
      2          6           0       -3.979879   -0.899766    1.175867
      3          6           0       -5.046608   -1.952729    0.873950
      4          1           0       -4.638005    0.516859   -0.309695
      5          1           0       -3.387509   -0.587789   -0.872844
      6          1           0       -4.294234   -0.290164    2.032711
      7          1           0       -3.044881   -1.394213    1.468981
      8          1           0       -4.737120   -2.585302    0.035697
      9          1           0       -5.993573   -1.474980    0.602629
     10          1           0       -5.228228   -2.599450    1.738025
     11          6           0       -2.639668    1.078117    0.272452
     12          6           0       -2.363600    1.998017   -0.917318
     13          6           0       -1.296871    3.050980   -0.615402
     14          1           0       -2.955970    1.686040    1.131392
     15          1           0       -1.705474    0.581392    0.568243
     16          1           0       -3.298598    2.492464   -1.210433
     17          1           0       -2.049245    1.388415   -1.774163
     18          1           0       -0.349906    2.573232   -0.344081
     19          1           0       -1.606358    3.683554    0.222852
     20          1           0       -1.115251    3.697701   -1.479477
     21          6           0        3.769200    1.270786    1.244082
     22          6           0        4.017392   -0.094701    1.418348
     23          6           0        3.307924   -1.045387    0.678485
     24          6           0        2.353086   -0.593334   -0.231032
     25          6           0        2.083018    0.760126   -0.427250
     26          6           0        2.804507    1.693096    0.323463
     27          1           0        4.325001    2.002421    1.823040
     28          1           0        4.766004   -0.425567    2.132599
     29          1           0        3.479959   -2.108685    0.793461
     30          1           0        1.330617    1.059451   -1.146772
     31          1           0        2.609650    2.752903    0.186037
     32          7           0        1.595640   -1.590405   -1.020035
     33          8           0        0.759619   -1.166397   -1.814970
     34          8           0        1.852318   -2.777038   -0.828580
 ---------------------------------------------------------------------

 SCF Done:  E(RHF) =  -669.535690432     A.U. after   15 cycles
 E2 =    -0.2092064979D+01 EUMP2 =    -0.67162775541105D+03

 The electronic state is 1-A.
 Alpha  occ. eigenvalues --  -20.60869 -20.60862 -15.85915 -11.31250 -11.27819
 Alpha  occ. eigenvalues --  -11.27790 -11.27549 -11.26830 -11.26811 -11.21499
 Alpha  occ. eigenvalues --  -11.21394 -11.21209 -11.21156 -11.20953 -11.20651
 Alpha  occ. eigenvalues --   -1.59939  -1.39493  -1.19423  -1.08821  -1.08165
 Alpha  occ. eigenvalues --   -1.04824  -1.03350  -0.95834  -0.95656  -0.86853
 Alpha  occ. eigenvalues --   -0.86216  -0.82494  -0.79417  -0.77949  -0.77544
 Alpha  occ. eigenvalues --   -0.72135  -0.71260  -0.70538  -0.65078  -0.64893
 Alpha  occ. eigenvalues --   -0.64717  -0.62228  -0.60702  -0.59207  -0.57417
 Alpha  occ. eigenvalues --   -0.55376  -0.55075  -0.53152  -0.52903  -0.52545
 Alpha  occ. eigenvalues --   -0.52245  -0.49768  -0.48889  -0.48883  -0.47733
 Alpha  occ. eigenvalues --   -0.46417  -0.45518  -0.45374  -0.44895  -0.43573
 Alpha  occ. eigenvalues --   -0.37399  -0.36401
 Alpha virt. eigenvalues --    0.04938   0.11185   0.16389   0.20449   0.23045
 Alpha virt. eigenvalues --    0.24248   0.26284   0.27089   0.27846   0.28103
 Alpha virt. eigenvalues --    0.29294   0.30442   0.31608   0.31758   0.32413

 Mulliken charges:
               1
     1  C   -0.300348
     2  C   -0.299558
     3  C   -0.476132
     4  H    0.147504
     5  H    0.159091
     6  H    0.148818
     7  H    0.153804
     8  H    0.159106
     9  H    0.153527
    10  H    0.159019
    11  C   -0.296975
    12  C   -0.302418
    13  C   -0.480360
    14  H    0.146254
    15  H    0.150147
    16  H    0.152374
    17  H    0.162558
    18  H    0.145426
    19  H    0.156072
    20  H    0.159747
    21  C   -0.170722
    22  C   -0.218410
    23  C   -0.170956
    24  C    0.157823
    25  C   -0.173900
    26  C   -0.219243
    27  H    0.226072
    28  H    0.223779
    29  H    0.275709
    30  H    0.279815
    31  H    0.225554
    32  N    0.488135
    33  O   -0.461526
    34  O   -0.459787
 Sum of Mulliken charges =  -0.00000

 Dipole moment (field-independent basis, Debye):
    X=              2.6780    Y=              3.3957    Z=              2.7175  Tot=              5.1076
 Quadrupole moment (field-independent basis, Debye-Ang):
   XX=            -81.3313   YY=            -97.0049   ZZ=            -95.5626
   XY=              3.7620   XZ=              7.5083   YZ=             -4.1722

 Normal termination of Gaussian 16 at Thu May  6 12:19:00 2021.
