 Gaussian 16, Revision A.03,
 Gaussian 16:  EM64L-G16RevA.03 25-Dec-2016

 -------------
 #p 6-31g* mp2
 -------------

 ------------------------------------------------------
 Input file generated by CHIRIPA (05-May-2021 14:53:16)
 ------------------------------------------------------
 Symbolic Z-matrix:
 Charge =  0 Multiplicity = 1

                         Standard orientation:
 ---------------------------------------------------------------------
 Center     Atomic      Atomic             Coordinates (Angstroms)
 Number     Number       Type             X           Y           Z
 ---------------------------------------------------------------------
      1          6           0       -3.888532    0.826360   -0.382298
      2          6           0       -2.525294    1.514554   -0.459485
      3          6           0       -2.623393    2.971458   -0.912916
      4          1           0       -4.372244    0.873447   -1.367564
      5          1           0       -4.534371    1.384100    0.309955
      6          1           0       -1.881761    0.954894   -1.150327
      7          1           0       -2.044689    1.465655    0.526032
      8          1           0       -3.243439    3.549605   -0.220175
      9          1           0       -3.079586    3.035942   -1.906058
     10          1           0       -1.637452    3.444171   -0.961120
     11          6           0       -3.806911   -0.630652    0.069565
     12          6           0       -5.170149   -1.318846    0.146753
     13          6           0       -5.072050   -2.775750    0.600184
     14          1           0       -3.161072   -1.188392   -0.622688
     15          1           0       -3.323199   -0.677739    1.054832
     16          1           0       -5.650754   -1.269947   -0.838764
     17          1           0       -5.813681   -0.759185    0.837594
     18          1           0       -4.615857   -2.840234    1.593326
     19          1           0       -4.452004   -3.353897   -0.092557
     20          1           0       -6.057991   -3.248462    0.648388
     21          6           0        1.084435    1.389077    0.847159
     22          6           0        0.832912    0.146348    0.256497
     23          6           0        1.889866   -0.673963   -0.149074
     24          6           0        3.191805   -0.218130    0.052071
     25          6           0        3.474713    1.014878    0.637685
     26          6           0        2.402210    1.818618    1.035536
     27          1           0        0.257329    2.019878    1.159217
     28          1           0       -0.189472   -0.189817    0.108956
     29          1           0        1.723654   -1.640589   -0.608883
     30          1           0        4.504588    1.322823    0.771644
     31          1           0        2.600533    2.783262    1.493986
     32          7           0        4.318985   -1.077786   -0.373202
     33          8           0        5.456952   -0.653265   -0.184919
     34          8           0        4.043159   -2.159826   -0.886762
 ---------------------------------------------------------------------

 SCF Done:  E(RHF) =  -669.534510316     A.U. after   15 cycles
 E2 =    -0.2092835312D+01 EUMP2 =    -0.67162734562846D+03

 The electronic state is 1-A.
 Alpha  occ. eigenvalues --  -20.60687 -20.60682 -15.85737 -11.31079 -11.27644
 Alpha  occ. eigenvalues --  -11.27615 -11.27341 -11.26662 -11.26537 -11.22953
 Alpha  occ. eigenvalues --  -11.22434 -11.22380 -11.22323 -11.22179 -11.21668
 Alpha  occ. eigenvalues --   -1.59763  -1.39317  -1.19240  -1.09469  -1.08637
 Alpha  occ. eigenvalues --   -1.04656  -1.04489  -0.96913  -0.95482  -0.87936
 Alpha  occ. eigenvalues --   -0.86048  -0.82314  -0.80653  -0.79298  -0.77349
 Alpha  occ. eigenvalues --   -0.71956  -0.71085  -0.70370  -0.66083  -0.64889
 Alpha  occ. eigenvalues --   -0.64663  -0.62022  -0.61897  -0.60272  -0.58541
 Alpha  occ. eigenvalues --   -0.56183  -0.55129  -0.53631  -0.53338  -0.52970
 Alpha  occ. eigenvalues --   -0.52723  -0.50848  -0.48920  -0.48715  -0.48668
 Alpha  occ. eigenvalues --   -0.47650  -0.46756  -0.46696  -0.44756  -0.44728
 Alpha  occ. eigenvalues --   -0.37213  -0.36234
 Alpha virt. eigenvalues --    0.05149   0.11332   0.16612   0.19942   0.22462
 Alpha virt. eigenvalues --    0.23209   0.24610   0.25377   0.26410   0.28527
 Alpha virt. eigenvalues --    0.29100   0.30386   0.30914   0.31250   0.31704

 Mulliken charges:
               1
     1  C   -0.297061
     2  C   -0.308820
     3  C   -0.476955
     4  H    0.154379
     5  H    0.152609
     6  H    0.154886
     7  H    0.142870
     8  H    0.157823
     9  H    0.161500
    10  H    0.159939
    11  C   -0.301997
    12  C   -0.300116
    13  C   -0.476647
    14  H    0.147893
    15  H    0.148281
    16  H    0.154469
    17  H    0.153873
    18  H    0.155841
    19  H    0.156257
    20  H    0.163266
    21  C   -0.175951
    22  C   -0.222451
    23  C   -0.172764
    24  C    0.158625
    25  C   -0.171375
    26  C   -0.218540
    27  H    0.228786
    28  H    0.231922
    29  H    0.275061
    30  H    0.275044
    31  H    0.222831
    32  N    0.488050
    33  O   -0.460785
    34  O   -0.460744
 Sum of Mulliken charges =  -0.00000

 Dipole moment (field-independent basis, Debye):
    X=             -4.2950    Y=              3.0436    Z=              1.4218  Tot=              5.4527
 Quadrupole moment (field-independent basis, Debye-Ang):
   XX=           -117.3596   YY=            -94.8164   ZZ=            -93.9161
   XY=             13.0585   XZ=              5.9623   YZ=              1.6008

 Normal termination of Gaussian 16 at Thu May  6 15:32:33 2021.
