 Gaussian 16, Revision A.03,
 Gaussian 16:  EM64L-G16RevA.03 25-Dec-2016

 -------------
 #p 6-31g* mp2
 -------------

 ------------------------------------------------------
 Input file generated by CHIRIPA (05-May-2021 14:51:09)
 ------------------------------------------------------
 Symbolic Z-matrix:
 Charge =  0 Multiplicity = 1

                         Standard orientation:
 ---------------------------------------------------------------------
 Center     Atomic      Atomic             Coordinates (Angstroms)
 Number     Number       Type             X           Y           Z
 ---------------------------------------------------------------------
      1          6           0        2.651951    1.028897   -0.377099
      2          6           0        3.299889    2.087716    0.515685
      3          6           0        2.754795    3.492702    0.257461
      4          1           0        2.812385    1.298195   -1.430040
      5          1           0        1.565277    1.037231   -0.214416
      6          1           0        4.385164    2.076439    0.352383
      7          1           0        3.138059    1.815765    1.566623
      8          1           0        1.675724    3.526702    0.439260
      9          1           0        2.929915    3.788857   -0.781879
     10          1           0        3.231683    4.233882    0.906374
     11          6           0        3.186497   -0.380815   -0.130723
     12          6           0        2.538558   -1.439634   -1.023508
     13          6           0        3.083652   -2.844620   -0.765283
     14          1           0        4.273170   -0.389149   -0.293406
     15          1           0        3.026062   -0.650113    0.922217
     16          1           0        2.700388   -1.167683   -2.074445
     17          1           0        1.453283   -1.428357   -0.860206
     18          1           0        2.908532   -3.140775    0.274056
     19          1           0        4.162723   -2.878620   -0.947083
     20          1           0        2.606764   -3.585800   -1.414197
     21          6           0       -3.290292    0.042656   -0.304008
     22          6           0       -4.725875    0.416631    0.066434
     23          6           0       -5.455195    1.149648   -1.059876
     24          1           0       -2.737253    0.954331   -0.568477
     25          1           0       -3.303534   -0.587145   -1.204325
     26          1           0       -4.710017    1.044399    0.966586
     27          1           0       -5.275507   -0.496018    0.330236
     28          1           0       -5.500613    0.526569   -1.958938
     29          1           0       -4.931911    2.075738   -1.318973
     30          1           0       -6.479635    1.407501   -0.773700
     31          6           0       -2.548156   -0.690738    0.811830
     32          6           0       -1.112572   -1.064714    0.441389
     33          6           0       -0.383252   -1.797729    1.567699
     34          1           0       -2.534913   -0.060937    1.712148
     35          1           0       -3.101194   -1.602412    1.076299
     36          1           0       -0.562940   -0.152064    0.177586
     37          1           0       -1.128430   -1.692480   -0.458763
     38          1           0       -0.906536   -2.723820    1.826796
     39          1           0       -0.337833   -1.174652    2.466761
     40          1           0        0.641187   -2.055584    1.281524
 ---------------------------------------------------------------------

 SCF Done:  E(RHF) =  -470.731904731     A.U. after   11 cycles
 E2 =    -0.1585149786D+01 EUMP2 =    -0.47231705451714D+03

 The electronic state is 1-A.
 Alpha  occ. eigenvalues --  -11.21688 -11.21633 -11.21601 -11.21482 -11.21461
 Alpha  occ. eigenvalues --  -11.21397 -11.21384 -11.21322 -11.21122 -11.21092
 Alpha  occ. eigenvalues --  -11.21088 -11.21058  -1.08523  -1.08388  -1.03648
 Alpha  occ. eigenvalues --   -1.03471  -0.96047  -0.95968  -0.87059  -0.86983
 Alpha  occ. eigenvalues --   -0.79725  -0.79546  -0.78415  -0.78109  -0.65257
 Alpha  occ. eigenvalues --   -0.65019  -0.61155  -0.60980  -0.59361  -0.59237
 Alpha  occ. eigenvalues --   -0.57615  -0.57549  -0.55402  -0.55187  -0.52716
 Alpha  occ. eigenvalues --   -0.52660  -0.52476  -0.52369  -0.50030  -0.49865
 Alpha  occ. eigenvalues --   -0.48028  -0.47885  -0.46805  -0.46568  -0.46098
 Alpha  occ. eigenvalues --   -0.45764  -0.45738  -0.45280  -0.43826  -0.43763
 Alpha virt. eigenvalues --    0.20354   0.22970   0.23548   0.24669   0.25834
 Alpha virt. eigenvalues --    0.26471   0.26714   0.27737   0.28174   0.29465
 Alpha virt. eigenvalues --    0.30471   0.30788   0.31720   0.31780   0.32239

 Mulliken charges:
               1
     1  C   -0.304514
     2  C   -0.299365
     3  C   -0.475584
     4  H    0.149803
     5  H    0.154810
     6  H    0.152086
     7  H    0.151966
     8  H    0.154427
     9  H    0.155299
    10  H    0.160331
    11  C   -0.298878
    12  C   -0.312002
    13  C   -0.477010
    14  H    0.149629
    15  H    0.150129
    16  H    0.152446
    17  H    0.165278
    18  H    0.155207
    19  H    0.155440
    20  H    0.160190
    21  C   -0.298418
    22  C   -0.299730
    23  C   -0.475748
    24  H    0.149585
    25  H    0.149796
    26  H    0.151961
    27  H    0.152050
    28  H    0.155278
    29  H    0.155310
    30  H    0.160373
    31  C   -0.297349
    32  C   -0.308538
    33  C   -0.483274
    34  H    0.149545
    35  H    0.150035
    36  H    0.157565
    37  H    0.152597
    38  H    0.156000
    39  H    0.155045
    40  H    0.168226
 Sum of Mulliken charges =  -0.00000

 Dipole moment (field-independent basis, Debye):
    X=             -0.0371    Y=             -0.0049    Z=             -0.0055  Tot=              0.0378
 Quadrupole moment (field-independent basis, Debye-Ang):
   XX=            -84.7356   YY=            -85.4194   ZZ=            -84.7025
   XY=              1.1231   XZ=             -0.8467   YZ=              0.6860

 Normal termination of Gaussian 16 at Thu May  6 06:54:23 2021.
