 Gaussian 16, Revision A.03,
 Gaussian 16:  EM64L-G16RevA.03 25-Dec-2016

 -------------
 #p 6-31g* mp2
 -------------

 ------------------------------------------------------
 Input file generated by CHIRIPA (05-May-2021 14:51:08)
 ------------------------------------------------------
 Symbolic Z-matrix:
 Charge =  0 Multiplicity = 1

                         Standard orientation:
 ---------------------------------------------------------------------
 Center     Atomic      Atomic             Coordinates (Angstroms)
 Number     Number       Type             X           Y           Z
 ---------------------------------------------------------------------
      1          6           0       -2.527755   -0.132523   -0.516565
      2          6           0       -3.487801    1.052930   -0.621432
      3          6           0       -3.623377    1.579201   -2.050576
      4          1           0       -1.540639    0.168827   -0.893042
      5          1           0       -2.879816   -0.939758   -1.173695
      6          1           0       -3.134792    1.857166    0.036751
      7          1           0       -4.472696    0.748779   -0.244483
      8          1           0       -3.997725    0.794650   -2.716116
      9          1           0       -2.652220    1.909335   -2.433284
     10          1           0       -4.314318    2.426407   -2.102564
     11          6           0       -2.381689   -0.669790    0.906017
     12          6           0       -1.421643   -1.855243    1.010884
     13          6           0       -1.286067   -2.381514    2.440027
     14          1           0       -2.029628    0.137445    1.563146
     15          1           0       -3.368805   -0.971140    1.282494
     16          1           0       -0.436748   -1.551092    0.633935
     17          1           0       -1.774651   -2.659479    0.352700
     18          1           0       -2.257224   -2.711648    2.822736
     19          1           0       -0.911719   -1.596963    3.105568
     20          1           0       -0.595126   -3.228720    2.492016
     21          6           0        2.656873    0.870338    0.373108
     22          6           0        1.759553    2.102890    0.489803
     23          6           0        2.176625    3.031900    1.630322
     24          1           0        2.636920    0.318865    1.323069
     25          1           0        3.695748    1.194730    0.221767
     26          1           0        0.722482    1.776254    0.639495
     27          1           0        1.781495    2.651389   -0.460610
     28          1           0        3.202097    3.386017    1.483326
     29          1           0        2.137067    2.505910    2.589682
     30          1           0        1.521799    3.906426    1.695642
     31          6           0        2.252570   -0.068024   -0.762560
     32          6           0        3.149890   -1.300577   -0.879254
     33          6           0        2.732819   -2.229586   -2.019774
     34          1           0        1.213696   -0.392417   -0.611219
     35          1           0        2.272523    0.483449   -1.712521
     36          1           0        3.127949   -1.849075    0.071159
     37          1           0        4.186962   -0.973941   -1.028948
     38          1           0        2.772377   -1.703596   -2.979133
     39          1           0        1.707347   -2.583703   -1.872778
     40          1           0        3.387645   -3.104113   -2.085094
 ---------------------------------------------------------------------

 SCF Done:  E(RHF) =  -470.733316037     A.U. after   11 cycles
 E2 =    -0.1583958995D+01 EUMP2 =    -0.47231727503205D+03

 The electronic state is 1-A.
 Alpha  occ. eigenvalues --  -11.21680 -11.21664 -11.21628 -11.21613 -11.21451
 Alpha  occ. eigenvalues --  -11.21447 -11.21388 -11.21379 -11.21134 -11.21129
 Alpha  occ. eigenvalues --  -11.21073 -11.21067  -1.08510  -1.08446  -1.03579
 Alpha  occ. eigenvalues --   -1.03560  -0.96019  -0.96012  -0.87041  -0.87023
 Alpha  occ. eigenvalues --   -0.79667  -0.79606  -0.78407  -0.78184  -0.65371
 Alpha  occ. eigenvalues --   -0.64873  -0.61029  -0.60908  -0.59400  -0.59367
 Alpha  occ. eigenvalues --   -0.57641  -0.57612  -0.55324  -0.55287  -0.52718
 Alpha  occ. eigenvalues --   -0.52704  -0.52450  -0.52430  -0.50012  -0.49919
 Alpha  occ. eigenvalues --   -0.48018  -0.47907  -0.46828  -0.46579  -0.46298
 Alpha  occ. eigenvalues --   -0.45803  -0.45776  -0.45153  -0.43830  -0.43816
 Alpha virt. eigenvalues --    0.19110   0.22643   0.24092   0.24616   0.25056
 Alpha virt. eigenvalues --    0.26879   0.26924   0.27722   0.27986   0.30322
 Alpha virt. eigenvalues --    0.31255   0.31649   0.31747   0.31800   0.32376

 Mulliken charges:
               1
     1  C   -0.303176
     2  C   -0.299531
     3  C   -0.475840
     4  H    0.153958
     5  H    0.149631
     6  H    0.151979
     7  H    0.151991
     8  H    0.155160
     9  H    0.155718
    10  H    0.160234
    11  C   -0.298299
    12  C   -0.307934
    13  C   -0.475208
    14  H    0.149486
    15  H    0.150149
    16  H    0.158564
    17  H    0.152253
    18  H    0.155649
    19  H    0.154925
    20  H    0.160265
    21  C   -0.298045
    22  C   -0.301655
    23  C   -0.475721
    24  H    0.149698
    25  H    0.150066
    26  H    0.152416
    27  H    0.152164
    28  H    0.155620
    29  H    0.155251
    30  H    0.160365
    31  C   -0.309287
    32  C   -0.299403
    33  C   -0.476332
    34  H    0.159195
    35  H    0.149951
    36  H    0.151997
    37  H    0.152182
    38  H    0.155204
    39  H    0.156068
    40  H    0.160292
 Sum of Mulliken charges =  -0.00000

 Dipole moment (field-independent basis, Debye):
    X=              0.0037    Y=             -0.0019    Z=             -0.0080  Tot=              0.0090
 Quadrupole moment (field-independent basis, Debye-Ang):
   XX=            -83.8129   YY=            -84.9123   ZZ=            -85.9086
   XY=              0.8149   XZ=             -0.6002   YZ=             -0.3458

 Normal termination of Gaussian 16 at Thu May  6 03:40:43 2021.
