 Gaussian 16, Revision A.03,
 Gaussian 16:  EM64L-G16RevA.03 25-Dec-2016

 -------------
 #p 6-31g* mp2
 -------------

 ------------------------------------------------------
 Input file generated by CHIRIPA (05-May-2021 14:57:24)
 ------------------------------------------------------
 Symbolic Z-matrix:
 Charge =  0 Multiplicity = 1

                         Standard orientation:
 ---------------------------------------------------------------------
 Center     Atomic      Atomic             Coordinates (Angstroms)
 Number     Number       Type             X           Y           Z
 ---------------------------------------------------------------------
      1          6           0        1.706886    2.301971    1.326270
      2          6           0        2.839078    1.608600    1.766612
      3          6           0        3.308085    0.495265    1.063003
      4          6           0        2.617484    0.101074   -0.081975
      5          6           0        1.486558    0.771141   -0.545987
      6          6           0        1.035424    1.881769    0.173409
      7          1           0        1.349492    3.165785    1.878983
      8          1           0        3.362543    1.932671    2.661602
      9          1           0        4.182035   -0.059834    1.381586
     10          1           0        0.985799    0.424246   -1.441711
     11          1           0        0.155881    2.418330   -0.170905
     12          7           0        3.104541   -1.076131   -0.835211
     13          8           0        2.478343   -1.403282   -1.840937
     14          8           0        4.103270   -1.649383   -0.405608
     15          6           0       -2.349327   -2.027493    1.782500
     16          6           0       -1.667003   -2.206233    0.574607
     17          6           0       -1.763829   -1.252870   -0.443368
     18          6           0       -2.555375   -0.127610   -0.218570
     19          6           0       -3.247285    0.078950    0.973858
     20          6           0       -3.135904   -0.887481    1.977926
     21          1           0       -2.268456   -2.773164    2.567885
     22          1           0       -1.055410   -3.090604    0.420053
     23          1           0       -1.246268   -1.366119   -1.388208
     24          1           0       -3.849292    0.970829    1.098600
     25          1           0       -3.666924   -0.746035    2.914973
     26          7           0       -2.665586    0.888590   -1.288892
     27          8           0       -3.369406    1.871256   -1.066087
     28          8           0       -2.046061    0.683181   -2.330349
 ---------------------------------------------------------------------

 SCF Done:  E(RHF) =  -868.339788130     A.U. after   16 cycles
 E2 =    -0.2601095293D+01 EUMP2 =    -0.87094088342330D+03

 The electronic state is 1-A.
 Alpha  occ. eigenvalues --  -20.61494 -20.61487 -20.60890 -20.60876 -15.86501
 Alpha  occ. eigenvalues --  -15.85927 -11.31570 -11.31115 -11.28141 -11.28039
 Alpha  occ. eigenvalues --  -11.27779 -11.27714 -11.27579 -11.27394 -11.27084
 Alpha  occ. eigenvalues --  -11.26971 -11.26697 -11.26572  -1.60570  -1.59965
 Alpha  occ. eigenvalues --   -1.40125  -1.39522  -1.19720  -1.19281  -1.09172
 Alpha  occ. eigenvalues --   -1.08714  -1.05063  -1.04645  -0.96050  -0.95571
 Alpha  occ. eigenvalues --   -0.86485  -0.86056  -0.82878  -0.82401  -0.77976
 Alpha  occ. eigenvalues --   -0.77464  -0.72710  -0.72148  -0.71910  -0.71293
 Alpha  occ. eigenvalues --   -0.70820  -0.70372  -0.65365  -0.65057  -0.64928
 Alpha  occ. eigenvalues --   -0.64628  -0.62426  -0.61944  -0.55576  -0.55164
 Alpha  occ. eigenvalues --   -0.53516  -0.53145  -0.52915  -0.52710  -0.49494
 Alpha  occ. eigenvalues --   -0.49447  -0.48910  -0.48889  -0.45573  -0.44966
 Alpha  occ. eigenvalues --   -0.37743  -0.37302  -0.36738  -0.36063
 Alpha virt. eigenvalues --    0.04462   0.05017   0.10771   0.11593   0.16033
 Alpha virt. eigenvalues --    0.16565   0.20835   0.21738   0.26245   0.27317
 Alpha virt. eigenvalues --    0.27919   0.28807   0.30644   0.31016   0.31674

 Mulliken charges:
               1
     1  C   -0.170876
     2  C   -0.219297
     3  C   -0.171834
     4  C    0.157223
     5  C   -0.177085
     6  C   -0.223766
     7  H    0.226093
     8  H    0.222191
     9  H    0.273922
    10  H    0.284881
    11  H    0.231982
    12  N    0.487462
    13  O   -0.463148
    14  O   -0.461179
    15  C   -0.169753
    16  C   -0.219371
    17  C   -0.174977
    18  C    0.155893
    19  C   -0.172650
    20  C   -0.218601
    21  H    0.227729
    22  H    0.231227
    23  H    0.283105
    24  H    0.274000
    25  H    0.223635
    26  N    0.485261
    27  O   -0.460121
    28  O   -0.461945
 Sum of Mulliken charges =  -0.00000

 Dipole moment (field-independent basis, Debye):
    X=             -1.4442    Y=              0.4725    Z=              6.4480  Tot=              6.6246
 Quadrupole moment (field-independent basis, Debye-Ang):
   XX=           -112.4308   YY=           -102.1937   ZZ=           -103.8810
   XY=             17.8822   XZ=             -2.0127   YZ=              1.4889

 Normal termination of Gaussian 16 at Thu May  6 21:17:52 2021.
