 Gaussian 16, Revision A.03,
 Gaussian 16:  EM64L-G16RevA.03 25-Dec-2016

 -------------
 #p 6-31g* mp2
 -------------

 ------------------------------------------------------
 Input file generated by CHIRIPA (05-May-2021 14:53:17)
 ------------------------------------------------------
 Symbolic Z-matrix:
 Charge =  0 Multiplicity = 1

                         Standard orientation:
 ---------------------------------------------------------------------
 Center     Atomic      Atomic             Coordinates (Angstroms)
 Number     Number       Type             X           Y           Z
 ---------------------------------------------------------------------
      1          6           0       -3.488189    0.624484   -0.406312
      2          6           0       -3.652027    2.135812   -0.241906
      3          6           0       -2.445737    2.920814   -0.758075
      4          1           0       -2.583121    0.300212    0.125331
      5          1           0       -3.326466    0.393607   -1.468355
      6          1           0       -3.814773    2.363638    0.819331
      7          1           0       -4.556915    2.456494   -0.773842
      8          1           0       -2.284057    2.722737   -1.822606
      9          1           0       -1.537698    2.629353   -0.220380
     10          1           0       -2.584064    3.999019   -0.630797
     11          6           0       -4.685988   -0.173915    0.105121
     12          6           0       -4.522151   -1.685244   -0.059285
     13          6           0       -5.728441   -2.470246    0.456884
     14          1           0       -4.847712    0.056961    1.167165
     15          1           0       -5.591057    0.150356   -0.426522
     16          1           0       -3.617263   -2.005926    0.472652
     17          1           0       -4.359405   -1.913070   -1.120522
     18          1           0       -6.636480   -2.178785   -0.080811
     19          1           0       -5.890121   -2.272169    1.521415
     20          1           0       -5.590114   -3.548451    0.329606
     21          6           0        0.752424    0.201590    0.634129
     22          6           0        1.143533   -0.902942   -0.129782
     23          6           0        2.493007   -1.122068   -0.422105
     24          6           0        3.428988   -0.212507    0.067721
     25          6           0        3.070699    0.897293    0.831438
     26          6           0        1.715557    1.096606    1.111459
     27          1           0       -0.298082    0.364117    0.856434
     28          1           0        0.397735   -1.599671   -0.501802
     29          1           0        2.823483   -1.968931   -1.011195
     30          1           0        3.837160    1.574445    1.188397
     31          1           0        1.414719    1.955263    1.704964
     32          7           0        4.860616   -0.433999   -0.235236
     33          8           0        5.665787    0.382001    0.208026
     34          8           0        5.150446   -1.419409   -0.910219
 ---------------------------------------------------------------------

 SCF Done:  E(RHF) =  -669.535388766     A.U. after   15 cycles
 E2 =    -0.2091668468D+01 EUMP2 =    -0.67162705723361D+03

 The electronic state is 1-A.
 Alpha  occ. eigenvalues --  -20.60736 -20.60731 -15.85790 -11.31155 -11.27723
 Alpha  occ. eigenvalues --  -11.27718 -11.27443 -11.26743 -11.26722 -11.22589
 Alpha  occ. eigenvalues --  -11.22528 -11.22477 -11.22289 -11.22019 -11.21763
 Alpha  occ. eigenvalues --   -1.59812  -1.39365  -1.19326  -1.09414  -1.08721
 Alpha  occ. eigenvalues --   -1.04728  -1.04432  -0.96879  -0.95559  -0.87888
 Alpha  occ. eigenvalues --   -0.86125  -0.82394  -0.80498  -0.79247  -0.77435
 Alpha  occ. eigenvalues --   -0.72008  -0.71135  -0.70466  -0.66049  -0.64978
 Alpha  occ. eigenvalues --   -0.64728  -0.62076  -0.61829  -0.60248  -0.58490
 Alpha  occ. eigenvalues --   -0.56185  -0.55258  -0.53533  -0.53303  -0.53049
 Alpha  occ. eigenvalues --   -0.52819  -0.50826  -0.48811  -0.48763  -0.48758
 Alpha  occ. eigenvalues --   -0.47534  -0.46767  -0.46680  -0.44771  -0.44708
 Alpha  occ. eigenvalues --   -0.37294  -0.36332
 Alpha virt. eigenvalues --    0.05077   0.11293   0.16489   0.18868   0.22634
 Alpha virt. eigenvalues --    0.23479   0.25014   0.25996   0.26510   0.27822
 Alpha virt. eigenvalues --    0.29680   0.30370   0.30934   0.31045   0.31330

 Mulliken charges:
               1
     1  C   -0.302102
     2  C   -0.301017
     3  C   -0.476394
     4  H    0.139079
     5  H    0.153300
     6  H    0.152190
     7  H    0.156797
     8  H    0.159489
     9  H    0.147588
    10  H    0.164282
    11  C   -0.298194
    12  C   -0.299900
    13  C   -0.476145
    14  H    0.150788
    15  H    0.153753
    16  H    0.147254
    17  H    0.153088
    18  H    0.157400
    19  H    0.156436
    20  H    0.162286
    21  C   -0.175390
    22  C   -0.221545
    23  C   -0.170939
    24  C    0.158406
    25  C   -0.170616
    26  C   -0.220611
    27  H    0.234915
    28  H    0.223914
    29  H    0.275551
    30  H    0.275500
    31  H    0.223814
    32  N    0.488003
    33  O   -0.460476
    34  O   -0.460503
 Sum of Mulliken charges =  -0.00000

 Dipole moment (field-independent basis, Debye):
    X=             -5.2862    Y=              0.8101    Z=              0.9950  Tot=              5.4397
 Quadrupole moment (field-independent basis, Debye-Ang):
   XX=           -129.0135   YY=            -92.1186   ZZ=            -93.1072
   XY=              4.2369   XZ=              4.9094   YZ=              2.3836

 Normal termination of Gaussian 16 at Thu May  6 20:30:47 2021.
