 Gaussian 16, Revision A.03,
 Gaussian 16:  EM64L-G16RevA.03 25-Dec-2016

 -------------
 #p 6-31g* mp2
 -------------

 ------------------------------------------------------
 Input file generated by CHIRIPA (05-May-2021 14:51:09)
 ------------------------------------------------------
 Symbolic Z-matrix:
 Charge =  0 Multiplicity = 1

                         Standard orientation:
 ---------------------------------------------------------------------
 Center     Atomic      Atomic             Coordinates (Angstroms)
 Number     Number       Type             X           Y           Z
 ---------------------------------------------------------------------
      1          6           0       -1.817327   -0.919776    0.070872
      2          6           0       -2.213014   -2.353598    0.425235
      3          6           0       -1.013429   -3.299569    0.487899
      4          1           0       -1.296481   -0.918316   -0.896424
      5          1           0       -1.096994   -0.551217    0.814296
      6          1           0       -2.933441   -2.718858   -0.317857
      7          1           0       -2.733148   -2.351620    1.391709
      8          1           0       -0.295541   -2.961899    1.242363
      9          1           0       -0.496971   -3.331223   -0.476917
     10          1           0       -1.319049   -4.319138    0.742723
     11          6           0       -3.005747    0.037808    0.004405
     12          6           0       -2.610060    1.471630   -0.349958
     13          6           0       -3.809645    2.417601   -0.412622
     14          1           0       -3.726080   -0.330751   -0.739019
     15          1           0       -3.526593    0.036348    0.971701
     16          1           0       -2.089926    1.469652   -1.316432
     17          1           0       -1.889633    1.836891    0.393135
     18          1           0       -4.326103    2.449256    0.552194
     19          1           0       -4.527533    2.079931   -1.167086
     20          1           0       -3.504025    3.437170   -0.667446
     21          6           0        2.101922   -0.250960   -0.131363
     22          6           0        3.138522   -1.357075   -0.331256
     23          6           0        2.503710   -2.735539   -0.517383
     24          1           0        1.482012   -0.491831    0.743072
     25          1           0        1.426107   -0.230507   -0.997534
     26          1           0        3.813028   -1.374525    0.534396
     27          1           0        3.756160   -1.113447   -1.205203
     28          1           0        1.845414   -2.741566   -1.392147
     29          1           0        1.902605   -3.004129    0.357336
     30          1           0        3.262716   -3.511310   -0.658623
     31          6           0        2.721152    1.132928    0.056087
     32          6           0        1.684552    2.239043    0.255979
     33          6           0        2.319365    3.617507    0.442106
     34          1           0        3.396967    1.112475    0.922256
     35          1           0        3.341061    1.373799   -0.818348
     36          1           0        1.066914    1.995414    1.129927
     37          1           0        1.010045    2.256493   -0.609672
     38          1           0        2.920469    3.886096   -0.432613
     39          1           0        2.977660    3.623534    1.316869
     40          1           0        1.560358    4.393278    0.583345
 ---------------------------------------------------------------------

 SCF Done:  E(RHF) =  -470.731017681     A.U. after   11 cycles
 E2 =    -0.1585738101D+01 EUMP2 =    -0.47231675578201D+03

 The electronic state is 1-A.
 Alpha  occ. eigenvalues --  -11.21570 -11.21552 -11.21534 -11.21517 -11.21348
 Alpha  occ. eigenvalues --  -11.21341 -11.21271 -11.21268 -11.21056 -11.21045
 Alpha  occ. eigenvalues --  -11.20958 -11.20897  -1.08435  -1.08320  -1.03549
 Alpha  occ. eigenvalues --   -1.03409  -0.96038  -0.95822  -0.87109  -0.86789
 Alpha  occ. eigenvalues --   -0.79794  -0.79321  -0.78538  -0.77832  -0.65153
 Alpha  occ. eigenvalues --   -0.64882  -0.61012  -0.60764  -0.59449  -0.59149
 Alpha  occ. eigenvalues --   -0.57924  -0.57220  -0.55406  -0.55056  -0.52873
 Alpha  occ. eigenvalues --   -0.52650  -0.52573  -0.51816  -0.50069  -0.49671
 Alpha  occ. eigenvalues --   -0.48411  -0.47314  -0.46790  -0.46484  -0.46349
 Alpha  occ. eigenvalues --   -0.45956  -0.45304  -0.44870  -0.43745  -0.43700
 Alpha virt. eigenvalues --    0.21024   0.22478   0.23438   0.23618   0.25202
 Alpha virt. eigenvalues --    0.25580   0.26426   0.28157   0.28659   0.29743
 Alpha virt. eigenvalues --    0.30426   0.31448   0.31510   0.31750   0.32543

 Mulliken charges:
               1
     1  C   -0.300539
     2  C   -0.300125
     3  C   -0.477917
     4  H    0.150221
     5  H    0.152783
     6  H    0.151332
     7  H    0.151025
     8  H    0.153951
     9  H    0.160962
    10  H    0.159394
    11  C   -0.298213
    12  C   -0.301743
    13  C   -0.475674
    14  H    0.149037
    15  H    0.149154
    16  H    0.151092
    17  H    0.155368
    18  H    0.155014
    19  H    0.154976
    20  H    0.160026
    21  C   -0.300733
    22  C   -0.299769
    23  C   -0.478541
    24  H    0.151735
    25  H    0.151205
    26  H    0.151051
    27  H    0.151028
    28  H    0.153174
    29  H    0.162803
    30  H    0.158944
    31  C   -0.298350
    32  C   -0.301482
    33  C   -0.475726
    34  H    0.148965
    35  H    0.149390
    36  H    0.151339
    37  H    0.154606
    38  H    0.155176
    39  H    0.154957
    40  H    0.160104
 Sum of Mulliken charges =  -0.00000

 Dipole moment (field-independent basis, Debye):
    X=             -0.0005    Y=             -0.0197    Z=              0.0004  Tot=              0.0198
 Quadrupole moment (field-independent basis, Debye-Ang):
   XX=            -85.8228   YY=            -86.5247   ZZ=            -82.7957
   XY=              0.2996   XZ=              0.0826   YZ=             -0.0386

 Normal termination of Gaussian 16 at Wed May  5 15:07:06 2021.
