 Gaussian 16, Revision A.03,
 Gaussian 16:  EM64L-G16RevA.03 25-Dec-2016

 -------------
 #p 6-31g* mp2
 -------------

 ------------------------------------------------------
 Input file generated by CHIRIPA (05-May-2021 14:55:25)
 ------------------------------------------------------
 Symbolic Z-matrix:
 Charge =  0 Multiplicity = 1

                         Standard orientation:
 ---------------------------------------------------------------------
 Center     Atomic      Atomic             Coordinates (Angstroms)
 Number     Number       Type             X           Y           Z
 ---------------------------------------------------------------------
      1          6           0        5.480402   -0.105578    0.151100
      2          6           0        4.728479    0.718421    0.994995
      3          6           0        3.332330    0.724087    0.922316
      4          6           0        2.718106   -0.110548   -0.010102
      5          6           0        3.439608   -0.942780   -0.864570
      6          6           0        4.834705   -0.932092   -0.774358
      7          1           0        6.564556   -0.103628    0.214369
      8          1           0        5.227245    1.361334    1.714676
      9          1           0        2.725812    1.352062    1.563565
     10          1           0        2.914054   -1.572793   -1.571886
     11          1           0        5.416100   -1.573062   -1.431002
     12          7           0        1.240622   -0.113207   -0.096326
     13          8           0        0.723435   -0.857703   -0.926313
     14          8           0        0.627735    0.629257    0.667712
     15          6           0       -3.601211   -0.597539   -0.051197
     16          6           0       -4.676067   -1.535042    0.499947
     17          6           0       -4.282041   -3.009071    0.401085
     18          1           0       -3.401440   -0.855593   -1.100218
     19          1           0       -2.663086   -0.764758    0.495934
     20          1           0       -5.612257   -1.365130   -0.047131
     21          1           0       -4.873440   -1.274601    1.547721
     22          1           0       -3.361596   -3.200257    0.962182
     23          1           0       -4.104612   -3.291300   -0.641732
     24          1           0       -5.064672   -3.661511    0.800674
     25          6           0       -3.980519    0.879421    0.040681
     26          6           0       -2.905663    1.816924   -0.510464
     27          6           0       -3.299689    3.290953   -0.411602
     28          1           0       -4.918645    1.046640   -0.506451
     29          1           0       -4.180290    1.137475    1.089701
     30          1           0       -2.708291    1.556483   -1.558238
     31          1           0       -1.969474    1.647012    0.036614
     32          1           0       -3.477118    3.573182    0.631215
     33          1           0       -4.220135    3.482139   -0.972698
     34          1           0       -2.517058    3.943393   -0.811191
 ---------------------------------------------------------------------

 SCF Done:  E(RHF) =  -669.536622259     A.U. after   15 cycles
 E2 =    -0.2091495488D+01 EUMP2 =    -0.67162811774681D+03

 The electronic state is 1-A.
 Alpha  occ. eigenvalues --  -20.61079 -20.61064 -15.86082 -11.31368 -11.27923
 Alpha  occ. eigenvalues --  -11.27918 -11.27653 -11.26920 -11.26910 -11.20388
 Alpha  occ. eigenvalues --  -11.20014 -11.19914 -11.19813 -11.19751 -11.19737
 Alpha  occ. eigenvalues --   -1.60114  -1.39672  -1.19529  -1.08940  -1.06941
 Alpha  occ. eigenvalues --   -1.04918  -1.02156  -0.95788  -0.94650  -0.86320
 Alpha  occ. eigenvalues --   -0.85673  -0.82624  -0.78196  -0.77681  -0.76693
 Alpha  occ. eigenvalues --   -0.72297  -0.71421  -0.70636  -0.65185  -0.64921
 Alpha  occ. eigenvalues --   -0.63576  -0.62265  -0.59561  -0.58021  -0.56241
 Alpha  occ. eigenvalues --   -0.55424  -0.53953  -0.53252  -0.53009  -0.51397
 Alpha  occ. eigenvalues --   -0.51068  -0.49137  -0.49049  -0.48590  -0.46512
 Alpha  occ. eigenvalues --   -0.45250  -0.45036  -0.44278  -0.44035  -0.42382
 Alpha  occ. eigenvalues --   -0.37505  -0.36517
 Alpha virt. eigenvalues --    0.04836   0.11139   0.16342   0.21275   0.24294
 Alpha virt. eigenvalues --    0.25580   0.27200   0.28039   0.28233   0.29018
 Alpha virt. eigenvalues --    0.29361   0.30875   0.32365   0.32685   0.33077

 Mulliken charges:
               1
     1  C   -0.170426
     2  C   -0.218560
     3  C   -0.170688
     4  C    0.157848
     5  C   -0.170520
     6  C   -0.218606
     7  H    0.226267
     8  H    0.224071
     9  H    0.275822
    10  H    0.276088
    11  H    0.224098
    12  N    0.489626
    13  O   -0.457640
    14  O   -0.460858
    15  C   -0.299486
    16  C   -0.298948
    17  C   -0.474179
    18  H    0.150077
    19  H    0.164249
    20  H    0.147315
    21  H    0.148311
    22  H    0.155906
    23  H    0.154506
    24  H    0.154706
    25  C   -0.297025
    26  C   -0.310690
    27  C   -0.474366
    28  H    0.142187
    29  H    0.144873
    30  H    0.148740
    31  H    0.181135
    32  H    0.151180
    33  H    0.149260
    34  H    0.155729
 Sum of Mulliken charges =  -0.00000

 Dipole moment (field-independent basis, Debye):
    X=              5.7116    Y=             -0.0838    Z=              0.3163  Tot=              5.7209
 Quadrupole moment (field-independent basis, Debye-Ang):
   XX=            -68.7243   YY=            -95.0662   ZZ=            -91.7441
   XY=             -0.3110   XZ=              0.9780   YZ=              3.2192

 Normal termination of Gaussian 16 at Thu May  6 12:43:11 2021.
