 Gaussian 16, Revision A.03,
 Gaussian 16:  EM64L-G16RevA.03 25-Dec-2016

 -------------
 #p 6-31g* mp2
 -------------

 ------------------------------------------------------
 Input file generated by CHIRIPA (05-May-2021 14:51:14)
 ------------------------------------------------------
 Symbolic Z-matrix:
 Charge =  0 Multiplicity = 1

                         Standard orientation:
 ---------------------------------------------------------------------
 Center     Atomic      Atomic             Coordinates (Angstroms)
 Number     Number       Type             X           Y           Z
 ---------------------------------------------------------------------
      1          6           0       -3.351096   -0.321058    0.025449
      2          6           0       -4.053191    0.745650   -0.815492
      3          6           0       -5.173887    0.171610   -1.682851
      4          1           0       -2.942356   -1.093433   -0.640368
      5          1           0       -4.092114   -0.820087    0.665183
      6          1           0       -3.310836    1.243463   -1.452445
      7          1           0       -4.460141    1.515675   -0.147608
      8          1           0       -5.935686   -0.308321   -1.060011
      9          1           0       -4.779851   -0.582080   -2.372262
     10          1           0       -5.662219    0.951348   -2.275642
     11          6           0       -2.228297    0.237378    0.897916
     12          6           0       -1.526203   -0.829330    1.738857
     13          6           0       -0.405506   -0.255290    2.606216
     14          1           0       -1.487280    0.736407    0.258183
     15          1           0       -2.637037    1.009753    1.563733
     16          1           0       -1.119252   -1.599355    1.070973
     17          1           0       -2.268557   -1.327143    2.375810
     18          1           0       -0.799542    0.498400    3.295627
     19          1           0        0.356293    0.224641    1.983376
     20          1           0        0.082826   -1.035028    3.199008
     21          6           0        2.967441    0.662705   -0.053804
     22          6           0        2.652045    1.973213   -0.775663
     23          6           0        3.013191    3.206338    0.053055
     24          1           0        2.423683    0.637053    0.900457
     25          1           0        4.037349    0.637716    0.195330
     26          1           0        1.583320    1.995111   -1.024588
     27          1           0        3.196467    1.995664   -1.728404
     28          1           0        4.082069    3.211822    0.289849
     29          1           0        2.459757    3.211266    0.997664
     30          1           0        2.779466    4.132102   -0.481916
     31          6           0        2.611952   -0.579025   -0.869561
     32          6           0        2.927348   -1.889533   -0.147703
     33          6           0        2.566202   -3.122657   -0.976420
     34          1           0        1.542045   -0.554036   -1.118696
     35          1           0        3.155710   -0.553372   -1.823823
     36          1           0        2.382926   -1.911984    0.805038
     37          1           0        3.996073   -1.911431    0.101222
     38          1           0        3.119637   -3.127586   -1.921029
     39          1           0        1.497324   -3.128143   -1.213214
     40          1           0        2.799927   -4.048421   -0.441449
 ---------------------------------------------------------------------

 SCF Done:  E(RHF) =  -470.733380211     A.U. after   11 cycles
 E2 =    -0.1583481060D+01 EUMP2 =    -0.47231686127060D+03

 The electronic state is 1-A.
 Alpha  occ. eigenvalues --  -11.21681 -11.21640 -11.21634 -11.21609 -11.21471
 Alpha  occ. eigenvalues --  -11.21431 -11.21408 -11.21367 -11.21146 -11.21098
 Alpha  occ. eigenvalues --  -11.21094 -11.21081  -1.08501  -1.08450  -1.03589
 Alpha  occ. eigenvalues --   -1.03549  -0.96050  -0.95991  -0.87063  -0.87011
 Alpha  occ. eigenvalues --   -0.79659  -0.79607  -0.78314  -0.78261  -0.65303
 Alpha  occ. eigenvalues --   -0.64945  -0.60987  -0.60941  -0.59408  -0.59363
 Alpha  occ. eigenvalues --   -0.57675  -0.57589  -0.55457  -0.55174  -0.52735
 Alpha  occ. eigenvalues --   -0.52688  -0.52504  -0.52389  -0.50075  -0.49876
 Alpha  occ. eigenvalues --   -0.48003  -0.47911  -0.46754  -0.46621  -0.45937
 Alpha  occ. eigenvalues --   -0.45800  -0.45734  -0.45555  -0.43844  -0.43805
 Alpha virt. eigenvalues --    0.18979   0.23178   0.23400   0.24927   0.25510
 Alpha virt. eigenvalues --    0.25999   0.27120   0.27948   0.28799   0.29290
 Alpha virt. eigenvalues --    0.30600   0.31427   0.31759   0.31837   0.32092

 Mulliken charges:
               1
     1  C   -0.298315
     2  C   -0.299719
     3  C   -0.475759
     4  H    0.149572
     5  H    0.149831
     6  H    0.151949
     7  H    0.152075
     8  H    0.155260
     9  H    0.155295
    10  H    0.160432
    11  C   -0.299055
    12  C   -0.299824
    13  C   -0.483165
    14  H    0.149213
    15  H    0.150088
    16  H    0.152055
    17  H    0.152518
    18  H    0.155662
    19  H    0.161487
    20  H    0.160614
    21  C   -0.305489
    22  C   -0.299914
    23  C   -0.475782
    24  H    0.156151
    25  H    0.150207
    26  H    0.151322
    27  H    0.152212
    28  H    0.155355
    29  H    0.155520
    30  H    0.160351
    31  C   -0.298392
    32  C   -0.301572
    33  C   -0.475673
    34  H    0.148806
    35  H    0.149935
    36  H    0.154374
    37  H    0.152083
    38  H    0.155237
    39  H    0.154596
    40  H    0.160458
 Sum of Mulliken charges =  -0.00000

 Dipole moment (field-independent basis, Debye):
    X=             -0.0032    Y=              0.0031    Z=              0.0190  Tot=              0.0195
 Quadrupole moment (field-independent basis, Debye-Ang):
   XX=            -84.0565   YY=            -85.8048   ZZ=            -84.7083
   XY=             -0.5332   XZ=             -1.5698   YZ=             -0.5266

 Normal termination of Gaussian 16 at Wed May  5 20:01:23 2021.
