 Gaussian 16, Revision A.03,
 Gaussian 16:  EM64L-G16RevA.03 25-Dec-2016

 -------------
 #p 6-31g* mp2
 -------------

 ------------------------------------------------------
 Input file generated by CHIRIPA (05-May-2021 14:51:12)
 ------------------------------------------------------
 Symbolic Z-matrix:
 Charge =  0 Multiplicity = 1

                         Standard orientation:
 ---------------------------------------------------------------------
 Center     Atomic      Atomic             Coordinates (Angstroms)
 Number     Number       Type             X           Y           Z
 ---------------------------------------------------------------------
      1          6           0        3.169533    1.134973   -0.275729
      2          6           0        2.417618    2.327499    0.316291
      3          6           0        2.652907    3.621182   -0.463976
      4          1           0        4.244331    1.361431   -0.297453
      5          1           0        2.858205    0.996017   -1.320316
      6          1           0        2.729249    2.463310    1.359871
      7          1           0        1.344504    2.098100    0.336785
      8          1           0        2.324727    3.509813   -1.502483
      9          1           0        3.717339    3.877098   -0.473584
     10          1           0        2.106087    4.460753   -0.023558
     11          6           0        2.944320   -0.165606    0.493362
     12          6           0        3.696236   -1.358133   -0.098659
     13          6           0        3.460947   -2.651816    0.681609
     14          1           0        3.255649   -0.026650    1.537948
     15          1           0        1.869523   -0.392065    0.515085
     16          1           0        4.769349   -1.128734   -0.119152
     17          1           0        3.384605   -1.493943   -1.142238
     18          1           0        2.396515   -2.907732    0.691216
     19          1           0        3.789127   -2.540447    1.720115
     20          1           0        4.007766   -3.491387    0.241190
     21          6           0       -2.299085   -0.566670   -0.059967
     22          6           0       -1.789750   -1.872236   -0.671571
     23          6           0       -0.271750   -2.021756   -0.566144
     24          1           0       -1.810148    0.280446   -0.560247
     25          1           0       -1.997801   -0.522421    0.995811
     26          1           0       -2.093096   -1.914643   -1.725515
     27          1           0       -2.280100   -2.716337   -0.169907
     28          1           0        0.045116   -2.005362    0.481676
     29          1           0        0.233182   -1.199112   -1.082770
     30          1           0        0.070805   -2.961943   -1.009497
     31          6           0       -3.814768   -0.402697   -0.157666
     32          6           0       -4.324104    0.902870    0.453939
     33          6           0       -5.842103    1.052389    0.348512
     34          1           0       -4.116052   -0.446945   -1.213443
     35          1           0       -4.303706   -1.249812    0.342613
     36          1           0       -3.833754    1.746971   -0.047724
     37          1           0       -4.020758    0.945277    1.507883
     38          1           0       -6.347036    0.229747    0.865138
     39          1           0       -6.158969    1.035995   -0.699309
     40          1           0       -6.184659    1.992578    0.791866
 ---------------------------------------------------------------------

 SCF Done:  E(RHF) =  -470.731985142     A.U. after   11 cycles
 E2 =    -0.1584220744D+01 EUMP2 =    -0.47231620588593D+03

 The electronic state is 1-A.
 Alpha  occ. eigenvalues --  -11.21703 -11.21649 -11.21545 -11.21492 -11.21458
 Alpha  occ. eigenvalues --  -11.21424 -11.21294 -11.21209 -11.21133 -11.21107
 Alpha  occ. eigenvalues --  -11.21036 -11.20901  -1.08520  -1.08312  -1.03636
 Alpha  occ. eigenvalues --   -1.03417  -0.96085  -0.95874  -0.87116  -0.86893
 Alpha  occ. eigenvalues --   -0.79749  -0.79465  -0.78361  -0.78083  -0.65147
 Alpha  occ. eigenvalues --   -0.64971  -0.61037  -0.60839  -0.59453  -0.59252
 Alpha  occ. eigenvalues --   -0.57702  -0.57481  -0.55464  -0.55092  -0.52773
 Alpha  occ. eigenvalues --   -0.52601  -0.52544  -0.52266  -0.50123  -0.49723
 Alpha  occ. eigenvalues --   -0.48152  -0.47756  -0.46759  -0.46456  -0.46052
 Alpha  occ. eigenvalues --   -0.45784  -0.45639  -0.45216  -0.43863  -0.43669
 Alpha virt. eigenvalues --    0.21008   0.22950   0.23689   0.24480   0.26163
 Alpha virt. eigenvalues --    0.26341   0.27024   0.27448   0.28063   0.29840
 Alpha virt. eigenvalues --    0.30741   0.31026   0.31757   0.32095   0.32247

 Mulliken charges:
               1
     1  C   -0.298191
     2  C   -0.299795
     3  C   -0.475556
     4  H    0.149347
     5  H    0.148154
     6  H    0.151915
     7  H    0.151797
     8  H    0.154663
     9  H    0.155198
    10  H    0.160004
    11  C   -0.306489
    12  C   -0.298259
    13  C   -0.481587
    14  H    0.148037
    15  H    0.159688
    16  H    0.151139
    17  H    0.151476
    18  H    0.162207
    19  H    0.153967
    20  H    0.159170
    21  C   -0.299114
    22  C   -0.300282
    23  C   -0.480746
    24  H    0.149264
    25  H    0.149946
    26  H    0.152231
    27  H    0.152541
    28  H    0.158397
    29  H    0.158060
    30  H    0.161719
    31  C   -0.298244
    32  C   -0.299754
    33  C   -0.475774
    34  H    0.149729
    35  H    0.149953
    36  H    0.152034
    37  H    0.152153
    38  H    0.155275
    39  H    0.155250
    40  H    0.160479
 Sum of Mulliken charges =  -0.00000

 Dipole moment (field-independent basis, Debye):
    X=             -0.1049    Y=             -0.0387    Z=             -0.0048  Tot=              0.1119
 Quadrupole moment (field-independent basis, Debye-Ang):
   XX=            -85.6217   YY=            -85.6493   ZZ=            -83.8420
   XY=              0.4779   XZ=              0.3698   YZ=              0.1967

 Normal termination of Gaussian 16 at Wed May  5 16:47:29 2021.
