 Gaussian 16, Revision A.03,
 Gaussian 16:  EM64L-G16RevA.03 25-Dec-2016

 -------------
 #p 6-31g* mp2
 -------------

 ------------------------------------------------------
 Input file generated by CHIRIPA (05-May-2021 14:57:21)
 ------------------------------------------------------
 Symbolic Z-matrix:
 Charge =  0 Multiplicity = 1

                         Standard orientation:
 ---------------------------------------------------------------------
 Center     Atomic      Atomic             Coordinates (Angstroms)
 Number     Number       Type             X           Y           Z
 ---------------------------------------------------------------------
      1          6           0       -2.265331    1.735120    0.650072
      2          6           0       -3.156138    2.000786   -0.395110
      3          6           0       -4.149735    1.077211   -0.733223
      4          6           0       -4.224163   -0.107223   -0.001877
      5          6           0       -3.351385   -0.400780    1.044724
      6          6           0       -2.365620    0.537297    1.365392
      7          1           0       -1.496522    2.458208    0.905951
      8          1           0       -3.080609    2.930200   -0.952362
      9          1           0       -4.852388    1.257408   -1.537727
     10          1           0       -3.451521   -1.336024    1.582039
     11          1           0       -1.675173    0.328308    2.177581
     12          7           0       -5.271894   -1.092646   -0.350588
     13          8           0       -5.316488   -2.128739    0.309079
     14          8           0       -6.028672   -0.810270   -1.276972
     15          6           0        1.812806    1.081593    0.193350
     16          6           0        1.910226   -0.307987    0.320226
     17          6           0        3.145455   -0.948505    0.184232
     18          6           0        4.267911   -0.165087   -0.079662
     19          6           0        4.203186    1.221170   -0.211539
     20          6           0        2.957579    1.840399   -0.071660
     21          1           0        0.849220    1.570894    0.300503
     22          1           0        1.022855   -0.899819    0.526024
     23          1           0        3.249407   -2.022696    0.277631
     24          1           0        5.105410    1.784435   -0.416827
     25          1           0        2.884912    2.919731   -0.170699
     26          7           0        5.581086   -0.831905   -0.225690
     27          8           0        6.555071   -0.119169   -0.458062
     28          8           0        5.611503   -2.054668   -0.105009
 ---------------------------------------------------------------------

 SCF Done:  E(RHF) =  -868.336692396     A.U. after   16 cycles
 E2 =    -0.2600421384D+01 EUMP2 =    -0.87093711377958D+03

 The electronic state is 1-A.
 Alpha  occ. eigenvalues --  -20.61504 -20.61497 -20.61157 -20.61151 -15.86563
 Alpha  occ. eigenvalues --  -15.86214 -11.32154 -11.31699 -11.28746 -11.28702
 Alpha  occ. eigenvalues --  -11.28632 -11.28278 -11.28264 -11.28126 -11.27886
 Alpha  occ. eigenvalues --  -11.27804 -11.27364 -11.27339  -1.60573  -1.60230
 Alpha  occ. eigenvalues --   -1.40120  -1.39779  -1.20356  -1.19891  -1.09740
 Alpha  occ. eigenvalues --   -1.09283  -1.05777  -1.05306  -0.96534  -0.96093
 Alpha  occ. eigenvalues --   -0.87179  -0.86709  -0.83348  -0.82916  -0.78326
 Alpha  occ. eigenvalues --   -0.77927  -0.72777  -0.72431  -0.71898  -0.71655
 Alpha  occ. eigenvalues --   -0.71554  -0.70944  -0.66014  -0.65795  -0.65549
 Alpha  occ. eigenvalues --   -0.65311  -0.63102  -0.62643  -0.56527  -0.55738
 Alpha  occ. eigenvalues --   -0.54086  -0.53871  -0.53635  -0.53403  -0.49554
 Alpha  occ. eigenvalues --   -0.49518  -0.49200  -0.49177  -0.45475  -0.45158
 Alpha  occ. eigenvalues --   -0.38390  -0.37910  -0.37372  -0.36903
 Alpha virt. eigenvalues --    0.04137   0.04601   0.10178   0.10733   0.15410
 Alpha virt. eigenvalues --    0.16042   0.18578   0.21974   0.25078   0.25677
 Alpha virt. eigenvalues --    0.27263   0.29283   0.29611   0.31378   0.32380

 Mulliken charges:
               1
     1  C   -0.176395
     2  C   -0.217461
     3  C   -0.169498
     4  C    0.160383
     5  C   -0.170642
     6  C   -0.223158
     7  H    0.220540
     8  H    0.226169
     9  H    0.279197
    10  H    0.278416
    11  H    0.224104
    12  N    0.487854
    13  O   -0.458019
    14  O   -0.457322
    15  C   -0.172878
    16  C   -0.221076
    17  C   -0.169970
    18  C    0.159128
    19  C   -0.170054
    20  C   -0.219325
    21  H    0.219141
    22  H    0.223698
    23  H    0.277734
    24  H    0.277033
    25  H    0.222443
    26  N    0.487902
    27  O   -0.459269
    28  O   -0.458676
 Sum of Mulliken charges =  -0.00000

 Dipole moment (field-independent basis, Debye):
    X=             -1.1209    Y=              5.6941    Z=              1.6463  Tot=              6.0323
 Quadrupole moment (field-independent basis, Debye-Ang):
   XX=           -173.2437   YY=           -101.0849   ZZ=           -103.3377
   XY=             -3.2861   XZ=             -1.5399   YZ=             -3.9738

 Normal termination of Gaussian 16 at Thu May  6 16:06:32 2021.
