 Gaussian 16, Revision A.03,
 Gaussian 16:  EM64L-G16RevA.03 25-Dec-2016

 -------------
 #p 6-31g* mp2
 -------------

 ------------------------------------------------------
 Input file generated by CHIRIPA (05-May-2021 14:51:13)
 ------------------------------------------------------
 Symbolic Z-matrix:
 Charge =  0 Multiplicity = 1

                         Standard orientation:
 ---------------------------------------------------------------------
 Center     Atomic      Atomic             Coordinates (Angstroms)
 Number     Number       Type             X           Y           Z
 ---------------------------------------------------------------------
      1          6           0        3.930102    0.156655   -0.176770
      2          6           0        5.341918   -0.429778   -0.206048
      3          6           0        6.309594    0.400638   -1.049736
      4          1           0        3.550136    0.232733   -1.204769
      5          1           0        3.974419    1.181632    0.216743
      6          1           0        5.294773   -1.453836   -0.598093
      7          1           0        5.718494   -0.504648    0.822155
      8          1           0        6.386256    1.419677   -0.656948
      9          1           0        5.960128    0.465096   -2.085264
     10          1           0        7.312914   -0.036578   -1.056867
     11          6           0        2.951189   -0.662376    0.662662
     12          6           0        1.539373   -0.075944    0.691940
     13          6           0        0.571697   -0.906360    1.535627
     14          1           0        2.906872   -1.687354    0.269149
     15          1           0        3.331155   -0.738455    1.690661
     16          1           0        1.162797   -0.001074   -0.336263
     17          1           0        1.586518    0.948114    1.083984
     18          1           0        0.921163   -0.970818    2.571156
     19          1           0        0.495035   -1.925399    1.142839
     20          1           0       -0.431623   -0.469144    1.542758
     21          6           0       -2.960742    0.837255   -0.350685
     22          6           0       -3.492211    2.165667    0.188618
     23          6           0       -2.520894    3.325239   -0.034384
     24          1           0       -2.000187    0.610831    0.132028
     25          1           0       -2.753785    0.942039   -1.424735
     26          1           0       -3.699409    2.058003    1.261042
     27          1           0       -4.451705    2.388859   -0.295295
     28          1           0       -2.322107    3.461302   -1.102360
     29          1           0       -1.565536    3.128565    0.462820
     30          1           0       -2.920764    4.265152    0.358718
     31          6           0       -3.920549   -0.331533   -0.135207
     32          6           0       -3.389080   -1.659945   -0.674509
     33          6           0       -4.360397   -2.819517   -0.451507
     34          1           0       -4.127506   -0.436317    0.938845
     35          1           0       -4.881104   -0.105110   -0.617920
     36          1           0       -2.429586   -1.883138   -0.190597
     37          1           0       -3.181882   -1.552281   -1.746933
     38          1           0       -5.315755   -2.622843   -0.948711
     39          1           0       -4.559184   -2.955580    0.616469
     40          1           0       -3.960528   -3.759429   -0.844608
 ---------------------------------------------------------------------

 SCF Done:  E(RHF) =  -470.733278532     A.U. after   11 cycles
 E2 =    -0.1583044591D+01 EUMP2 =    -0.47231632312278D+03

 The electronic state is 1-A.
 Alpha  occ. eigenvalues --  -11.21648 -11.21614 -11.21590 -11.21562 -11.21431
 Alpha  occ. eigenvalues --  -11.21381 -11.21369 -11.21321 -11.21141 -11.21078
 Alpha  occ. eigenvalues --  -11.21059 -11.21045  -1.08463  -1.08409  -1.03566
 Alpha  occ. eigenvalues --   -1.03508  -0.96028  -0.95952  -0.87039  -0.86974
 Alpha  occ. eigenvalues --   -0.79630  -0.79567  -0.78273  -0.78225  -0.65114
 Alpha  occ. eigenvalues --   -0.65047  -0.60974  -0.60892  -0.59407  -0.59325
 Alpha  occ. eigenvalues --   -0.57701  -0.57513  -0.55303  -0.55248  -0.52758
 Alpha  occ. eigenvalues --   -0.52636  -0.52484  -0.52335  -0.49971  -0.49886
 Alpha  occ. eigenvalues --   -0.47956  -0.47884  -0.46680  -0.46574  -0.45822
 Alpha  occ. eigenvalues --   -0.45750  -0.45723  -0.45666  -0.43800  -0.43749
 Alpha virt. eigenvalues --    0.20448   0.23083   0.24041   0.24232   0.26267
 Alpha virt. eigenvalues --    0.26564   0.27157   0.27371   0.27845   0.29552
 Alpha virt. eigenvalues --    0.30444   0.31514   0.31752   0.31967   0.32165

 Mulliken charges:
               1
     1  C   -0.298370
     2  C   -0.299702
     3  C   -0.475732
     4  H    0.149903
     5  H    0.149637
     6  H    0.151965
     7  H    0.151939
     8  H    0.155240
     9  H    0.155249
    10  H    0.160291
    11  C   -0.298393
    12  C   -0.300542
    13  C   -0.481955
    14  H    0.149738
    15  H    0.149737
    16  H    0.153678
    17  H    0.151688
    18  H    0.155585
    19  H    0.155933
    20  H    0.164511
    21  C   -0.307052
    22  C   -0.299220
    23  C   -0.475765
    24  H    0.157844
    25  H    0.149492
    26  H    0.151645
    27  H    0.152007
    28  H    0.155222
    29  H    0.155268
    30  H    0.160151
    31  C   -0.297696
    32  C   -0.302574
    33  C   -0.475595
    34  H    0.149228
    35  H    0.149676
    36  H    0.155157
    37  H    0.151470
    38  H    0.155023
    39  H    0.155300
    40  H    0.160021
 Sum of Mulliken charges =  -0.00000

 Dipole moment (field-independent basis, Debye):
    X=              0.0316    Y=             -0.0023    Z=             -0.0003  Tot=              0.0317
 Quadrupole moment (field-independent basis, Debye-Ang):
   XX=            -85.6204   YY=            -85.6002   ZZ=            -83.6073
   XY=             -0.9113   XZ=              1.1101   YZ=              0.6449

 Normal termination of Gaussian 16 at Wed May  5 23:14:06 2021.
