 Gaussian 16, Revision A.03,
 Gaussian 16:  EM64L-G16RevA.03 25-Dec-2016

 -------------
 #p 6-31g* mp2
 -------------

 ------------------------------------------------------
 Input file generated by CHIRIPA (05-May-2021 14:57:26)
 ------------------------------------------------------
 Symbolic Z-matrix:
 Charge =  0 Multiplicity = 1

                         Standard orientation:
 ---------------------------------------------------------------------
 Center     Atomic      Atomic             Coordinates (Angstroms)
 Number     Number       Type             X           Y           Z
 ---------------------------------------------------------------------
      1          6           0       -3.370362   -1.883329   -0.583348
      2          6           0       -3.253262   -0.867198   -1.537437
      3          6           0       -2.823958    0.410183   -1.165222
      4          6           0       -2.518730    0.637513    0.175840
      5          6           0       -2.625314   -0.354125    1.149792
      6          6           0       -3.056567   -1.624007    0.754862
      7          1           0       -3.704613   -2.872716   -0.881316
      8          1           0       -3.496274   -1.065720   -2.577427
      9          1           0       -2.724404    1.215154   -1.883225
     10          1           0       -2.375843   -0.125979    2.178933
     11          1           0       -3.146576   -2.411228    1.497982
     12          7           0       -2.063213    1.985850    0.581911
     13          8           0       -1.800407    2.160589    1.769781
     14          8           0       -1.977611    2.842405   -0.295370
     15          6           0        0.790923   -2.165886    0.116826
     16          6           0        2.007018   -2.322618    0.789930
     17          6           0        3.013062   -1.359005    0.672141
     18          6           0        2.768100   -0.246050   -0.130738
     19          6           0        1.567063   -0.061444   -0.813907
     20          6           0        0.575208   -1.037789   -0.681537
     21          1           0        0.014915   -2.919390    0.213991
     22          1           0        2.177325   -3.197696    1.410638
     23          1           0        3.963864   -1.455237    1.182173
     24          1           0        1.426568    0.821594   -1.425399
     25          1           0       -0.368248   -0.913438   -1.205439
     26          7           0        3.825644    0.780823   -0.263154
     27          8           0        3.585117    1.752289   -0.976623
     28          8           0        4.875048    0.594776    0.349034
 ---------------------------------------------------------------------

 SCF Done:  E(RHF) =  -868.335857847     A.U. after   16 cycles
 E2 =    -0.2604683799D+01 EUMP2 =    -0.87094054164611D+03

 The electronic state is 1-A.
 Alpha  occ. eigenvalues --  -20.61468 -20.61456 -20.60468 -20.60446 -15.86530
 Alpha  occ. eigenvalues --  -15.85514 -11.32216 -11.30972 -11.28832 -11.28822
 Alpha  occ. eigenvalues --  -11.28692 -11.27952 -11.27942 -11.27561 -11.27488
 Alpha  occ. eigenvalues --  -11.27325 -11.26641 -11.26437  -1.60533  -1.59532
 Alpha  occ. eigenvalues --   -1.40077  -1.39083  -1.20504  -1.19146  -1.09803
 Alpha  occ. eigenvalues --   -1.08538  -1.05929  -1.04567  -0.96565  -0.95359
 Alpha  occ. eigenvalues --   -0.87276  -0.85966  -0.83378  -0.82194  -0.78363
 Alpha  occ. eigenvalues --   -0.77224  -0.72736  -0.71876  -0.71734  -0.71530
 Alpha  occ. eigenvalues --   -0.70852  -0.70295  -0.66098  -0.65872  -0.64802
 Alpha  occ. eigenvalues --   -0.64658  -0.63215  -0.61976  -0.56376  -0.55138
 Alpha  occ. eigenvalues --   -0.54454  -0.53960  -0.52875  -0.52314  -0.49520
 Alpha  occ. eigenvalues --   -0.49474  -0.48495  -0.48482  -0.45407  -0.44469
 Alpha  occ. eigenvalues --   -0.38589  -0.37757  -0.36944  -0.36075
 Alpha virt. eigenvalues --    0.04085   0.05352   0.09991   0.11467   0.15466
 Alpha virt. eigenvalues --    0.16861   0.20281   0.21823   0.26123   0.27259
 Alpha virt. eigenvalues --    0.27806   0.28430   0.30072   0.31279   0.31809

 Mulliken charges:
               1
     1  C   -0.175950
     2  C   -0.223102
     3  C   -0.186101
     4  C    0.165300
     5  C   -0.165702
     6  C   -0.222946
     7  H    0.229064
     8  H    0.228617
     9  H    0.280050
    10  H    0.280608
    11  H    0.226017
    12  N    0.488006
    13  O   -0.454890
    14  O   -0.457571
    15  C   -0.174251
    16  C   -0.218743
    17  C   -0.171157
    18  C    0.160687
    19  C   -0.175887
    20  C   -0.224096
    21  H    0.217804
    22  H    0.220457
    23  H    0.275152
    24  H    0.278711
    25  H    0.230890
    26  N    0.488146
    27  O   -0.457505
    28  O   -0.461604
 Sum of Mulliken charges =  -0.00000

 Dipole moment (field-independent basis, Debye):
    X=             -5.5739    Y=             -8.0937    Z=             -0.8645  Tot=              9.8653
 Quadrupole moment (field-independent basis, Debye-Ang):
   XX=           -116.2540   YY=           -108.4098   ZZ=            -99.4898
   XY=              0.1095   XZ=              7.4902   YZ=             -4.9500

 Normal termination of Gaussian 16 at Wed May  5 16:32:37 2021.
