 Gaussian 16, Revision A.03,
 Gaussian 16:  EM64L-G16RevA.03 25-Dec-2016

 -------------
 #p 6-31g* mp2
 -------------

 ------------------------------------------------------
 Input file generated by CHIRIPA (05-May-2021 14:55:19)
 ------------------------------------------------------
 Symbolic Z-matrix:
 Charge =  0 Multiplicity = 1

                         Standard orientation:
 ---------------------------------------------------------------------
 Center     Atomic      Atomic             Coordinates (Angstroms)
 Number     Number       Type             X           Y           Z
 ---------------------------------------------------------------------
      1          6           0       -1.037396    2.671791    0.449693
      2          6           0       -2.164095    2.184762    1.120419
      3          6           0       -2.768184    0.989708    0.718585
      4          6           0       -2.216797    0.304279   -0.362826
      5          6           0       -1.095104    0.763675   -1.051338
      6          6           0       -0.507430    1.960946   -0.632137
      7          1           0       -0.574501    3.600999    0.768593
      8          1           0       -2.577834    2.734704    1.960912
      9          1           0       -3.641199    0.589863    1.219969
     10          1           0       -0.705443    0.193242   -1.885717
     11          1           0        0.367499    2.336789   -1.154905
     12          7           0       -2.847630   -0.962045   -0.797423
     13          8           0       -2.342630   -1.547147   -1.753073
     14          8           0       -3.835133   -1.345509   -0.174180
     15          6           0        2.207573   -0.737536    0.947216
     16          6           0        1.068892   -1.708093    0.631929
     17          6           0        0.083142   -1.859398    1.790894
     18          1           0        2.741631   -1.086925    1.841449
     19          1           0        1.783799    0.244279    1.199905
     20          1           0        1.494746   -2.687414    0.378563
     21          1           0        0.537601   -1.356456   -0.261770
     22          1           0       -0.368941   -0.894074    2.040632
     23          1           0        0.593642   -2.232593    2.684603
     24          1           0       -0.722664   -2.557668    1.544000
     25          6           0        3.201268   -0.575705   -0.201746
     26          6           0        4.339949    0.394854    0.113541
     27          6           0        5.325699    0.546158   -1.045424
     28          1           0        3.625042   -1.557519   -0.454435
     29          1           0        2.667209   -0.226316   -1.095979
     30          1           0        4.871240    0.043217    1.007241
     31          1           0        3.914095    1.374174    0.366907
     32          1           0        4.815199    0.919353   -1.939133
     33          1           0        5.777781   -0.419167   -1.295162
     34          1           0        6.131505    1.244427   -0.798531
 ---------------------------------------------------------------------

 SCF Done:  E(RHF) =  -669.534845256     A.U. after   15 cycles
 E2 =    -0.2095498844D+01 EUMP2 =    -0.67163034410040D+03

 The electronic state is 1-A.
 Alpha  occ. eigenvalues --  -20.60876 -20.60861 -15.85912 -11.31280 -11.27879
 Alpha  occ. eigenvalues --  -11.27870 -11.27635 -11.26903 -11.26883 -11.21971
 Alpha  occ. eigenvalues --  -11.21674 -11.21478 -11.21425 -11.21415 -11.20874
 Alpha  occ. eigenvalues --   -1.59936  -1.39490  -1.19492  -1.08872  -1.08601
 Alpha  occ. eigenvalues --   -1.04902  -1.03646  -0.96109  -0.95703  -0.87124
 Alpha  occ. eigenvalues --   -0.86293  -0.82534  -0.79732  -0.78402  -0.77572
 Alpha  occ. eigenvalues --   -0.72133  -0.71268  -0.70600  -0.65280  -0.65138
 Alpha  occ. eigenvalues --   -0.64893  -0.62247  -0.61099  -0.59473  -0.57697
 Alpha  occ. eigenvalues --   -0.55474  -0.55382  -0.53137  -0.52989  -0.52770
 Alpha  occ. eigenvalues --   -0.52500  -0.50079  -0.48901  -0.48887  -0.48020
 Alpha  occ. eigenvalues --   -0.46815  -0.45960  -0.45864  -0.44836  -0.43900
 Alpha  occ. eigenvalues --   -0.37420  -0.36426
 Alpha virt. eigenvalues --    0.04923   0.11068   0.16390   0.20319   0.22913
 Alpha virt. eigenvalues --    0.23998   0.25427   0.26774   0.27391   0.28169
 Alpha virt. eigenvalues --    0.29500   0.30162   0.31415   0.31630   0.31940

 Mulliken charges:
               1
     1  C   -0.171611
     2  C   -0.218799
     3  C   -0.171487
     4  C    0.165473
     5  C   -0.174279
     6  C   -0.217568
     7  H    0.226448
     8  H    0.224245
     9  H    0.276454
    10  H    0.276351
    11  H    0.224479
    12  N    0.488742
    13  O   -0.460733
    14  O   -0.459707
    15  C   -0.299971
    16  C   -0.300810
    17  C   -0.484360
    18  H    0.149869
    19  H    0.147114
    20  H    0.154644
    21  H    0.153559
    22  H    0.154528
    23  H    0.154522
    24  H    0.168266
    25  C   -0.296753
    26  C   -0.298994
    27  C   -0.475297
    28  H    0.153125
    29  H    0.141434
    30  H    0.154084
    31  H    0.146328
    32  H    0.152481
    33  H    0.157784
    34  H    0.160439
 Sum of Mulliken charges =  -0.00000

 Dipole moment (field-independent basis, Debye):
    X=              2.1097    Y=              4.4132    Z=              1.5362  Tot=              5.1271
 Quadrupole moment (field-independent basis, Debye-Ang):
   XX=           -102.8750   YY=            -91.8846   ZZ=            -94.1693
   XY=            -10.4358   XZ=             -6.3066   YZ=             -0.8371

 Normal termination of Gaussian 16 at Thu May  6 19:04:47 2021.
