 Gaussian 16, Revision A.03,
 Gaussian 16:  EM64L-G16RevA.03 25-Dec-2016

 -------------
 #p 6-31g* mp2
 -------------

 ------------------------------------------------------
 Input file generated by CHIRIPA (05-May-2021 14:57:26)
 ------------------------------------------------------
 Symbolic Z-matrix:
 Charge =  0 Multiplicity = 1

                         Standard orientation:
 ---------------------------------------------------------------------
 Center     Atomic      Atomic             Coordinates (Angstroms)
 Number     Number       Type             X           Y           Z
 ---------------------------------------------------------------------
      1          6           0       -2.891069   -2.327347    0.250816
      2          6           0       -2.794539   -1.545848    1.406870
      3          6           0       -2.770177   -0.150664    1.320754
      4          6           0       -2.844513    0.432445    0.056733
      5          6           0       -2.941362   -0.318961   -1.113437
      6          6           0       -2.964044   -1.712494   -1.003437
      7          1           0       -2.909342   -3.410519    0.326990
      8          1           0       -2.737716   -2.020625    2.382269
      9          1           0       -2.696041    0.478366    2.199528
     10          1           0       -2.996418    0.183055   -2.071752
     11          1           0       -3.039073   -2.316899   -1.902943
     12          7           0       -2.819612    1.908590   -0.047077
     13          8           0       -2.886443    2.398049   -1.172510
     14          8           0       -2.733735    2.548181    0.998956
     15          6           0        4.846699    1.327369    0.197706
     16          6           0        3.573906    1.874326    0.004420
     17          6           0        2.459680    1.043630   -0.147210
     18          6           0        2.655451   -0.335771   -0.100094
     19          6           0        3.910812   -0.910949    0.091023
     20          6           0        5.010800   -0.061075    0.240316
     21          1           0        5.706726    1.980122    0.314587
     22          1           0        3.443479    2.952245   -0.029103
     23          1           0        1.463075    1.440389   -0.298131
     24          1           0        4.009378   -1.989313    0.119897
     25          1           0        5.998088   -0.488644    0.390290
     26          7           0        1.483406   -1.225343   -0.259381
     27          8           0        1.682433   -2.437354   -0.214037
     28          8           0        0.387923   -0.693736   -0.426558
 ---------------------------------------------------------------------

 SCF Done:  E(RHF) =  -868.338719706     A.U. after   16 cycles
 E2 =    -0.2600618603D+01 EUMP2 =    -0.87093933830874D+03

 The electronic state is 1-A.
 Alpha  occ. eigenvalues --  -20.61018 -20.60991 -20.59922 -20.59912 -15.86037
 Alpha  occ. eigenvalues --  -15.84953 -11.31233 -11.29815 -11.27814 -11.27735
 Alpha  occ. eigenvalues --  -11.27500 -11.26790 -11.26715 -11.26436 -11.26366
 Alpha  occ. eigenvalues --  -11.26068 -11.25366 -11.25285  -1.60082  -1.59007
 Alpha  occ. eigenvalues --   -1.39641  -1.38574  -1.19394  -1.17950  -1.08824
 Alpha  occ. eigenvalues --   -1.07461  -1.04763  -1.03342  -0.95688  -0.94387
 Alpha  occ. eigenvalues --   -0.86173  -0.84796  -0.82526  -0.81274  -0.77591
 Alpha  occ. eigenvalues --   -0.76364  -0.72304  -0.71398  -0.71203  -0.70502
 Alpha  occ. eigenvalues --   -0.70300  -0.69167  -0.65049  -0.64761  -0.63675
 Alpha  occ. eigenvalues --   -0.63431  -0.62106  -0.60768  -0.55282  -0.53912
 Alpha  occ. eigenvalues --   -0.53114  -0.52852  -0.51649  -0.51515  -0.49042
 Alpha  occ. eigenvalues --   -0.48889  -0.47972  -0.47910  -0.45086  -0.44094
 Alpha  occ. eigenvalues --   -0.37377  -0.36360  -0.35843  -0.34839
 Alpha virt. eigenvalues --    0.04919   0.06174   0.11293   0.12765   0.16445
 Alpha virt. eigenvalues --    0.17803   0.21458   0.22646   0.27395   0.28293
 Alpha virt. eigenvalues --    0.28490   0.29511   0.30996   0.32085   0.32560

 Mulliken charges:
               1
     1  C   -0.160483
     2  C   -0.215243
     3  C   -0.169806
     4  C    0.164973
     5  C   -0.162193
     6  C   -0.207208
     7  H    0.222469
     8  H    0.217303
     9  H    0.268137
    10  H    0.269336
    11  H    0.218787
    12  N    0.486186
    13  O   -0.465698
    14  O   -0.467769
    15  C   -0.170498
    16  C   -0.218888
    17  C   -0.170646
    18  C    0.156828
    19  C   -0.171457
    20  C   -0.218796
    21  H    0.226378
    22  H    0.227540
    23  H    0.279416
    24  H    0.273901
    25  H    0.223051
    26  N    0.491797
    27  O   -0.464688
    28  O   -0.462730
 Sum of Mulliken charges =  -0.00000

 Dipole moment (field-independent basis, Debye):
    X=              4.2623    Y=             -2.1963    Z=              0.8253  Tot=              4.8654
 Quadrupole moment (field-independent basis, Debye-Ang):
   XX=            -82.5096   YY=           -109.2866   ZZ=           -101.0724
   XY=             20.1877   XZ=              1.0745   YZ=             -0.6535

 Normal termination of Gaussian 16 at Thu May  6 05:12:37 2021.
