 Gaussian 16, Revision A.03,
 Gaussian 16:  EM64L-G16RevA.03 25-Dec-2016

 -------------
 #p 6-31g* mp2
 -------------

 ------------------------------------------------------
 Input file generated by CHIRIPA (05-May-2021 14:57:22)
 ------------------------------------------------------
 Symbolic Z-matrix:
 Charge =  0 Multiplicity = 1

                         Standard orientation:
 ---------------------------------------------------------------------
 Center     Atomic      Atomic             Coordinates (Angstroms)
 Number     Number       Type             X           Y           Z
 ---------------------------------------------------------------------
      1          6           0        0.957849   -1.209042    0.900292
      2          6           0        1.687225   -1.848924   -0.107221
      3          6           0        2.934940   -1.357114   -0.502035
      4          6           0        3.425335   -0.218157    0.134816
      5          6           0        2.722561    0.441652    1.141818
      6          6           0        1.476930   -0.067808    1.520502
      7          1           0       -0.010596   -1.597947    1.200728
      8          1           0        1.286577   -2.735399   -0.590635
      9          1           0        3.520706   -1.832833   -1.279201
     10          1           0        3.148045    1.323465    1.605269
     11          1           0        0.912700    0.431194    2.303245
     12          7           0        4.745132    0.311843   -0.274618
     13          8           0        5.155137    1.316844    0.302016
     14          8           0        5.344593   -0.287779   -1.164413
     15          6           0       -4.585087   -1.792230    0.059515
     16          6           0       -3.245129   -1.878948   -0.332294
     17          6           0       -2.472512   -0.723249   -0.480522
     18          6           0       -3.074667    0.508309   -0.227607
     19          6           0       -4.407194    0.627426    0.164148
     20          6           0       -5.160828   -0.541526    0.306051
     21          1           0       -5.177901   -2.695153    0.172205
     22          1           0       -2.795363   -2.848916   -0.524430
     23          1           0       -1.432951   -0.761512   -0.782624
     24          1           0       -4.827740    1.608519    0.348579
     25          1           0       -6.201225   -0.471154    0.610462
     26          7           0       -2.266780    1.738810   -0.381181
     27          8           0       -2.820752    2.811842   -0.152367
     28          8           0       -1.094883    1.606946   -0.727458
 ---------------------------------------------------------------------

 SCF Done:  E(RHF) =  -868.336594938     A.U. after   16 cycles
 E2 =    -0.2601762587D+01 EUMP2 =    -0.87093835752493D+03

 The electronic state is 1-A.
 Alpha  occ. eigenvalues --  -20.61399 -20.61381 -20.60453 -20.60437 -15.86442
 Alpha  occ. eigenvalues --  -15.85502 -11.31949 -11.30903 -11.28525 -11.28503
 Alpha  occ. eigenvalues --  -11.28277 -11.27626 -11.27536 -11.27518 -11.27416
 Alpha  occ. eigenvalues --  -11.27319 -11.26669 -11.26477  -1.60471  -1.59519
 Alpha  occ. eigenvalues --   -1.40016  -1.39072  -1.20140  -1.19091  -1.09497
 Alpha  occ. eigenvalues --   -1.08520  -1.05569  -1.04502  -0.96312  -0.95341
 Alpha  occ. eigenvalues --   -0.86945  -0.85931  -0.83141  -0.82169  -0.78176
 Alpha  occ. eigenvalues --   -0.77180  -0.72653  -0.71815  -0.71728  -0.71273
 Alpha  occ. eigenvalues --   -0.70833  -0.70257  -0.65780  -0.65556  -0.64777
 Alpha  occ. eigenvalues --   -0.64558  -0.62901  -0.61861  -0.56041  -0.55148
 Alpha  occ. eigenvalues --   -0.53849  -0.53663  -0.52749  -0.52632  -0.49429
 Alpha  occ. eigenvalues --   -0.49402  -0.48490  -0.48474  -0.45392  -0.44470
 Alpha  occ. eigenvalues --   -0.38114  -0.37303  -0.36954  -0.36047
 Alpha virt. eigenvalues --    0.04298   0.05350   0.10447   0.11486   0.15736
 Alpha virt. eigenvalues --    0.16779   0.20200   0.21858   0.26071   0.27458
 Alpha virt. eigenvalues --    0.27812   0.29030   0.30394   0.31020   0.31971

 Mulliken charges:
               1
     1  C   -0.175200
     2  C   -0.221698
     3  C   -0.168926
     4  C    0.160141
     5  C   -0.166775
     6  C   -0.207185
     7  H    0.220765
     8  H    0.215833
     9  H    0.274581
    10  H    0.277522
    11  H    0.224836
    12  N    0.488177
    13  O   -0.458884
    14  O   -0.461781
    15  C   -0.170036
    16  C   -0.222402
    17  C   -0.181120
    18  C    0.156143
    19  C   -0.170137
    20  C   -0.218307
    21  H    0.227830
    22  H    0.220956
    23  H    0.281012
    24  H    0.278009
    25  H    0.226303
    26  N    0.486308
    27  O   -0.458599
    28  O   -0.457365
 Sum of Mulliken charges =  -0.00000

 Dipole moment (field-independent basis, Debye):
    X=             -7.5433    Y=             -5.9061    Z=              2.0379  Tot=              9.7947
 Quadrupole moment (field-independent basis, Debye-Ang):
   XX=           -115.8656   YY=           -105.2620   ZZ=           -103.2661
   XY=              3.9998   XZ=              1.8818   YZ=              4.4812

 Normal termination of Gaussian 16 at Thu May  6 12:52:09 2021.
