 Gaussian 16, Revision A.03,
 Gaussian 16:  EM64L-G16RevA.03 25-Dec-2016

 -------------
 #p 6-31g* mp2
 -------------

 ------------------------------------------------------
 Input file generated by CHIRIPA (05-May-2021 14:53:17)
 ------------------------------------------------------
 Symbolic Z-matrix:
 Charge =  0 Multiplicity = 1

                         Standard orientation:
 ---------------------------------------------------------------------
 Center     Atomic      Atomic             Coordinates (Angstroms)
 Number     Number       Type             X           Y           Z
 ---------------------------------------------------------------------
      1          6           0        2.542657    1.062023    0.205450
      2          6           0        1.654046    1.832255   -0.771842
      3          6           0        0.444556    2.473938   -0.091276
      4          1           0        1.944286    0.285426    0.701227
      5          1           0        2.884760    1.744908    0.995405
      6          1           0        1.314844    1.148442   -1.560484
      7          1           0        2.254648    2.606984   -1.265490
      8          1           0        0.766636    3.177715    0.683038
      9          1           0       -0.178508    1.710885    0.386367
     10          1           0       -0.176974    3.019421   -0.808221
     11          6           0        3.755948    0.414830   -0.459976
     12          6           0        4.644558   -0.355402    0.517316
     13          6           0        5.854049   -0.997085   -0.163250
     14          1           0        3.413844   -0.268055   -1.249931
     15          1           0        4.354319    1.191427   -0.955752
     16          1           0        4.043956   -1.130131    1.010964
     17          1           0        4.983760    0.328411    1.305959
     18          1           0        6.477113   -0.234032   -0.640893
     19          1           0        5.531969   -1.700862   -0.937564
     20          1           0        6.475578   -1.542568    0.553695
     21          6           0       -0.375743   -1.983935    0.300422
     22          6           0       -1.174833   -2.076097   -0.843903
     23          6           0       -2.332093   -1.301259   -0.966061
     24          6           0       -2.661928   -0.440868    0.079992
     25          6           0       -1.886265   -0.326638    1.232636
     26          6           0       -0.733378   -1.111038    1.333219
     27          1           0        0.521546   -2.589561    0.386937
     28          1           0       -0.899538   -2.753140   -1.647564
     29          1           0       -2.968801   -1.352836   -1.840910
     30          1           0       -2.186505    0.357335    2.017146
     31          1           0       -0.114689   -1.037391    2.223076
     32          7           0       -3.884753    0.384480   -0.037910
     33          8           0       -4.153546    1.134834    0.897694
     34          8           0       -4.551256    0.265404   -1.063694
 ---------------------------------------------------------------------

 SCF Done:  E(RHF) =  -669.534497976     A.U. after   15 cycles
 E2 =    -0.2094371255D+01 EUMP2 =    -0.67162886923172D+03

 The electronic state is 1-A.
 Alpha  occ. eigenvalues --  -20.60837 -20.60831 -15.85893 -11.31315 -11.27892
 Alpha  occ. eigenvalues --  -11.27870 -11.27653 -11.26920 -11.26907 -11.22216
 Alpha  occ. eigenvalues --  -11.21889 -11.21813 -11.21751 -11.21614 -11.21015
 Alpha  occ. eigenvalues --   -1.59911  -1.39463  -1.19513  -1.08910  -1.08836
 Alpha  occ. eigenvalues --   -1.04930  -1.03886  -0.96333  -0.95708  -0.87350
 Alpha  occ. eigenvalues --   -0.86305  -0.82538  -0.79977  -0.78685  -0.77571
 Alpha  occ. eigenvalues --   -0.72111  -0.71236  -0.70604  -0.65530  -0.65154
 Alpha  occ. eigenvalues --   -0.64899  -0.62258  -0.61322  -0.59712  -0.57951
 Alpha  occ. eigenvalues --   -0.55685  -0.55404  -0.53300  -0.53014  -0.52989
 Alpha  occ. eigenvalues --   -0.52690  -0.50279  -0.48874  -0.48862  -0.48271
 Alpha  occ. eigenvalues --   -0.47027  -0.46208  -0.46143  -0.44852  -0.44154
 Alpha  occ. eigenvalues --   -0.37454  -0.36410
 Alpha virt. eigenvalues --    0.04933   0.10967   0.16379   0.20350   0.22781
 Alpha virt. eigenvalues --    0.23977   0.25640   0.26616   0.27200   0.28041
 Alpha virt. eigenvalues --    0.29258   0.30475   0.31256   0.31553   0.31812

 Mulliken charges:
               1
     1  C   -0.300688
     2  C   -0.297745
     3  C   -0.483141
     4  H    0.144533
     5  H    0.149687
     6  H    0.151186
     7  H    0.152523
     8  H    0.153559
     9  H    0.160518
    10  H    0.163629
    11  C   -0.298196
    12  C   -0.298268
    13  C   -0.475592
    14  H    0.146732
    15  H    0.152493
    16  H    0.143816
    17  H    0.153993
    18  H    0.157737
    19  H    0.153782
    20  H    0.160899
    21  C   -0.170259
    22  C   -0.218576
    23  C   -0.170930
    24  C    0.163749
    25  C   -0.178491
    26  C   -0.215289
    27  H    0.226653
    28  H    0.224195
    29  H    0.276319
    30  H    0.277348
    31  H    0.225591
    32  N    0.488194
    33  O   -0.459773
    34  O   -0.460187
 Sum of Mulliken charges =  -0.00000

 Dipole moment (field-independent basis, Debye):
    X=              4.2082    Y=             -2.9155    Z=              0.3928  Tot=              5.1345
 Quadrupole moment (field-independent basis, Debye-Ang):
   XX=           -118.6343   YY=            -91.5579   ZZ=            -90.8606
   XY=              7.3359   XZ=              0.4949   YZ=              1.6176

 Normal termination of Gaussian 16 at Thu May  6 05:58:40 2021.
