 Gaussian 16, Revision A.03,
 Gaussian 16:  EM64L-G16RevA.03 25-Dec-2016

 -------------
 #p 6-31g* mp2
 -------------

 ------------------------------------------------------
 Input file generated by CHIRIPA (05-May-2021 14:51:14)
 ------------------------------------------------------
 Symbolic Z-matrix:
 Charge =  0 Multiplicity = 1

                         Standard orientation:
 ---------------------------------------------------------------------
 Center     Atomic      Atomic             Coordinates (Angstroms)
 Number     Number       Type             X           Y           Z
 ---------------------------------------------------------------------
      1          6           0        5.277603   -0.432983   -0.323093
      2          6           0        6.420000    0.376572    0.291345
      3          6           0        7.756060    0.143597   -0.414673
      4          1           0        5.532222   -1.501036   -0.285967
      5          1           0        5.182261   -0.171148   -1.385989
      6          1           0        6.512259    0.114303    1.353098
      7          1           0        6.162548    1.442807    0.252926
      8          1           0        7.687533    0.423289   -1.470930
      9          1           0        8.039231   -0.912764   -0.364507
     10          1           0        8.558732    0.731997    0.040699
     11          6           0        3.935465   -0.210747    0.371891
     12          6           0        2.793068   -1.020302   -0.242548
     13          6           0        1.457009   -0.787327    0.463471
     14          1           0        4.030808   -0.472582    1.434787
     15          1           0        3.680847    0.857306    0.334765
     16          1           0        3.050520   -2.086537   -0.204128
     17          1           0        2.700809   -0.758033   -1.304301
     18          1           0        1.173838    0.269034    0.413304
     19          1           0        1.525536   -1.067019    1.519728
     20          1           0        0.654337   -1.375727    0.008099
     21          6           0       -3.916586    0.414938    0.289833
     22          6           0       -3.087626    1.510787   -0.380931
     23          6           0       -1.709917    1.685067    0.258863
     24          1           0       -4.033301    0.653031    1.355964
     25          1           0       -3.365443   -0.534356    0.240079
     26          1           0       -3.640780    2.457444   -0.331150
     27          1           0       -2.973035    1.270155   -1.445629
     28          1           0       -1.135584    0.755120    0.196073
     29          1           0       -1.807124    1.949154    1.316885
     30          1           0       -1.134250    2.473419   -0.236079
     31          6           0       -5.296482    0.228792   -0.338631
     32          6           0       -6.125442   -0.867056    0.332134
     33          6           0       -7.503152   -1.041337   -0.307661
     34          1           0       -5.847626    1.178087   -0.288876
     35          1           0       -5.179769   -0.009301   -1.404761
     36          1           0       -6.240035   -0.626425    1.396832
     37          1           0       -5.572289   -1.813713    0.282353
     38          1           0       -7.405945   -1.305425   -1.365682
     39          1           0       -8.077485   -0.111391   -0.244871
     40          1           0       -8.078819   -1.829689    0.187281
 ---------------------------------------------------------------------

 SCF Done:  E(RHF) =  -470.732910826     A.U. after   11 cycles
 E2 =    -0.1582424561D+01 EUMP2 =    -0.47231533538753D+03

 The electronic state is 1-A.
 Alpha  occ. eigenvalues --  -11.21596 -11.21594 -11.21578 -11.21542 -11.21399
 Alpha  occ. eigenvalues --  -11.21369 -11.21339 -11.21308 -11.21067 -11.21053
 Alpha  occ. eigenvalues --  -11.21043 -11.20937  -1.08425  -1.08388  -1.03538
 Alpha  occ. eigenvalues --   -1.03472  -0.96018  -0.95897  -0.87073  -0.86882
 Alpha  occ. eigenvalues --   -0.79663  -0.79483  -0.78244  -0.78193  -0.65072
 Alpha  occ. eigenvalues --   -0.65007  -0.61021  -0.60804  -0.59363  -0.59290
 Alpha  occ. eigenvalues --   -0.57601  -0.57536  -0.55466  -0.55056  -0.52754
 Alpha  occ. eigenvalues --   -0.52640  -0.52454  -0.52232  -0.50120  -0.49654
 Alpha  occ. eigenvalues --   -0.47971  -0.47789  -0.46725  -0.46446  -0.45809
 Alpha  occ. eigenvalues --   -0.45727  -0.45702  -0.45608  -0.43771  -0.43740
 Alpha virt. eigenvalues --    0.22548   0.22966   0.23752   0.24737   0.26312
 Alpha virt. eigenvalues --    0.26594   0.27017   0.27425   0.27736   0.29009
 Alpha virt. eigenvalues --    0.30450   0.30906   0.31746   0.31777   0.32221

 Mulliken charges:
               1
     1  C   -0.298305
     2  C   -0.299651
     3  C   -0.475702
     4  H    0.149618
     5  H    0.149496
     6  H    0.151941
     7  H    0.151986
     8  H    0.155165
     9  H    0.155156
    10  H    0.160253
    11  C   -0.298644
    12  C   -0.299643
    13  C   -0.480144
    14  H    0.149566
    15  H    0.150062
    16  H    0.151691
    17  H    0.151859
    18  H    0.161742
    19  H    0.155458
    20  H    0.158762
    21  C   -0.298255
    22  C   -0.299507
    23  C   -0.482893
    24  H    0.149650
    25  H    0.149453
    26  H    0.151402
    27  H    0.151434
    28  H    0.165245
    29  H    0.154714
    30  H    0.158440
    31  C   -0.298250
    32  C   -0.299610
    33  C   -0.475679
    34  H    0.149471
    35  H    0.149494
    36  H    0.151931
    37  H    0.151862
    38  H    0.155113
    39  H    0.155148
    40  H    0.160173
 Sum of Mulliken charges =  -0.00000

 Dipole moment (field-independent basis, Debye):
    X=              0.0301    Y=             -0.0082    Z=              0.0132  Tot=              0.0339
 Quadrupole moment (field-independent basis, Debye-Ang):
   XX=            -86.8831   YY=            -83.8620   ZZ=            -84.2487
   XY=             -0.5447   XZ=             -0.0716   YZ=             -0.1566

 Normal termination of Gaussian 16 at Wed May  5 23:15:18 2021.
