 Gaussian 16, Revision A.03,
 Gaussian 16:  EM64L-G16RevA.03 25-Dec-2016

 -------------
 #p 6-31g* mp2
 -------------

 ------------------------------------------------------
 Input file generated by CHIRIPA (05-May-2021 14:53:14)
 ------------------------------------------------------
 Symbolic Z-matrix:
 Charge =  0 Multiplicity = 1

                         Standard orientation:
 ---------------------------------------------------------------------
 Center     Atomic      Atomic             Coordinates (Angstroms)
 Number     Number       Type             X           Y           Z
 ---------------------------------------------------------------------
      1          6           0       -3.028989    0.682792   -0.351332
      2          6           0       -3.314481   -0.649167    0.343191
      3          6           0       -4.623988   -1.288477   -0.119699
      4          1           0       -3.862459    1.373296   -0.162980
      5          1           0       -2.995669    0.522073   -1.437820
      6          1           0       -3.345880   -0.486235    1.428126
      7          1           0       -2.480145   -1.336517    0.153323
      8          1           0       -4.599511   -1.479638   -1.197409
      9          1           0       -5.470166   -0.624525    0.084637
     10          1           0       -4.808381   -2.239590    0.389461
     11          6           0       -1.723280    1.334195    0.100912
     12          6           0       -1.437789    2.666155   -0.593612
     13          6           0       -0.128281    3.305464   -0.130722
     14          1           0       -1.756600    1.494914    1.187399
     15          1           0       -0.889810    0.643691   -0.087440
     16          1           0       -2.272125    3.353504   -0.403743
     17          1           0       -1.406389    2.503222   -1.678546
     18          1           0        0.717896    2.641513   -0.335058
     19          1           0       -0.152758    3.496626    0.946989
     20          1           0        0.056112    4.256577   -0.639881
     21          6           0        3.312704    1.270148    0.195127
     22          6           0        2.387589    1.018465    1.213626
     23          6           0        1.575485   -0.118697    1.170070
     24          6           0        1.715561   -0.986848    0.088413
     25          6           0        2.627945   -0.763616   -0.941641
     26          6           0        3.429723    0.379874   -0.877366
     27          1           0        3.939555    2.155981    0.237010
     28          1           0        2.294539    1.708121    2.047749
     29          1           0        0.851060   -0.337828    1.945058
     30          1           0        2.697813   -1.469469   -1.760364
     31          1           0        4.147316    0.572789   -1.669760
     32          7           0        0.861289   -2.194061    0.031334
     33          8           0        1.004020   -2.943394   -0.932389
     34          8           0        0.065154   -2.368082    0.951402
 ---------------------------------------------------------------------

 SCF Done:  E(RHF) =  -669.533718101     A.U. after   15 cycles
 E2 =    -0.2096478943D+01 EUMP2 =    -0.67163019704467D+03

 The electronic state is 1-A.
 Alpha  occ. eigenvalues --  -20.61022 -20.60989 -15.86017 -11.31323 -11.27898
 Alpha  occ. eigenvalues --  -11.27832 -11.27599 -11.26902 -11.26826 -11.21572
 Alpha  occ. eigenvalues --  -11.21189 -11.21149 -11.20914 -11.20674 -11.20310
 Alpha  occ. eigenvalues --   -1.60063  -1.39617  -1.19516  -1.08917  -1.08094
 Alpha  occ. eigenvalues --   -1.04895  -1.03140  -0.95765  -0.95644  -0.86717
 Alpha  occ. eigenvalues --   -0.86258  -0.82578  -0.79273  -0.77919  -0.77568
 Alpha  occ. eigenvalues --   -0.72240  -0.71385  -0.70594  -0.65158  -0.64882
 Alpha  occ. eigenvalues --   -0.64730  -0.62226  -0.60566  -0.59074  -0.57251
 Alpha  occ. eigenvalues --   -0.55386  -0.55005  -0.53358  -0.52977  -0.52341
 Alpha  occ. eigenvalues --   -0.52051  -0.49641  -0.49015  -0.49002  -0.47519
 Alpha  occ. eigenvalues --   -0.46265  -0.45702  -0.45356  -0.44552  -0.43410
 Alpha  occ. eigenvalues --   -0.37419  -0.36365
 Alpha virt. eigenvalues --    0.04831   0.11105   0.16245   0.21056   0.23191
 Alpha virt. eigenvalues --    0.24681   0.26202   0.27124   0.27416   0.28575
 Alpha virt. eigenvalues --    0.28761   0.30711   0.31787   0.32077   0.32485

 Mulliken charges:
               1
     1  C   -0.298100
     2  C   -0.307291
     3  C   -0.475397
     4  H    0.146695
     5  H    0.148755
     6  H    0.148073
     7  H    0.173314
     8  H    0.154197
     9  H    0.150142
    10  H    0.162943
    11  C   -0.300803
    12  C   -0.297353
    13  C   -0.483159
    14  H    0.143537
    15  H    0.151200
    16  H    0.151582
    17  H    0.152071
    18  H    0.163925
    19  H    0.146810
    20  H    0.156991
    21  C   -0.172091
    22  C   -0.215743
    23  C   -0.169730
    24  C    0.158175
    25  C   -0.172115
    26  C   -0.218117
    27  H    0.227183
    28  H    0.225456
    29  H    0.277245
    30  H    0.275983
    31  H    0.224279
    32  N    0.487914
    33  O   -0.458997
    34  O   -0.457574
 Sum of Mulliken charges =  -0.00000

 Dipole moment (field-independent basis, Debye):
    X=              3.2069    Y=              4.0124    Z=              0.2203  Tot=              5.1413
 Quadrupole moment (field-independent basis, Debye-Ang):
   XX=            -84.9436   YY=           -104.0492   ZZ=            -90.7032
   XY=              3.4643   XZ=             -2.0717   YZ=              1.7076

 Normal termination of Gaussian 16 at Thu May  6 01:02:20 2021.
