 Gaussian 16, Revision A.03,
 Gaussian 16:  EM64L-G16RevA.03 25-Dec-2016

 -------------
 #p 6-31g* mp2
 -------------

 ------------------------------------------------------
 Input file generated by CHIRIPA (05-May-2021 14:57:21)
 ------------------------------------------------------
 Symbolic Z-matrix:
 Charge =  0 Multiplicity = 1

                         Standard orientation:
 ---------------------------------------------------------------------
 Center     Atomic      Atomic             Coordinates (Angstroms)
 Number     Number       Type             X           Y           Z
 ---------------------------------------------------------------------
      1          6           0       -1.809663    0.854378    0.776530
      2          6           0       -2.299153   -0.394105    1.174287
      3          6           0       -3.599166   -0.785996    0.841218
      4          6           0       -4.385905    0.099467    0.106175
      5          6           0       -3.926885    1.349971   -0.304714
      6          6           0       -2.623656    1.720904    0.039598
      7          1           0       -0.798532    1.150667    1.039633
      8          1           0       -1.669239   -1.069107    1.746674
      9          1           0       -4.003412   -1.746697    1.136271
     10          1           0       -4.578461    2.001287   -0.874499
     11          1           0       -2.246164    2.691103   -0.270655
     12          7           0       -5.763873   -0.304317   -0.252382
     13          8           0       -6.437026    0.493978   -0.900631
     14          8           0       -6.144679   -1.411451    0.121620
     15          6           0        6.471035    0.728529    0.303003
     16          6           0        6.262471   -0.650399    0.195389
     17          6           0        4.985585   -1.157256   -0.063853
     18          6           0        3.935260   -0.252496   -0.210540
     19          6           0        4.111126    1.126646   -0.108901
     20          6           0        5.396591    1.611094    0.150783
     21          1           0        7.466283    1.113565    0.504559
     22          1           0        7.095032   -1.338163    0.313146
     23          1           0        4.795944   -2.220115   -0.152087
     24          1           0        3.261530    1.787451   -0.231132
     25          1           0        5.555612    2.682476    0.233841
     26          7           0        2.578937   -0.777222   -0.485222
     27          8           0        1.670196    0.040804   -0.610361
     28          8           0        2.450274   -1.996593   -0.570175
 ---------------------------------------------------------------------

 SCF Done:  E(RHF) =  -868.339179033     A.U. after   16 cycles
 E2 =    -0.2598419948D+01 EUMP2 =    -0.87093759898055D+03

 The electronic state is 1-A.
 Alpha  occ. eigenvalues --  -20.61730 -20.61669 -20.59966 -20.59959 -15.86741
 Alpha  occ. eigenvalues --  -15.85014 -11.31930 -11.30176 -11.28506 -11.28449
 Alpha  occ. eigenvalues --  -11.28163 -11.27453 -11.27420 -11.26777 -11.26731
 Alpha  occ. eigenvalues --  -11.26342 -11.25708 -11.25626  -1.60770  -1.59046
 Alpha  occ. eigenvalues --   -1.40331  -1.38605  -1.20082  -1.18329  -1.09504
 Alpha  occ. eigenvalues --   -1.07731  -1.05458  -1.03719  -0.96371  -0.94605
 Alpha  occ. eigenvalues --   -0.86863  -0.85113  -0.83212  -0.81461  -0.78285
 Alpha  occ. eigenvalues --   -0.76559  -0.72970  -0.72087  -0.71239  -0.71183
 Alpha  occ. eigenvalues --   -0.70366  -0.69372  -0.65735  -0.65453  -0.63977
 Alpha  occ. eigenvalues --   -0.63722  -0.62811  -0.61091  -0.55951  -0.54137
 Alpha  occ. eigenvalues --   -0.53793  -0.53545  -0.52032  -0.51814  -0.49727
 Alpha  occ. eigenvalues --   -0.49691  -0.48003  -0.47977  -0.45772  -0.44058
 Alpha  occ. eigenvalues --   -0.38044  -0.37054  -0.36221  -0.35327
 Alpha virt. eigenvalues --    0.04217   0.05998   0.10603   0.12348   0.15738
 Alpha virt. eigenvalues --    0.17559   0.20745   0.22501   0.26663   0.27529
 Alpha virt. eigenvalues --    0.28300   0.29336   0.30447   0.31583   0.32523

 Mulliken charges:
               1
     1  C   -0.160664
     2  C   -0.216483
     3  C   -0.171651
     4  C    0.157145
     5  C   -0.171785
     6  C   -0.219735
     7  H    0.231383
     8  H    0.224198
     9  H    0.273034
    10  H    0.271881
    11  H    0.218980
    12  N    0.488351
    13  O   -0.463595
    14  O   -0.462634
    15  C   -0.170054
    16  C   -0.218312
    17  C   -0.170555
    18  C    0.157909
    19  C   -0.171221
    20  C   -0.218192
    21  H    0.228030
    22  H    0.225910
    23  H    0.277018
    24  H    0.271885
    25  H    0.224800
    26  N    0.489165
    27  O   -0.468748
    28  O   -0.456062
 Sum of Mulliken charges =  -0.00000

 Dipole moment (field-independent basis, Debye):
    X=             10.1874    Y=              3.1842    Z=              2.2582  Tot=             10.9097
 Quadrupole moment (field-independent basis, Debye-Ang):
   XX=           -110.4943   YY=            -97.5193   ZZ=           -105.4619
   XY=             -2.1633   XZ=             -1.7509   YZ=             -2.7726

 Normal termination of Gaussian 16 at Thu May  6 04:54:22 2021.
