 Gaussian 16, Revision A.03,
 Gaussian 16:  EM64L-G16RevA.03 25-Dec-2016

 -------------
 #p 6-31g* mp2
 -------------

 ------------------------------------------------------
 Input file generated by CHIRIPA (05-May-2021 14:51:08)
 ------------------------------------------------------
 Symbolic Z-matrix:
 Charge =  0 Multiplicity = 1

                         Standard orientation:
 ---------------------------------------------------------------------
 Center     Atomic      Atomic             Coordinates (Angstroms)
 Number     Number       Type             X           Y           Z
 ---------------------------------------------------------------------
      1          6           0        2.805745   -0.172800    0.087430
      2          6           0        4.331402   -0.112153    0.169140
      3          6           0        4.855046    1.305362    0.402040
      4          1           0        2.461895    0.484410   -0.722994
      5          1           0        2.379472    0.228379    1.017344
      6          1           0        4.754691   -0.514608   -0.760092
      7          1           0        4.671673   -0.769732    0.979339
      8          1           0        4.460403    1.712826    1.338433
      9          1           0        4.543893    1.969399   -0.410881
     10          1           0        5.947936    1.325615    0.457171
     11          6           0        2.267113   -1.583299   -0.145157
     12          6           0        0.741456   -1.643947   -0.226867
     13          6           0        0.217812   -3.061462   -0.459768
     14          1           0        2.693386   -1.984479   -1.075071
     15          1           0        2.610963   -2.240510    0.665267
     16          1           0        0.401185   -0.986368   -1.037066
     17          1           0        0.318167   -1.241492    0.702365
     18          1           0        0.528965   -3.725499    0.353153
     19          1           0        0.612455   -3.468925   -1.396161
     20          1           0       -0.875078   -3.081715   -0.514899
     21          6           0       -2.752464    0.194385   -0.234504
     22          6           0       -3.598006   -0.599676    0.761745
     23          6           0       -4.022501   -1.965162    0.220407
     24          1           0       -3.321961    0.327931   -1.164441
     25          1           0       -1.860064   -0.391046   -0.495823
     26          1           0       -4.487850   -0.012332    1.022166
     27          1           0       -3.026504   -0.731182    1.689487
     28          1           0       -3.144953   -2.573169   -0.022158
     29          1           0       -4.614602   -1.850233   -0.693272
     30          1           0       -4.625967   -2.515832    0.948727
     31          6           0       -2.320394    1.561715    0.292231
     32          6           0       -1.474852    2.355775   -0.704018
     33          6           0       -1.050357    3.721261   -0.162680
     34          1           0       -3.212794    2.147146    0.553551
     35          1           0       -1.750897    1.428168    1.222169
     36          1           0       -2.046355    2.487282   -1.631760
     37          1           0       -0.585008    1.768431   -0.964439
     38          1           0       -0.458255    3.606333    0.750999
     39          1           0       -1.927905    4.329268    0.079886
     40          1           0       -0.446890    4.271931   -0.891000
 ---------------------------------------------------------------------

 SCF Done:  E(RHF) =  -470.732292266     A.U. after   11 cycles
 E2 =    -0.1584968515D+01 EUMP2 =    -0.47231726078022D+03

 The electronic state is 1-A.
 Alpha  occ. eigenvalues --  -11.21725 -11.21659 -11.21551 -11.21549 -11.21492
 Alpha  occ. eigenvalues --  -11.21432 -11.21318 -11.21206 -11.21174 -11.21109
 Alpha  occ. eigenvalues --  -11.21047 -11.21029  -1.08538  -1.08349  -1.03633
 Alpha  occ. eigenvalues --   -1.03475  -0.96068  -0.95930  -0.87092  -0.86938
 Alpha  occ. eigenvalues --   -0.79719  -0.79546  -0.78442  -0.78079  -0.65153
 Alpha  occ. eigenvalues --   -0.65027  -0.61034  -0.60930  -0.59465  -0.59247
 Alpha  occ. eigenvalues --   -0.57668  -0.57550  -0.55355  -0.55247  -0.52811
 Alpha  occ. eigenvalues --   -0.52628  -0.52516  -0.52305  -0.50000  -0.49900
 Alpha  occ. eigenvalues --   -0.48008  -0.47845  -0.46762  -0.46574  -0.46181
 Alpha  occ. eigenvalues --   -0.45810  -0.45689  -0.45178  -0.43856  -0.43719
 Alpha virt. eigenvalues --    0.20295   0.22226   0.23484   0.24172   0.25631
 Alpha virt. eigenvalues --    0.26150   0.26680   0.27736   0.28048   0.29752
 Alpha virt. eigenvalues --    0.30380   0.31261   0.31720   0.31926   0.32553

 Mulliken charges:
               1
     1  C   -0.299263
     2  C   -0.299752
     3  C   -0.475763
     4  H    0.150330
     5  H    0.149304
     6  H    0.152156
     7  H    0.152168
     8  H    0.155249
     9  H    0.155453
    10  H    0.160476
    11  C   -0.297251
    12  C   -0.305265
    13  C   -0.484302
    14  H    0.149975
    15  H    0.150009
    16  H    0.154917
    17  H    0.152869
    18  H    0.156146
    19  H    0.156256
    20  H    0.167161
    21  C   -0.309886
    22  C   -0.298868
    23  C   -0.482007
    24  H    0.148449
    25  H    0.164267
    26  H    0.151777
    27  H    0.151109
    28  H    0.159920
    29  H    0.155332
    30  H    0.160398
    31  C   -0.297333
    32  C   -0.302519
    33  C   -0.475448
    34  H    0.149175
    35  H    0.148912
    36  H    0.151475
    37  H    0.154221
    38  H    0.155292
    39  H    0.155020
    40  H    0.159841
 Sum of Mulliken charges =  -0.00000

 Dipole moment (field-independent basis, Debye):
    X=              0.0672    Y=             -0.0364    Z=             -0.0130  Tot=              0.0775
 Quadrupole moment (field-independent basis, Debye-Ang):
   XX=            -84.6116   YY=            -86.5662   ZZ=            -83.6922
   XY=             -1.2381   XZ=              0.1081   YZ=             -0.7013

 Normal termination of Gaussian 16 at Thu May  6 13:12:18 2021.
