 Gaussian 16, Revision A.03,
 Gaussian 16:  EM64L-G16RevA.03 25-Dec-2016

 -------------
 #p 6-31g* mp2
 -------------

 ------------------------------------------------------
 Input file generated by CHIRIPA (05-May-2021 14:53:17)
 ------------------------------------------------------
 Symbolic Z-matrix:
 Charge =  0 Multiplicity = 1

                         Standard orientation:
 ---------------------------------------------------------------------
 Center     Atomic      Atomic             Coordinates (Angstroms)
 Number     Number       Type             X           Y           Z
 ---------------------------------------------------------------------
      1          6           0        2.859548    0.760297   -0.168098
      2          6           0        3.022019    1.747976   -1.323987
      3          6           0        2.370183    3.101758   -1.040829
      4          1           0        1.789593    0.618033    0.036604
      5          1           0        3.296564    1.195689    0.741213
      6          1           0        2.586059    1.310274   -2.231165
      7          1           0        4.091707    1.887758   -1.526086
      8          1           0        2.811173    3.563129   -0.151299
      9          1           0        1.296970    2.982364   -0.860383
     10          1           0        2.498316    3.792423   -1.880129
     11          6           0        3.505931   -0.597658   -0.436193
     12          6           0        3.343460   -1.585336    0.719696
     13          6           0        3.995296   -2.939118    0.436539
     14          1           0        3.068914   -1.033049   -1.345504
     15          1           0        4.575885   -0.455393   -0.640894
     16          1           0        2.273772   -1.725119    0.921795
     17          1           0        3.779420   -1.147635    1.626874
     18          1           0        5.068508   -2.819725    0.256093
     19          1           0        3.554305   -3.400490   -0.452992
     20          1           0        3.867162   -3.629783    1.275838
     21          6           0       -3.850526   -1.540899   -1.288016
     22          6           0       -4.291055   -0.247515   -0.988661
     23          6           0       -3.543392    0.579827   -0.145422
     24          6           0       -2.354647    0.079295    0.383392
     25          6           0       -1.889244   -1.204691    0.103986
     26          6           0       -2.653138   -2.014524   -0.741700
     27          1           0       -4.437633   -2.176798   -1.944015
     28          1           0       -5.220570    0.122958   -1.411504
     29          1           0       -3.861058    1.585219    0.102961
     30          1           0       -0.958522   -1.546079    0.540597
     31          1           0       -2.308567   -3.018554   -0.972439
     32          7           0       -1.554539    0.945897    1.277387
     33          8           0       -0.510745    0.481357    1.730525
     34          8           0       -1.986358    2.073270    1.508035
 ---------------------------------------------------------------------

 SCF Done:  E(RHF) =  -669.536102427     A.U. after   15 cycles
 E2 =    -0.2091798566D+01 EUMP2 =    -0.67162790099319D+03

 The electronic state is 1-A.
 Alpha  occ. eigenvalues --  -20.60989 -20.60983 -15.86003 -11.31322 -11.27888
 Alpha  occ. eigenvalues --  -11.27879 -11.27616 -11.26889 -11.26879 -11.21135
 Alpha  occ. eigenvalues --  -11.20913 -11.20837 -11.20811 -11.20424 -11.20306
 Alpha  occ. eigenvalues --   -1.60042  -1.39598  -1.19490  -1.08894  -1.07785
 Alpha  occ. eigenvalues --   -1.04885  -1.02958  -0.95737  -0.95395  -0.86411
 Alpha  occ. eigenvalues --   -0.86285  -0.82570  -0.79017  -0.77678  -0.77484
 Alpha  occ. eigenvalues --   -0.72224  -0.71353  -0.70597  -0.65146  -0.64889
 Alpha  occ. eigenvalues --   -0.64429  -0.62232  -0.60374  -0.58776  -0.56992
 Alpha  occ. eigenvalues --   -0.55387  -0.54695  -0.53217  -0.52976  -0.52130
 Alpha  occ. eigenvalues --   -0.51802  -0.49345  -0.48997  -0.48983  -0.47330
 Alpha  occ. eigenvalues --   -0.46075  -0.45439  -0.45073  -0.44525  -0.43176
 Alpha  occ. eigenvalues --   -0.37467  -0.36485
 Alpha virt. eigenvalues --    0.04864   0.11154   0.16330   0.20577   0.23001
 Alpha virt. eigenvalues --    0.24659   0.25683   0.27473   0.27650   0.28482
 Alpha virt. eigenvalues --    0.29137   0.31050   0.31493   0.32203   0.32252

 Mulliken charges:
               1
     1  C   -0.304358
     2  C   -0.299754
     3  C   -0.474110
     4  H    0.164541
     5  H    0.152312
     6  H    0.146255
     7  H    0.148705
     8  H    0.157788
     9  H    0.158196
    10  H    0.155612
    11  C   -0.298093
    12  C   -0.299036
    13  C   -0.475467
    14  H    0.143122
    15  H    0.147502
    16  H    0.151782
    17  H    0.155743
    18  H    0.155301
    19  H    0.150328
    20  H    0.158750
    21  C   -0.170459
    22  C   -0.218567
    23  C   -0.170668
    24  C    0.157938
    25  C   -0.172662
    26  C   -0.218879
    27  H    0.226165
    28  H    0.223990
    29  H    0.275960
    30  H    0.277385
    31  H    0.224181
    32  N    0.487603
    33  O   -0.458811
    34  O   -0.458293
 Sum of Mulliken charges =  -0.00000

 Dipole moment (field-independent basis, Debye):
    X=             -3.0228    Y=             -2.9607    Z=             -2.9864  Tot=              5.1789
 Quadrupole moment (field-independent basis, Debye-Ang):
   XX=            -79.2408   YY=            -94.1416   ZZ=            -97.9290
   XY=              5.1828   XZ=              7.8542   YZ=             -1.4623

 Normal termination of Gaussian 16 at Wed May  5 22:01:12 2021.
