 Gaussian 16, Revision A.03,
 Gaussian 16:  EM64L-G16RevA.03 25-Dec-2016

 -------------
 #p 6-31g* mp2
 -------------

 ------------------------------------------------------
 Input file generated by CHIRIPA (05-May-2021 14:55:19)
 ------------------------------------------------------
 Symbolic Z-matrix:
 Charge =  0 Multiplicity = 1

                         Standard orientation:
 ---------------------------------------------------------------------
 Center     Atomic      Atomic             Coordinates (Angstroms)
 Number     Number       Type             X           Y           Z
 ---------------------------------------------------------------------
      1          6           0       -0.249826   -1.416698    0.147494
      2          6           0       -0.874709   -0.947619    1.307670
      3          6           0       -2.170766   -0.426098    1.254759
      4          6           0       -2.815530   -0.388573    0.019379
      5          6           0       -2.219632   -0.848203   -1.154049
      6          6           0       -0.923095   -1.365583   -1.077503
      7          1           0        0.757168   -1.820219    0.197776
      8          1           0       -0.354247   -0.986077    2.260395
      9          1           0       -2.678078   -0.056138    2.137472
     10          1           0       -2.763822   -0.796806   -2.089267
     11          1           0       -0.440271   -1.729160   -1.980131
     12          7           0       -4.187861    0.161346   -0.049146
     13          8           0       -4.734481    0.183380   -1.149763
     14          8           0       -4.690890    0.559926    0.999059
     15          6           0        3.563106   -0.000555    0.341059
     16          6           0        4.372402   -0.964755   -0.526895
     17          6           0        4.863079   -2.188021    0.248121
     18          1           0        4.180104    0.324640    1.189885
     19          1           0        2.702801   -0.535394    0.766755
     20          1           0        5.230155   -0.427900   -0.951939
     21          1           0        3.753469   -1.287541   -1.373859
     22          1           0        4.017150   -2.748501    0.659056
     23          1           0        5.502226   -1.883975    1.083374
     24          1           0        5.439275   -2.863900   -0.391445
     25          6           0        3.065638    1.227321   -0.419582
     26          6           0        2.256342    2.191522    0.448372
     27          6           0        1.765665    3.414787   -0.326644
     28          1           0        3.925943    1.762161   -0.845278
     29          1           0        2.448639    0.902127   -1.268409
     30          1           0        2.875274    2.514308    1.295335
     31          1           0        1.398589    1.654666    0.873416
     32          1           0        1.126518    3.110742   -1.161897
     33          1           0        2.611593    3.975268   -0.737580
     34          1           0        1.189468    4.090667    0.312922
 ---------------------------------------------------------------------

 SCF Done:  E(RHF) =  -669.535523236     A.U. after   15 cycles
 E2 =    -0.2092568634D+01 EUMP2 =    -0.67162809186977D+03

 The electronic state is 1-A.
 Alpha  occ. eigenvalues --  -20.60813 -20.60808 -15.85868 -11.31261 -11.27839
 Alpha  occ. eigenvalues --  -11.27834 -11.27578 -11.26866 -11.26849 -11.22541
 Alpha  occ. eigenvalues --  -11.22336 -11.22105 -11.22043 -11.22000 -11.21410
 Alpha  occ. eigenvalues --   -1.59888  -1.39441  -1.19442  -1.09221  -1.08826
 Alpha  occ. eigenvalues --   -1.04847  -1.04229  -0.96683  -0.95661  -0.87692
 Alpha  occ. eigenvalues --   -0.86242  -0.82493  -0.80313  -0.79016  -0.77530
 Alpha  occ. eigenvalues --   -0.72086  -0.71211  -0.70586  -0.65871  -0.65093
 Alpha  occ. eigenvalues --   -0.64829  -0.62190  -0.61632  -0.60060  -0.58286
 Alpha  occ. eigenvalues --   -0.56050  -0.55295  -0.53350  -0.53162  -0.53091
 Alpha  occ. eigenvalues --   -0.52935  -0.50625  -0.48849  -0.48839  -0.48614
 Alpha  occ. eigenvalues --   -0.47369  -0.46538  -0.46465  -0.44840  -0.44500
 Alpha  occ. eigenvalues --   -0.37394  -0.36443
 Alpha virt. eigenvalues --    0.04978   0.11104   0.16361   0.18891   0.23076
 Alpha virt. eigenvalues --    0.23342   0.25391   0.25924   0.27268   0.27754
 Alpha virt. eigenvalues --    0.29413   0.30197   0.31012   0.31413   0.31914

 Mulliken charges:
               1
     1  C   -0.171449
     2  C   -0.220108
     3  C   -0.170943
     4  C    0.158635
     5  C   -0.170615
     6  C   -0.220182
     7  H    0.230090
     8  H    0.224568
     9  H    0.276145
    10  H    0.275960
    11  H    0.223841
    12  N    0.488084
    13  O   -0.460185
    14  O   -0.460134
    15  C   -0.300190
    16  C   -0.300829
    17  C   -0.475175
    18  H    0.153666
    19  H    0.138625
    20  H    0.157094
    21  H    0.147545
    22  H    0.148448
    23  H    0.158795
    24  H    0.163712
    25  C   -0.297610
    26  C   -0.302532
    27  C   -0.476018
    28  H    0.152398
    29  H    0.148153
    30  H    0.151827
    31  H    0.153035
    32  H    0.156897
    33  H    0.155541
    34  H    0.162913
 Sum of Mulliken charges =  -0.00000

 Dipole moment (field-independent basis, Debye):
    X=              4.8963    Y=             -1.8554    Z=              0.2212  Tot=              5.2407
 Quadrupole moment (field-independent basis, Debye-Ang):
   XX=           -121.4878   YY=            -94.3581   ZZ=            -90.0107
   XY=              4.5481   XZ=             -0.5098   YZ=              1.3739

 Normal termination of Gaussian 16 at Wed May  5 22:07:39 2021.
