 Gaussian 16, Revision A.03,
 Gaussian 16:  EM64L-G16RevA.03 25-Dec-2016

 -------------
 #p 6-31g* mp2
 -------------

 ------------------------------------------------------
 Input file generated by CHIRIPA (05-May-2021 14:57:23)
 ------------------------------------------------------
 Symbolic Z-matrix:
 Charge =  0 Multiplicity = 1

                         Standard orientation:
 ---------------------------------------------------------------------
 Center     Atomic      Atomic             Coordinates (Angstroms)
 Number     Number       Type             X           Y           Z
 ---------------------------------------------------------------------
      1          6           0        2.511044    2.289245   -0.897159
      2          6           0        1.407495    1.900784   -0.130479
      3          6           0        1.326463    0.606820    0.392628
      4          6           0        2.371614   -0.276954    0.128254
      5          6           0        3.484187    0.080173   -0.631964
      6          6           0        3.544046    1.379304   -1.145018
      7          1           0        2.565767    3.296434   -1.299616
      8          1           0        0.603776    2.605345    0.063624
      9          1           0        0.483674    0.279698    0.989381
     10          1           0        4.269834   -0.644410   -0.808472
     11          1           0        4.402287    1.678222   -1.740094
     12          7           0        2.297037   -1.649550    0.676722
     13          8           0        3.230935   -2.409378    0.429471
     14          8           0        1.306097   -1.939573    1.343478
     15          6           0       -2.050473    1.683873    1.856236
     16          6           0       -2.179046    0.317178    2.124817
     17          6           0       -2.364154   -0.596773    1.083195
     18          6           0       -2.416141   -0.107152   -0.220974
     19          6           0       -2.291306    1.248529   -0.520696
     20          6           0       -2.106914    2.144375    0.536664
     21          1           0       -1.906954    2.386820    2.671506
     22          1           0       -2.135606   -0.043303    3.148640
     23          1           0       -2.466573   -1.660108    1.262773
     24          1           0       -2.338748    1.577848   -1.551577
     25          1           0       -2.007364    3.205214    0.325108
     26          7           0       -2.611727   -1.065128   -1.332023
     27          8           0       -2.654033   -0.608420   -2.472315
     28          8           0       -2.719018   -2.254556   -1.041534
 ---------------------------------------------------------------------

 SCF Done:  E(RHF) =  -868.336125182     A.U. after   16 cycles
 E2 =    -0.2605461005D+01 EUMP2 =    -0.87094158618699D+03

 The electronic state is 1-A.
 Alpha  occ. eigenvalues --  -20.60972 -20.60928 -20.60764 -20.60735 -15.86019
 Alpha  occ. eigenvalues --  -15.85803 -11.31676 -11.31102 -11.28391 -11.28199
 Alpha  occ. eigenvalues --  -11.28171 -11.27693 -11.27572 -11.27474 -11.27467
 Alpha  occ. eigenvalues --  -11.27269 -11.26711 -11.26647  -1.60022  -1.59819
 Alpha  occ. eigenvalues --   -1.39564  -1.39379  -1.19976  -1.19284  -1.09289
 Alpha  occ. eigenvalues --   -1.08712  -1.05386  -1.04678  -0.96039  -0.95549
 Alpha  occ. eigenvalues --   -0.86746  -0.86100  -0.82854  -0.82387  -0.77842
 Alpha  occ. eigenvalues --   -0.77441  -0.72232  -0.72038  -0.71361  -0.71134
 Alpha  occ. eigenvalues --   -0.70990  -0.70437  -0.65560  -0.65387  -0.64954
 Alpha  occ. eigenvalues --   -0.64699  -0.62675  -0.62149  -0.55846  -0.55346
 Alpha  occ. eigenvalues --   -0.53598  -0.53407  -0.52971  -0.52707  -0.49019
 Alpha  occ. eigenvalues --   -0.48961  -0.48786  -0.48770  -0.44905  -0.44795
 Alpha  occ. eigenvalues --   -0.38065  -0.37342  -0.37061  -0.36058
 Alpha virt. eigenvalues --    0.04581   0.05203   0.10486   0.11342   0.15975
 Alpha virt. eigenvalues --    0.16667   0.20330   0.22053   0.25971   0.27850
 Alpha virt. eigenvalues --    0.28387   0.28643   0.30205   0.31653   0.32270

 Mulliken charges:
               1
     1  C   -0.170770
     2  C   -0.221946
     3  C   -0.178092
     4  C    0.156392
     5  C   -0.169207
     6  C   -0.218907
     7  H    0.223190
     8  H    0.217234
     9  H    0.285011
    10  H    0.275911
    11  H    0.223222
    12  N    0.488503
    13  O   -0.458490
    14  O   -0.465002
    15  C   -0.176073
    16  C   -0.225550
    17  C   -0.164102
    18  C    0.157989
    19  C   -0.167436
    20  C   -0.232354
    21  H    0.228495
    22  H    0.231970
    23  H    0.286854
    24  H    0.277288
    25  H    0.221259
    26  N    0.488435
    27  O   -0.461330
    28  O   -0.452492
 Sum of Mulliken charges =  -0.00000

 Dipole moment (field-independent basis, Debye):
    X=              0.6636    Y=              7.8251    Z=              2.0306  Tot=              8.1115
 Quadrupole moment (field-independent basis, Debye-Ang):
   XX=           -103.3926   YY=           -106.3104   ZZ=           -104.7647
   XY=              2.6093   XZ=            -16.8990   YZ=             -2.4284

 Normal termination of Gaussian 16 at Fri May  7 08:01:04 2021.
