 Gaussian 16, Revision A.03,
 Gaussian 16:  EM64L-G16RevA.03 25-Dec-2016

 -------------
 #p 6-31g* mp2
 -------------

 ------------------------------------------------------
 Input file generated by CHIRIPA (05-May-2021 14:55:25)
 ------------------------------------------------------
 Symbolic Z-matrix:
 Charge =  0 Multiplicity = 1

                         Standard orientation:
 ---------------------------------------------------------------------
 Center     Atomic      Atomic             Coordinates (Angstroms)
 Number     Number       Type             X           Y           Z
 ---------------------------------------------------------------------
      1          6           0       -0.813478   -0.682162    1.243866
      2          6           0       -0.861460    0.365011    0.317773
      3          6           0       -2.064306    0.704043   -0.308938
      4          6           0       -3.205144   -0.028425    0.015513
      5          6           0       -3.189477   -1.077012    0.933941
      6          6           0       -1.975591   -1.398568    1.548457
      7          1           0        0.125210   -0.938742    1.725973
      8          1           0        0.039480    0.923111    0.079283
      9          1           0       -2.129810    1.510086   -1.029648
     10          1           0       -4.104150   -1.615134    1.151235
     11          1           0       -1.941300   -2.212303    2.267279
     12          7           0       -4.484387    0.321242   -0.641503
     13          8           0       -5.475476   -0.339445   -0.338400
     14          8           0       -4.471746    1.249378   -1.447134
     15          6           0        4.153857   -0.461186   -0.550732
     16          6           0        3.598688   -1.837265   -0.181707
     17          6           0        4.251018   -2.970015   -0.974888
     18          1           0        4.006863   -0.289826   -1.625893
     19          1           0        5.239047   -0.453076   -0.378418
     20          1           0        2.514656   -1.842337   -0.353355
     21          1           0        3.746848   -2.005288    0.892739
     22          1           0        5.330808   -2.993625   -0.795733
     23          1           0        4.091615   -2.829748   -2.048907
     24          1           0        3.839333   -3.944791   -0.695267
     25          6           0        3.511575    0.681485    0.233811
     26          6           0        4.066743    2.057565   -0.135214
     27          6           0        3.414414    3.190316    0.657967
     28          1           0        2.426385    0.673377    0.061498
     29          1           0        3.658568    0.510125    1.308974
     30          1           0        3.918584    2.225589   -1.209659
     31          1           0        5.150776    2.062637    0.036434
     32          1           0        3.573816    3.050047    1.731987
     33          1           0        2.334624    3.213924    0.478812
     34          1           0        3.826098    4.165091    0.378347
 ---------------------------------------------------------------------

 SCF Done:  E(RHF) =  -669.535652222     A.U. after   15 cycles
 E2 =    -0.2091626457D+01 EUMP2 =    -0.67162727867990D+03

 The electronic state is 1-A.
 Alpha  occ. eigenvalues --  -20.60741 -20.60736 -15.85794 -11.31156 -11.27726
 Alpha  occ. eigenvalues --  -11.27723 -11.27447 -11.26733 -11.26716 -11.22549
 Alpha  occ. eigenvalues --  -11.22509 -11.22476 -11.22269 -11.21937 -11.21768
 Alpha  occ. eigenvalues --   -1.59817  -1.39370  -1.19327  -1.09389  -1.08718
 Alpha  occ. eigenvalues --   -1.04732  -1.04401  -0.96846  -0.95554  -0.87856
 Alpha  occ. eigenvalues --   -0.86132  -0.82389  -0.80471  -0.79241  -0.77439
 Alpha  occ. eigenvalues --   -0.72012  -0.71140  -0.70421  -0.66062  -0.64976
 Alpha  occ. eigenvalues --   -0.64720  -0.62106  -0.61770  -0.60213  -0.58462
 Alpha  occ. eigenvalues --   -0.56138  -0.55213  -0.53501  -0.53281  -0.53057
 Alpha  occ. eigenvalues --   -0.52830  -0.50782  -0.48815  -0.48768  -0.48740
 Alpha  occ. eigenvalues --   -0.47503  -0.46743  -0.46674  -0.44777  -0.44680
 Alpha  occ. eigenvalues --   -0.37299  -0.36336
 Alpha virt. eigenvalues --    0.05089   0.11273   0.16564   0.18816   0.22731
 Alpha virt. eigenvalues --    0.22909   0.24854   0.25727   0.26830   0.27983
 Alpha virt. eigenvalues --    0.29548   0.30319   0.31045   0.31301   0.32200

 Mulliken charges:
               1
     1  C   -0.173911
     2  C   -0.225380
     3  C   -0.171736
     4  C    0.158923
     5  C   -0.171136
     6  C   -0.218659
     7  H    0.228126
     8  H    0.231420
     9  H    0.275782
    10  H    0.275490
    11  H    0.223397
    12  N    0.487945
    13  O   -0.460514
    14  O   -0.460513
    15  C   -0.297858
    16  C   -0.302307
    17  C   -0.475932
    18  H    0.152779
    19  H    0.153415
    20  H    0.149574
    21  H    0.150177
    22  H    0.157288
    23  H    0.157938
    24  H    0.161666
    25  C   -0.304339
    26  C   -0.300443
    27  C   -0.476168
    28  H    0.142159
    29  H    0.150218
    30  H    0.154403
    31  H    0.156109
    32  H    0.156744
    33  H    0.150134
    34  H    0.165209
 Sum of Mulliken charges =  -0.00000

 Dipole moment (field-independent basis, Debye):
    X=              4.7552    Y=             -1.2319    Z=              2.2759  Tot=              5.4138
 Quadrupole moment (field-independent basis, Debye-Ang):
   XX=           -121.6965   YY=            -92.8753   ZZ=            -93.6327
   XY=              6.1960   XZ=             -8.2421   YZ=             -2.7354

 Normal termination of Gaussian 16 at Thu May  6 14:25:24 2021.
