 Gaussian 16, Revision A.03,
 Gaussian 16:  EM64L-G16RevA.03 25-Dec-2016

 -------------
 #p 6-31g* mp2
 -------------

 ------------------------------------------------------
 Input file generated by CHIRIPA (05-May-2021 14:57:21)
 ------------------------------------------------------
 Symbolic Z-matrix:
 Charge =  0 Multiplicity = 1

                         Standard orientation:
 ---------------------------------------------------------------------
 Center     Atomic      Atomic             Coordinates (Angstroms)
 Number     Number       Type             X           Y           Z
 ---------------------------------------------------------------------
      1          6           0        5.153826    0.675806    0.047390
      2          6           0        4.635309    0.008155   -1.067017
      3          6           0        3.362371   -0.568065   -1.020695
      4          6           0        2.632011   -0.457208    0.161496
      5          6           0        3.121091    0.201525    1.288511
      6          6           0        4.396397    0.770194    1.219531
      7          1           0        6.143595    1.120495    0.002606
      8          1           0        5.221292   -0.066703   -1.978645
      9          1           0        2.936660   -1.090641   -1.868694
     10          1           0        2.513286    0.259758    2.183273
     11          1           0        4.796537    1.288102    2.086539
     12          7           0        1.283155   -1.063229    0.222528
     13          8           0        0.659690   -0.951728    1.275854
     14          8           0        0.874928   -1.638255   -0.784116
     15          6           0       -3.717077   -1.981479    0.237859
     16          6           0       -2.865910   -1.719862   -0.840841
     17          6           0       -2.381806   -0.427802   -1.066163
     18          6           0       -2.770911    0.583436   -0.189072
     19          6           0       -3.617540    0.354392    0.894463
     20          6           0       -4.089518   -0.945344    1.100547
     21          1           0       -4.088431   -2.988164    0.405422
     22          1           0       -2.575000   -2.522589   -1.512441
     23          1           0       -1.721619   -0.197373   -1.893491
     24          1           0       -3.889960    1.175143    1.546821
     25          1           0       -4.750415   -1.145595    1.939093
     26          7           0       -2.264830    1.955345   -0.417428
     27          8           0       -2.622467    2.828893    0.369748
     28          8           0       -1.520109    2.131123   -1.379264
 ---------------------------------------------------------------------

 SCF Done:  E(RHF) =  -868.339703890     A.U. after   16 cycles
 E2 =    -0.2599849437D+01 EUMP2 =    -0.87093955332768D+03

 The electronic state is 1-A.
 Alpha  occ. eigenvalues --  -20.61035 -20.60994 -20.59787 -20.59775 -15.86038
 Alpha  occ. eigenvalues --  -15.84821 -11.31159 -11.29781 -11.27721 -11.27695
 Alpha  occ. eigenvalues --  -11.27421 -11.26684 -11.26666 -11.26400 -11.26262
 Alpha  occ. eigenvalues --  -11.26077 -11.25380 -11.25211  -1.60068  -1.58863
 Alpha  occ. eigenvalues --   -1.39635  -1.38430  -1.19311  -1.17931  -1.08756
 Alpha  occ. eigenvalues --   -1.07432  -1.04687  -1.03284  -0.95635  -0.94329
 Alpha  occ. eigenvalues --   -0.86100  -0.84741  -0.82486  -0.81180  -0.77553
 Alpha  occ. eigenvalues --   -0.76258  -0.72286  -0.71379  -0.71063  -0.70437
 Alpha  occ. eigenvalues --   -0.70163  -0.69118  -0.64980  -0.64701  -0.63622
 Alpha  occ. eigenvalues --   -0.63345  -0.62045  -0.60673  -0.55214  -0.53893
 Alpha  occ. eigenvalues --   -0.53017  -0.52788  -0.51648  -0.51427  -0.49035
 Alpha  occ. eigenvalues --   -0.48960  -0.47828  -0.47782  -0.45097  -0.43928
 Alpha  occ. eigenvalues --   -0.37280  -0.36269  -0.35912  -0.34770
 Alpha virt. eigenvalues --    0.04949   0.06283   0.11388   0.12808   0.16502
 Alpha virt. eigenvalues --    0.17839   0.21496   0.22739   0.27414   0.28317
 Alpha virt. eigenvalues --    0.28697   0.29573   0.31062   0.32229   0.32576

 Mulliken charges:
               1
     1  C   -0.169602
     2  C   -0.218071
     3  C   -0.168861
     4  C    0.160414
     5  C   -0.168911
     6  C   -0.218033
     7  H    0.226157
     8  H    0.223536
     9  H    0.273475
    10  H    0.275864
    11  H    0.224230
    12  N    0.489731
    13  O   -0.458276
    14  O   -0.469171
    15  C   -0.169493
    16  C   -0.207662
    17  C   -0.157090
    18  C    0.158349
    19  C   -0.170346
    20  C   -0.217679
    21  H    0.220697
    22  H    0.223235
    23  H    0.273840
    24  H    0.269783
    25  H    0.217450
    26  N    0.488133
    27  O   -0.465348
    28  O   -0.466348
 Sum of Mulliken charges =  -0.00000

 Dipole moment (field-independent basis, Debye):
    X=              3.2989    Y=             -2.8400    Z=              0.5872  Tot=              4.3924
 Quadrupole moment (field-independent basis, Debye-Ang):
   XX=            -70.3277   YY=           -113.1559   ZZ=            -97.9545
   XY=             15.5908   XZ=             -4.3419   YZ=              5.1894

 Normal termination of Gaussian 16 at Thu May  6 08:03:09 2021.
