 Gaussian 16, Revision A.03,
 Gaussian 16:  EM64L-G16RevA.03 25-Dec-2016

 -------------
 #p 6-31g* mp2
 -------------

 ------------------------------------------------------
 Input file generated by CHIRIPA (05-May-2021 14:55:25)
 ------------------------------------------------------
 Symbolic Z-matrix:
 Charge =  0 Multiplicity = 1

                         Standard orientation:
 ---------------------------------------------------------------------
 Center     Atomic      Atomic             Coordinates (Angstroms)
 Number     Number       Type             X           Y           Z
 ---------------------------------------------------------------------
      1          6           0        2.152034    2.570136    0.861459
      2          6           0        3.504787    2.297256    0.633168
      3          6           0        3.901837    1.062342    0.111742
      4          6           0        2.915154    0.119116   -0.171224
      5          6           0        1.559459    0.361095    0.045170
      6          6           0        1.185391    1.602890    0.567250
      7          1           0        1.852522    3.532120    1.266769
      8          1           0        4.257676    3.046539    0.860715
      9          1           0        4.942111    0.824707   -0.074750
     10          1           0        0.831935   -0.405771   -0.191563
     11          1           0        0.134094    1.812047    0.743521
     12          7           0        3.323328   -1.191875   -0.723581
     13          8           0        2.434646   -2.006020   -0.964514
     14          8           0        4.524208   -1.380460   -0.905127
     15          6           0       -3.410016   -0.864346    0.684521
     16          6           0       -2.267332   -1.809382    0.311471
     17          6           0       -1.807646   -2.673663    1.485992
     18          1           0       -3.087685   -0.218542    1.512762
     19          1           0       -4.257154   -1.454875    1.060057
     20          1           0       -1.423108   -1.217343   -0.064548
     21          1           0       -2.592356   -2.452880   -0.516107
     22          1           0       -2.633338   -3.288875    1.857942
     23          1           0       -1.457446   -2.046318    2.312066
     24          1           0       -0.990215   -3.341666    1.197133
     25          6           0       -3.880562    0.006278   -0.479236
     26          6           0       -5.023245    0.951314   -0.106186
     27          6           0       -5.482932    1.815596   -1.280708
     28          1           0       -3.033423    0.596807   -0.854772
     29          1           0       -4.202894   -0.639525   -1.307478
     30          1           0       -4.698221    1.594813    0.721391
     31          1           0       -5.867470    0.359275    0.269833
     32          1           0       -5.833131    1.188249   -2.106781
     33          1           0       -4.657239    2.430808   -1.652658
     34          1           0       -6.300362    2.483598   -0.991849
 ---------------------------------------------------------------------

 SCF Done:  E(RHF) =  -669.535475001     A.U. after   15 cycles
 E2 =    -0.2091444938D+01 EUMP2 =    -0.67162691993911D+03

 The electronic state is 1-A.
 Alpha  occ. eigenvalues --  -20.60764 -20.60759 -15.85816 -11.31180 -11.27757
 Alpha  occ. eigenvalues --  -11.27740 -11.27508 -11.26778 -11.26768 -11.22026
 Alpha  occ. eigenvalues --  -11.22013 -11.21858 -11.21796 -11.21440 -11.21209
 Alpha  occ. eigenvalues --   -1.59839  -1.39392  -1.19359  -1.08857  -1.08756
 Alpha  occ. eigenvalues --   -1.04767  -1.03891  -0.96316  -0.95590  -0.87329
 Alpha  occ. eigenvalues --   -0.86165  -0.82423  -0.79958  -0.78674  -0.77466
 Alpha  occ. eigenvalues --   -0.72037  -0.71161  -0.70481  -0.65523  -0.65012
 Alpha  occ. eigenvalues --   -0.64775  -0.62168  -0.61256  -0.59670  -0.57916
 Alpha  occ. eigenvalues --   -0.55623  -0.55266  -0.53093  -0.52980  -0.52865
 Alpha  occ. eigenvalues --   -0.52722  -0.50271  -0.48795  -0.48791  -0.48253
 Alpha  occ. eigenvalues --   -0.47013  -0.46197  -0.46155  -0.44798  -0.44147
 Alpha  occ. eigenvalues --   -0.37344  -0.36368
 Alpha virt. eigenvalues --    0.05067   0.11284   0.16555   0.19071   0.22833
 Alpha virt. eigenvalues --    0.23656   0.25342   0.26426   0.27181   0.28245
 Alpha virt. eigenvalues --    0.29246   0.30761   0.31339   0.31533   0.32174

 Mulliken charges:
               1
     1  C   -0.170598
     2  C   -0.219048
     3  C   -0.169943
     4  C    0.159836
     5  C   -0.182174
     6  C   -0.222602
     7  H    0.225582
     8  H    0.223500
     9  H    0.275664
    10  H    0.289951
    11  H    0.223056
    12  N    0.486895
    13  O   -0.460228
    14  O   -0.460378
    15  C   -0.298435
    16  C   -0.302811
    17  C   -0.478129
    18  H    0.144991
    19  H    0.152933
    20  H    0.143738
    21  H    0.158642
    22  H    0.156640
    23  H    0.152003
    24  H    0.171117
    25  C   -0.297732
    26  C   -0.299586
    27  C   -0.475716
    28  H    0.143743
    29  H    0.153576
    30  H    0.149219
    31  H    0.154093
    32  H    0.157310
    33  H    0.153754
    34  H    0.161140
 Sum of Mulliken charges =  -0.00000

 Dipole moment (field-independent basis, Debye):
    X=             -1.5357    Y=              4.4769    Z=              1.9312  Tot=              5.1118
 Quadrupole moment (field-independent basis, Debye-Ang):
   XX=            -97.7826   YY=            -93.3228   ZZ=            -96.8182
   XY=             16.1545   XZ=              6.1131   YZ=              0.2223

 Normal termination of Gaussian 16 at Thu May  6 17:43:39 2021.
