 Gaussian 16, Revision A.03,
 Gaussian 16:  EM64L-G16RevA.03 25-Dec-2016

 -------------
 #p 6-31g* mp2
 -------------

 ------------------------------------------------------
 Input file generated by CHIRIPA (05-May-2021 14:57:27)
 ------------------------------------------------------
 Symbolic Z-matrix:
 Charge =  0 Multiplicity = 1

                         Standard orientation:
 ---------------------------------------------------------------------
 Center     Atomic      Atomic             Coordinates (Angstroms)
 Number     Number       Type             X           Y           Z
 ---------------------------------------------------------------------
      1          6           0        1.194254   -2.012234    0.051919
      2          6           0        2.232417   -2.052830   -0.884612
      3          6           0        3.294479   -1.146989   -0.806997
      4          6           0        3.286366   -0.209602    0.224764
      5          6           0        2.266599   -0.143889    1.172945
      6          6           0        1.214622   -1.059573    1.075903
      7          1           0        0.373136   -2.719736   -0.015920
      8          1           0        2.219226   -2.791590   -1.680918
      9          1           0        4.111056   -1.156123   -1.518711
     10          1           0        2.307432    0.604017    1.955496
     11          1           0        0.409719   -1.025708    1.804621
     12          7           0        4.405385    0.754581    0.317215
     13          8           0        4.374864    1.570733    1.235693
     14          8           0        5.291804    0.675899   -0.530551
     15          6           0       -1.143340    1.661412   -1.135933
     16          6           0       -2.221321    2.341352   -0.559597
     17          6           0       -3.311848    1.635266   -0.043126
     18          6           0       -3.291288    0.243518   -0.119965
     19          6           0       -2.232075   -0.462599   -0.688083
     20          6           0       -1.152142    0.264070   -1.198226
     21          1           0       -0.300308    2.217910   -1.534682
     22          1           0       -2.217197    3.426503   -0.509853
     23          1           0       -4.159447    2.136349    0.408436
     24          1           0       -2.264769   -1.544778   -0.723271
     25          1           0       -0.316339   -0.266632   -1.645251
     26          7           0       -4.440172   -0.514878    0.423450
     27          8           0       -4.397926   -1.740634    0.343597
     28          8           0       -5.361158    0.130807    0.918942
 ---------------------------------------------------------------------

 SCF Done:  E(RHF) =  -868.336505415     A.U. after   16 cycles
 E2 =    -0.2603016475D+01 EUMP2 =    -0.87093952189029D+03

 The electronic state is 1-A.
 Alpha  occ. eigenvalues --  -20.61464 -20.61458 -20.61324 -20.61301 -15.86518
 Alpha  occ. eigenvalues --  -15.86364 -11.31992 -11.31726 -11.28567 -11.28479
 Alpha  occ. eigenvalues --  -11.28276 -11.28267 -11.28174 -11.27845 -11.27620
 Alpha  occ. eigenvalues --  -11.27478 -11.27207 -11.27154  -1.60540  -1.60391
 Alpha  occ. eigenvalues --   -1.40089  -1.39946  -1.20179  -1.19841  -1.09566
 Alpha  occ. eigenvalues --   -1.09215  -1.05559  -1.05236  -0.96368  -0.96073
 Alpha  occ. eigenvalues --   -0.86941  -0.86622  -0.83183  -0.82898  -0.78196
 Alpha  occ. eigenvalues --   -0.77991  -0.72727  -0.72577  -0.71873  -0.71720
 Alpha  occ. eigenvalues --   -0.71287  -0.70890  -0.65797  -0.65537  -0.65455
 Alpha  occ. eigenvalues --   -0.65234  -0.62866  -0.62622  -0.56064  -0.55680
 Alpha  occ. eigenvalues --   -0.54272  -0.53631  -0.53465  -0.53020  -0.49496
 Alpha  occ. eigenvalues --   -0.49481  -0.49346  -0.49324  -0.45469  -0.45354
 Alpha  occ. eigenvalues --   -0.38443  -0.37834  -0.37334  -0.36303
 Alpha virt. eigenvalues --    0.04145   0.04638   0.10247   0.10932   0.15597
 Alpha virt. eigenvalues --    0.16205   0.19802   0.21647   0.25418   0.26663
 Alpha virt. eigenvalues --    0.27562   0.29089   0.30126   0.31052   0.31863

 Mulliken charges:
               1
     1  C   -0.183785
     2  C   -0.223638
     3  C   -0.172587
     4  C    0.157108
     5  C   -0.173708
     6  C   -0.210044
     7  H    0.228815
     8  H    0.226283
     9  H    0.277684
    10  H    0.278014
    11  H    0.230689
    12  N    0.487618
    13  O   -0.458624
    14  O   -0.458856
    15  C   -0.174481
    16  C   -0.217810
    17  C   -0.172865
    18  C    0.159440
    19  C   -0.182389
    20  C   -0.212779
    21  H    0.229883
    22  H    0.226475
    23  H    0.276711
    24  H    0.267564
    25  H    0.228233
    26  N    0.487935
    27  O   -0.463158
    28  O   -0.457728
 Sum of Mulliken charges =  -0.00000

 Dipole moment (field-independent basis, Debye):
    X=              0.2532    Y=             -0.5798    Z=             -2.1478  Tot=              2.2391
 Quadrupole moment (field-independent basis, Debye-Ang):
   XX=           -156.6413   YY=            -98.0854   ZZ=           -101.7730
   XY=            -21.7100   XZ=              1.2950   YZ=              1.5701

 Normal termination of Gaussian 16 at Thu May  6 19:49:30 2021.
