 Gaussian 16, Revision A.03,
 Gaussian 16:  EM64L-G16RevA.03 25-Dec-2016

 -------------
 #p 6-31g* mp2
 -------------

 ------------------------------------------------------
 Input file generated by CHIRIPA (05-May-2021 14:51:07)
 ------------------------------------------------------
 Symbolic Z-matrix:
 Charge =  0 Multiplicity = 1

                         Standard orientation:
 ---------------------------------------------------------------------
 Center     Atomic      Atomic             Coordinates (Angstroms)
 Number     Number       Type             X           Y           Z
 ---------------------------------------------------------------------
      1          6           0        2.765460   -0.919003   -0.253789
      2          6           0        1.765004   -1.392771    0.801016
      3          6           0        0.481936   -1.955126    0.188410
      4          1           0        2.290951   -0.152779   -0.882031
      5          1           0        3.012592   -1.758725   -0.918009
      6          1           0        1.520890   -0.552759    1.463891
      7          1           0        2.242013   -2.157819    1.426941
      8          1           0        0.706074   -2.809980   -0.457801
      9          1           0       -0.019146   -1.195800   -0.420641
     10          1           0       -0.219129   -2.287869    0.960193
     11          6           0        4.053236   -0.354172    0.343142
     12          6           0        5.053693    0.119597   -0.711663
     13          6           0        6.336761    0.681952   -0.099057
     14          1           0        3.806104    0.485550    1.007362
     15          1           0        4.527745   -1.120396    0.971384
     16          1           0        4.576684    0.884644   -1.337588
     17          1           0        5.297807   -0.720415   -1.374538
     18          1           0        6.837843   -0.077374    0.509994
     19          1           0        6.112623    1.536805    0.547154
     20          1           0        7.037826    1.014694   -0.870840
     21          6           0       -4.074920    0.361513    0.209844
     22          6           0       -4.592853   -0.823654   -0.605699
     23          6           0       -5.925199   -1.362881   -0.084278
     24          1           0       -3.962882    0.055478    1.259003
     25          1           0       -4.826362    1.163107    0.196609
     26          1           0       -3.840066   -1.622242   -0.592079
     27          1           0       -4.703488   -0.514817   -1.653075
     28          1           0       -6.694035   -0.584019   -0.113722
     29          1           0       -5.825706   -1.697736    0.953303
     30          1           0       -6.277045   -2.209666   -0.681790
     31          6           0       -2.743777    0.911662   -0.299198
     32          6           0       -2.225844    2.096828    0.516346
     33          6           0       -0.893498    2.636055   -0.005075
     34          1           0       -1.992335    0.110067   -0.285962
     35          1           0       -2.855815    1.217697   -1.348356
     36          1           0       -2.115209    1.787991    1.563721
     37          1           0       -2.978631    2.895416    0.502725
     38          1           0       -0.992990    2.970910   -1.042656
     39          1           0       -0.124662    1.857194    0.024368
     40          1           0       -0.541652    3.482840    0.592438
 ---------------------------------------------------------------------

 SCF Done:  E(RHF) =  -470.733281311     A.U. after   11 cycles
 E2 =    -0.1583143865D+01 EUMP2 =    -0.47231642517606D+03

 The electronic state is 1-A.
 Alpha  occ. eigenvalues --  -11.21662 -11.21609 -11.21604 -11.21566 -11.21433
 Alpha  occ. eigenvalues --  -11.21370 -11.21369 -11.21306 -11.21139 -11.21124
 Alpha  occ. eigenvalues --  -11.21071 -11.21045  -1.08464  -1.08409  -1.03573
 Alpha  occ. eigenvalues --   -1.03517  -0.96023  -0.95970  -0.87052  -0.86978
 Alpha  occ. eigenvalues --   -0.79645  -0.79572  -0.78290  -0.78206  -0.65190
 Alpha  occ. eigenvalues --   -0.64964  -0.61084  -0.60805  -0.59386  -0.59338
 Alpha  occ. eigenvalues --   -0.57638  -0.57575  -0.55400  -0.55190  -0.52720
 Alpha  occ. eigenvalues --   -0.52671  -0.52481  -0.52365  -0.50099  -0.49801
 Alpha  occ. eigenvalues --   -0.48015  -0.47858  -0.46772  -0.46564  -0.45903
 Alpha  occ. eigenvalues --   -0.45758  -0.45739  -0.45436  -0.43817  -0.43771
 Alpha virt. eigenvalues --    0.19801   0.22973   0.23787   0.25023   0.25875
 Alpha virt. eigenvalues --    0.26234   0.27109   0.27508   0.28496   0.29364
 Alpha virt. eigenvalues --    0.30477   0.31524   0.31678   0.31796   0.32128

 Mulliken charges:
               1
     1  C   -0.299810
     2  C   -0.300118
     3  C   -0.482697
     4  H    0.150905
     5  H    0.149793
     6  H    0.152307
     7  H    0.152412
     8  H    0.156046
     9  H    0.161267
    10  H    0.159758
    11  C   -0.298317
    12  C   -0.299771
    13  C   -0.475748
    14  H    0.149821
    15  H    0.149636
    16  H    0.152353
    17  H    0.151886
    18  H    0.155109
    19  H    0.155325
    20  H    0.160320
    21  C   -0.297532
    22  C   -0.300080
    23  C   -0.475678
    24  H    0.149446
    25  H    0.149301
    26  H    0.152813
    27  H    0.151772
    28  H    0.155045
    29  H    0.155080
    30  H    0.160222
    31  C   -0.307482
    32  C   -0.298895
    33  C   -0.478436
    34  H    0.159099
    35  H    0.149077
    36  H    0.151854
    37  H    0.152060
    38  H    0.155382
    39  H    0.156051
    40  H    0.160424
 Sum of Mulliken charges =  -0.00000

 Dipole moment (field-independent basis, Debye):
    X=              0.0225    Y=             -0.0165    Z=             -0.0069  Tot=              0.0287
 Quadrupole moment (field-independent basis, Debye-Ang):
   XX=            -86.2749   YY=            -83.9354   ZZ=            -84.5614
   XY=             -1.6151   XZ=              0.2576   YZ=             -0.3715

 Normal termination of Gaussian 16 at Thu May  6 05:14:20 2021.
