 Gaussian 16, Revision A.03,
 Gaussian 16:  EM64L-G16RevA.03 25-Dec-2016

 -------------
 #p 6-31g* mp2
 -------------

 ------------------------------------------------------
 Input file generated by CHIRIPA (05-May-2021 14:57:23)
 ------------------------------------------------------
 Symbolic Z-matrix:
 Charge =  0 Multiplicity = 1

                         Standard orientation:
 ---------------------------------------------------------------------
 Center     Atomic      Atomic             Coordinates (Angstroms)
 Number     Number       Type             X           Y           Z
 ---------------------------------------------------------------------
      1          6           0        4.365004   -1.308181   -0.419247
      2          6           0        3.906438   -0.399992   -1.379159
      3          6           0        2.968168    0.579102   -1.039203
      4          6           0        2.507704    0.621460    0.275890
      5          6           0        2.945350   -0.269272    1.254845
      6          6           0        3.883844   -1.240042    0.892380
      7          1           0        5.093962   -2.065532   -0.692076
      8          1           0        4.278362   -0.450549   -2.398552
      9          1           0        2.596189    1.294649   -1.762420
     10          1           0        2.556151   -0.193994    2.262950
     11          1           0        4.238193   -1.944047    1.639948
     12          7           0        1.514281    1.653577    0.647702
     13          8           0        1.124186    1.669888    1.813119
     14          8           0        1.144541    2.426696   -0.233330
     15          6           0       -0.312143   -1.245636   -0.625451
     16          6           0       -0.840519   -0.197799   -1.386618
     17          6           0       -2.146516    0.250501   -1.167650
     18          6           0       -2.899520   -0.374566   -0.174893
     19          6           0       -2.401381   -1.420845    0.599995
     20          6           0       -1.092884   -1.852745    0.363682
     21          1           0        0.703359   -1.587517   -0.802288
     22          1           0       -0.236485    0.275557   -2.155463
     23          1           0       -2.580535    1.059679   -1.742345
     24          1           0       -3.027748   -1.873032    1.359342
     25          1           0       -0.685156   -2.666721    0.956342
     26          7           0       -4.283445    0.091348    0.066100
     27          8           0       -4.926381   -0.475949    0.946693
     28          8           0       -4.699024    1.015005   -0.630166
 ---------------------------------------------------------------------

 SCF Done:  E(RHF) =  -868.336706601     A.U. after   16 cycles
 E2 =    -0.2604712493D+01 EUMP2 =    -0.87094141909449D+03

 The electronic state is 1-A.
 Alpha  occ. eigenvalues --  -20.61529 -20.61494 -20.60231 -20.60219 -15.86548
 Alpha  occ. eigenvalues --  -15.85282 -11.32172 -11.30649 -11.28784 -11.28719
 Alpha  occ. eigenvalues --  -11.28532 -11.27872 -11.27825 -11.27262 -11.27199
 Alpha  occ. eigenvalues --  -11.26989 -11.26331 -11.26249  -1.60558  -1.59299
 Alpha  occ. eigenvalues --   -1.40116  -1.38854  -1.20408  -1.18844  -1.09721
 Alpha  occ. eigenvalues --   -1.08265  -1.05829  -1.04249  -0.96510  -0.95089
 Alpha  occ. eigenvalues --   -0.87191  -0.85674  -0.83335  -0.81916  -0.78354
 Alpha  occ. eigenvalues --   -0.76944  -0.72783  -0.71924  -0.71506  -0.71444
 Alpha  occ. eigenvalues --   -0.70611  -0.69995  -0.66018  -0.65789  -0.64514
 Alpha  occ. eigenvalues --   -0.64297  -0.63142  -0.61603  -0.56262  -0.55213
 Alpha  occ. eigenvalues --   -0.53880  -0.53763  -0.52541  -0.52367  -0.49553
 Alpha  occ. eigenvalues --   -0.49524  -0.48269  -0.48255  -0.45475  -0.44259
 Alpha  occ. eigenvalues --   -0.38538  -0.37495  -0.36672  -0.35791
 Alpha virt. eigenvalues --    0.04079   0.05658   0.10002   0.11888   0.15645
 Alpha virt. eigenvalues --    0.17062   0.20244   0.21879   0.25780   0.26986
 Alpha virt. eigenvalues --    0.28145   0.28578   0.29946   0.30845   0.32227

 Mulliken charges:
               1
     1  C   -0.173646
     2  C   -0.220049
     3  C   -0.182084
     4  C    0.161418
     5  C   -0.174102
     6  C   -0.220497
     7  H    0.229286
     8  H    0.226820
     9  H    0.275016
    10  H    0.279112
    11  H    0.226959
    12  N    0.492655
    13  O   -0.454229
    14  O   -0.461285
    15  C   -0.183690
    16  C   -0.216114
    17  C   -0.163785
    18  C    0.159466
    19  C   -0.168972
    20  C   -0.217133
    21  H    0.226921
    22  H    0.221274
    23  H    0.277540
    24  H    0.274079
    25  H    0.218280
    26  N    0.488446
    27  O   -0.462165
    28  O   -0.459519
 Sum of Mulliken charges =  -0.00000

 Dipole moment (field-independent basis, Debye):
    X=              8.4630    Y=             -5.0779    Z=             -2.0380  Tot=             10.0778
 Quadrupole moment (field-independent basis, Debye-Ang):
   XX=           -116.3186   YY=           -106.3544   ZZ=            -98.5385
   XY=             -4.0523   XZ=             -0.9730   YZ=             -5.9755

 Normal termination of Gaussian 16 at Thu May  6 03:26:07 2021.
