 Gaussian 16, Revision A.03,
 Gaussian 16:  EM64L-G16RevA.03 25-Dec-2016

 -------------
 #p 6-31g* mp2
 -------------

 ------------------------------------------------------
 Input file generated by CHIRIPA (05-May-2021 14:57:26)
 ------------------------------------------------------
 Symbolic Z-matrix:
 Charge =  0 Multiplicity = 1

                         Standard orientation:
 ---------------------------------------------------------------------
 Center     Atomic      Atomic             Coordinates (Angstroms)
 Number     Number       Type             X           Y           Z
 ---------------------------------------------------------------------
      1          6           0        3.787919    2.312782   -0.852446
      2          6           0        2.617020    1.610711   -0.548125
      3          6           0        2.677037    0.279936   -0.123878
      4          6           0        3.930380   -0.320457   -0.014565
      5          6           0        5.114835    0.352468   -0.310415
      6          6           0        5.030898    1.682531   -0.732831
      7          1           0        3.732006    3.346283   -1.181300
      8          1           0        1.650325    2.097625   -0.640107
      9          1           0        1.786324   -0.287024    0.118206
     10          1           0        6.063932   -0.159752   -0.209110
     11          1           0        5.941886    2.225312   -0.968491
     12          7           0        4.006578   -1.728912    0.433596
     13          8           0        5.123060   -2.235199    0.521786
     14          8           0        2.948377   -2.299902    0.688190
     15          6           0       -2.119336    1.556330    1.076528
     16          6           0       -3.452629    1.979086    1.087808
     17          6           0       -4.457410    1.173913    0.543144
     18          6           0       -4.091692   -0.053594   -0.007098
     19          6           0       -2.772228   -0.502612   -0.033346
     20          6           0       -1.783982    0.319012    0.516973
     21          1           0       -1.345221    2.188198    1.501832
     22          1           0       -3.715992    2.939517    1.521693
     23          1           0       -5.497480    1.476653    0.538632
     24          1           0       -2.540489   -1.465148   -0.472936
     25          1           0       -0.749356   -0.011880    0.506826
     26          7           0       -5.146657   -0.914703   -0.586702
     27          8           0       -4.798460   -1.991807   -1.065497
     28          8           0       -6.301759   -0.496231   -0.551228
 ---------------------------------------------------------------------

 SCF Done:  E(RHF) =  -868.336726696     A.U. after   16 cycles
 E2 =    -0.2599747185D+01 EUMP2 =    -0.87093647388071D+03

 The electronic state is 1-A.
 Alpha  occ. eigenvalues --  -20.61401 -20.61384 -20.60953 -20.60944 -15.86452
 Alpha  occ. eigenvalues --  -15.86010 -11.31923 -11.31497 -11.28614 -11.28434
 Alpha  occ. eigenvalues --  -11.28214 -11.28090 -11.28087 -11.27936 -11.27584
 Alpha  occ. eigenvalues --  -11.27456 -11.27233 -11.27136  -1.60466  -1.60025
 Alpha  occ. eigenvalues --   -1.40019  -1.39574  -1.20093  -1.19703  -1.09455
 Alpha  occ. eigenvalues --   -1.09092  -1.05528  -1.05126  -0.96283  -0.95895
 Alpha  occ. eigenvalues --   -0.86912  -0.86534  -0.83124  -0.82723  -0.78175
 Alpha  occ. eigenvalues --   -0.77731  -0.72668  -0.72227  -0.71789  -0.71350
 Alpha  occ. eigenvalues --   -0.71206  -0.70832  -0.65753  -0.65548  -0.65364
 Alpha  occ. eigenvalues --   -0.65163  -0.62935  -0.62411  -0.55992  -0.55669
 Alpha  occ. eigenvalues --   -0.53823  -0.53657  -0.53446  -0.53199  -0.49435
 Alpha  occ. eigenvalues --   -0.49417  -0.48999  -0.48971  -0.45402  -0.44952
 Alpha  occ. eigenvalues --   -0.38046  -0.37718  -0.37127  -0.36723
 Alpha virt. eigenvalues --    0.04394   0.04806   0.10532   0.10884   0.15873
 Alpha virt. eigenvalues --    0.16250   0.17781   0.22025   0.24272   0.26294
 Alpha virt. eigenvalues --    0.27970   0.29054   0.30026   0.30948   0.32211

 Mulliken charges:
               1
     1  C   -0.170262
     2  C   -0.220522
     3  C   -0.178811
     4  C    0.161641
     5  C   -0.169286
     6  C   -0.218103
     7  H    0.227592
     8  H    0.219914
     9  H    0.274115
    10  H    0.278170
    11  H    0.226317
    12  N    0.487604
    13  O   -0.456886
    14  O   -0.461620
    15  C   -0.174241
    16  C   -0.218276
    17  C   -0.170166
    18  C    0.159010
    19  C   -0.171150
    20  C   -0.223551
    21  H    0.223023
    22  H    0.224030
    23  H    0.276918
    24  H    0.280457
    25  H    0.223992
    26  N    0.487943
    27  O   -0.457932
    28  O   -0.459920
 Sum of Mulliken charges =  -0.00000

 Dipole moment (field-independent basis, Debye):
    X=              3.5362    Y=              7.9615    Z=              0.4131  Tot=              8.7213
 Quadrupole moment (field-independent basis, Debye-Ang):
   XX=           -128.2667   YY=           -106.7619   ZZ=           -106.1219
   XY=              4.7589   XZ=            -16.1983   YZ=              1.1744

 Normal termination of Gaussian 16 at Wed May  5 22:49:25 2021.
