 Gaussian 16, Revision A.03,
 Gaussian 16:  EM64L-G16RevA.03 25-Dec-2016

 -------------
 #p 6-31g* mp2
 -------------

 ------------------------------------------------------
 Input file generated by CHIRIPA (05-May-2021 14:51:10)
 ------------------------------------------------------
 Symbolic Z-matrix:
 Charge =  0 Multiplicity = 1

                         Standard orientation:
 ---------------------------------------------------------------------
 Center     Atomic      Atomic             Coordinates (Angstroms)
 Number     Number       Type             X           Y           Z
 ---------------------------------------------------------------------
      1          6           0        2.359289    0.477145   -0.490439
      2          6           0        2.799510    1.825863    0.079782
      3          6           0        2.654943    2.968436   -0.925913
      4          1           0        2.952259    0.254617   -1.388110
      5          1           0        1.312628    0.549074   -0.817122
      6          1           0        3.844607    1.751012    0.406563
      7          1           0        2.205555    2.045117    0.976309
      8          1           0        1.612553    3.071887   -1.244224
      9          1           0        3.260918    2.776111   -1.817207
     10          1           0        2.975200    3.923292   -0.497492
     11          6           0        2.497920   -0.674974    0.503105
     12          6           0        2.057699   -2.023692   -0.067115
     13          6           0        2.202267   -3.166265    0.938579
     14          1           0        3.544582   -0.746902    0.829788
     15          1           0        1.904950   -0.452446    1.400776
     16          1           0        2.651655   -2.242945   -0.963642
     17          1           0        1.012602   -1.948840   -0.393896
     18          1           0        1.596292   -2.973939    1.829874
     19          1           0        3.244657   -3.269715    1.256890
     20          1           0        1.882009   -4.121121    0.510158
     21          6           0       -2.803361   -0.544409   -0.176993
     22          6           0       -1.880845   -1.744703   -0.392035
     23          6           0       -2.645313   -3.024287   -0.732695
     24          1           0       -3.512781   -0.775122    0.629506
     25          1           0       -3.402559   -0.384190   -1.084013
     26          1           0       -1.282576   -1.901761    0.514620
     27          1           0       -1.173414   -1.511034   -1.197984
     28          1           0       -3.229357   -2.891692   -1.649162
     29          1           0       -3.339139   -3.284637    0.073173
     30          1           0       -1.966526   -3.869701   -0.882307
     31          6           0       -2.053849    0.742237    0.164327
     32          6           0       -2.976364    1.942532    0.379368
     33          6           0       -2.211896    3.222116    0.720029
     34          1           0       -1.454650    0.582019    1.071347
     35          1           0       -1.344428    0.972950   -0.642171
     36          1           0       -3.683796    1.708863    1.185318
     37          1           0       -3.574634    2.099589   -0.527287
     38          1           0       -1.518071    3.482466   -0.085840
     39          1           0       -1.627853    3.089520    1.636496
     40          1           0       -2.890683    4.067529    0.869641
 ---------------------------------------------------------------------

 SCF Done:  E(RHF) =  -470.732524735     A.U. after   11 cycles
 E2 =    -0.1584943914D+01 EUMP2 =    -0.47231746864975D+03

 The electronic state is 1-A.
 Alpha  occ. eigenvalues --  -11.21703 -11.21694 -11.21538 -11.21522 -11.21458
 Alpha  occ. eigenvalues --  -11.21388 -11.21310 -11.21252 -11.21150 -11.21149
 Alpha  occ. eigenvalues --  -11.21040 -11.21005  -1.08557  -1.08327  -1.03647
 Alpha  occ. eigenvalues --   -1.03431  -0.96078  -0.95903  -0.87096  -0.86918
 Alpha  occ. eigenvalues --   -0.79807  -0.79436  -0.78481  -0.78048  -0.65178
 Alpha  occ. eigenvalues --   -0.64971  -0.61025  -0.60902  -0.59461  -0.59233
 Alpha  occ. eigenvalues --   -0.57736  -0.57474  -0.55363  -0.55188  -0.52768
 Alpha  occ. eigenvalues --   -0.52595  -0.52528  -0.52306  -0.50044  -0.49830
 Alpha  occ. eigenvalues --   -0.48292  -0.47668  -0.46760  -0.46503  -0.46361
 Alpha  occ. eigenvalues --   -0.45823  -0.45649  -0.45014  -0.43874  -0.43690
 Alpha virt. eigenvalues --    0.20046   0.21975   0.23726   0.23994   0.25521
 Alpha virt. eigenvalues --    0.25955   0.26486   0.28235   0.28572   0.29682
 Alpha virt. eigenvalues --    0.30866   0.31370   0.31654   0.31815   0.32413

 Mulliken charges:
               1
     1  C   -0.303098
     2  C   -0.299267
     3  C   -0.476040
     4  H    0.148951
     5  H    0.154097
     6  H    0.151713
     7  H    0.152242
     8  H    0.154634
     9  H    0.154925
    10  H    0.160348
    11  C   -0.297218
    12  C   -0.310935
    13  C   -0.475297
    14  H    0.148951
    15  H    0.148590
    16  H    0.150448
    17  H    0.165770
    18  H    0.153919
    19  H    0.154917
    20  H    0.159449
    21  C   -0.297162
    22  C   -0.305986
    23  C   -0.475818
    24  H    0.150089
    25  H    0.149897
    26  H    0.154750
    27  H    0.154849
    28  H    0.155521
    29  H    0.155608
    30  H    0.161072
    31  C   -0.302511
    32  C   -0.299569
    33  C   -0.476435
    34  H    0.149523
    35  H    0.152554
    36  H    0.152418
    37  H    0.152331
    38  H    0.155668
    39  H    0.155222
    40  H    0.160881
 Sum of Mulliken charges =  -0.00000

 Dipole moment (field-independent basis, Debye):
    X=             -0.1043    Y=              0.0012    Z=             -0.0134  Tot=              0.1052
 Quadrupole moment (field-independent basis, Debye-Ang):
   XX=            -84.1153   YY=            -86.6026   ZZ=            -84.1339
   XY=             -0.4223   XZ=             -0.5178   YZ=              0.2134

 Normal termination of Gaussian 16 at Wed May  5 18:11:26 2021.
