 Gaussian 16, Revision A.03,
 Gaussian 16:  EM64L-G16RevA.03 25-Dec-2016

 -------------
 #p 6-31g* mp2
 -------------

 ------------------------------------------------------
 Input file generated by CHIRIPA (05-May-2021 14:53:15)
 ------------------------------------------------------
 Symbolic Z-matrix:
 Charge =  0 Multiplicity = 1

                         Standard orientation:
 ---------------------------------------------------------------------
 Center     Atomic      Atomic             Coordinates (Angstroms)
 Number     Number       Type             X           Y           Z
 ---------------------------------------------------------------------
      1          6           0        1.931971    1.175851   -0.032953
      2          6           0        2.038864    2.174280   -1.186079
      3          6           0        1.190303    3.426684   -0.964218
      4          1           0        0.879716    0.888925    0.098868
      5          1           0        2.240728    1.668659    0.899358
      6          1           0        1.731317    1.679332   -2.116163
      7          1           0        3.091012    2.458715   -1.315295
      8          1           0        1.500830    3.945735   -0.051661
      9          1           0        0.133409    3.161922   -0.857079
     10          1           0        1.281573    4.126795   -1.800504
     11          6           0        2.774658   -0.081404   -0.240119
     12          6           0        2.667765   -1.079834    0.913006
     13          6           0        3.516326   -2.332238    0.691146
     14          1           0        2.465901   -0.574213   -1.172430
     15          1           0        3.826913    0.205521   -0.371941
     16          1           0        1.615617   -1.364269    1.042223
     17          1           0        2.975312   -0.584885    1.843091
     18          1           0        4.573220   -2.067476    0.584007
     19          1           0        3.205799   -2.851288   -0.221411
     20          1           0        3.425056   -3.032349    1.527432
     21          6           0       -1.501132   -2.286856   -1.565141
     22          6           0       -0.966960   -2.398091   -0.277194
     23          6           0       -1.147685   -1.374072    0.657298
     24          6           0       -1.871145   -0.247764    0.268294
     25          6           0       -2.415683   -0.107471   -1.007280
     26          6           0       -2.222516   -1.143917   -1.925439
     27          1           0       -1.355908   -3.087165   -2.284733
     28          1           0       -0.406286   -3.284562    0.005394
     29          1           0       -0.745026   -1.434185    1.661125
     30          1           0       -2.969985    0.788323   -1.259711
     31          1           0       -2.638502   -1.054806   -2.924968
     32          7           0       -2.069056    0.842895    1.248952
     33          8           0       -2.710314    1.824948    0.881530
     34          8           0       -1.579173    0.695052    2.366447
 ---------------------------------------------------------------------

 SCF Done:  E(RHF) =  -669.534175194     A.U. after   15 cycles
 E2 =    -0.2095756863D+01 EUMP2 =    -0.67162993205641D+03

 The electronic state is 1-A.
 Alpha  occ. eigenvalues --  -20.60893 -20.60883 -15.85927 -11.31300 -11.27891
 Alpha  occ. eigenvalues --  -11.27871 -11.27630 -11.26901 -11.26891 -11.21754
 Alpha  occ. eigenvalues --  -11.21425 -11.21418 -11.21408 -11.21170 -11.20687
 Alpha  occ. eigenvalues --   -1.59954  -1.39507  -1.19509  -1.08889  -1.08401
 Alpha  occ. eigenvalues --   -1.04914  -1.03517  -0.95953  -0.95719  -0.86968
 Alpha  occ. eigenvalues --   -0.86299  -0.82553  -0.79605  -0.78217  -0.77574
 Alpha  occ. eigenvalues --   -0.72147  -0.71288  -0.70606  -0.65183  -0.65047
 Alpha  occ. eigenvalues --   -0.64891  -0.62285  -0.60900  -0.59352  -0.57559
 Alpha  occ. eigenvalues --   -0.55396  -0.55257  -0.53267  -0.52999  -0.52649
 Alpha  occ. eigenvalues --   -0.52363  -0.49907  -0.48910  -0.48902  -0.47903
 Alpha  occ. eigenvalues --   -0.46654  -0.45740  -0.45642  -0.44863  -0.43751
 Alpha  occ. eigenvalues --   -0.37432  -0.36417
 Alpha virt. eigenvalues --    0.04893   0.11058   0.16291   0.20750   0.23018
 Alpha virt. eigenvalues --    0.24022   0.26042   0.27025   0.27551   0.28064
 Alpha virt. eigenvalues --    0.28576   0.30807   0.31102   0.31728   0.32142

 Mulliken charges:
               1
     1  C   -0.300749
     2  C   -0.299796
     3  C   -0.477004
     4  H    0.149813
     5  H    0.154668
     6  H    0.147944
     7  H    0.150788
     8  H    0.158925
     9  H    0.159413
    10  H    0.157913
    11  C   -0.296761
    12  C   -0.302792
    13  C   -0.476198
    14  H    0.146369
    15  H    0.149969
    16  H    0.147056
    17  H    0.156694
    18  H    0.158312
    19  H    0.149973
    20  H    0.158297
    21  C   -0.171387
    22  C   -0.215877
    23  C   -0.172499
    24  C    0.156268
    25  C   -0.172947
    26  C   -0.217987
    27  H    0.226380
    28  H    0.225470
    29  H    0.277331
    30  H    0.276296
    31  H    0.224152
    32  N    0.491043
    33  O   -0.460371
    34  O   -0.458705
 Sum of Mulliken charges =  -0.00000

 Dipole moment (field-independent basis, Debye):
    X=              0.5973    Y=             -3.7673    Z=             -3.3946  Tot=              5.1061
 Quadrupole moment (field-independent basis, Debye-Ang):
   XX=            -96.3507   YY=            -92.7147   ZZ=            -94.4506
   XY=              6.6478   XZ=              9.3455   YZ=             -1.7110

 Normal termination of Gaussian 16 at Wed May  5 18:41:10 2021.
