 Gaussian 16, Revision A.03,
 Gaussian 16:  EM64L-G16RevA.03 25-Dec-2016

 -------------
 #p 6-31g* mp2
 -------------

 ------------------------------------------------------
 Input file generated by CHIRIPA (05-May-2021 14:57:22)
 ------------------------------------------------------
 Symbolic Z-matrix:
 Charge =  0 Multiplicity = 1

                         Standard orientation:
 ---------------------------------------------------------------------
 Center     Atomic      Atomic             Coordinates (Angstroms)
 Number     Number       Type             X           Y           Z
 ---------------------------------------------------------------------
      1          6           0        6.245538    1.252626   -0.007216
      2          6           0        5.141968    1.707123    0.722226
      3          6           0        3.938766    0.995352    0.706891
      4          6           0        3.873971   -0.172136   -0.052098
      5          6           0        4.955961   -0.650671   -0.789384
      6          6           0        6.149182    0.077251   -0.759367
      7          1           0        7.176337    1.811820    0.010399
      8          1           0        5.213912    2.619605    1.307245
      9          1           0        3.068957    1.324525    1.262314
     10          1           0        4.853831   -1.563755   -1.363201
     11          1           0        7.004608   -0.278096   -1.326835
     12          7           0        2.605478   -0.934206   -0.076104
     13          8           0        2.574070   -1.959829   -0.752675
     14          8           0        1.666662   -0.491463    0.582105
     15          6           0       -3.047487   -2.174379    0.649053
     16          6           0       -4.318679   -2.129294    0.067194
     17          6           0       -4.902209   -0.904376   -0.269875
     18          6           0       -4.183146    0.261247   -0.009953
     19          6           0       -2.914929    0.249109    0.568636
     20          6           0       -2.350897   -0.987127    0.897480
     21          1           0       -2.601760   -3.130321    0.907701
     22          1           0       -4.861975   -3.049733   -0.126885
     23          1           0       -5.884825   -0.840547   -0.721329
     24          1           0       -2.397740    1.183474    0.750010
     25          1           0       -1.363515   -1.019109    1.349253
     26          7           0       -4.790582    1.564004   -0.362438
     27          8           0       -4.136490    2.576715   -0.123235
     28          8           0       -5.909282    1.547727   -0.871246
 ---------------------------------------------------------------------

 SCF Done:  E(RHF) =  -868.340262857     A.U. after   16 cycles
 E2 =    -0.2598131120D+01 EUMP2 =    -0.87093839397720D+03

 The electronic state is 1-A.
 Alpha  occ. eigenvalues --  -20.61585 -20.61560 -20.60014 -20.60009 -15.86606
 Alpha  occ. eigenvalues --  -15.85055 -11.31706 -11.30197 -11.28246 -11.28236
 Alpha  occ. eigenvalues --  -11.27932 -11.27197 -11.27187 -11.26761 -11.26641
 Alpha  occ. eigenvalues --  -11.26358 -11.25759 -11.25470  -1.60633  -1.59093
 Alpha  occ. eigenvalues --   -1.40196  -1.38653  -1.19851  -1.18319  -1.09295
 Alpha  occ. eigenvalues --   -1.07751  -1.05215  -1.03666  -0.96176  -0.94634
 Alpha  occ. eigenvalues --   -0.86626  -0.85072  -0.83022  -0.81461  -0.78095
 Alpha  occ. eigenvalues --   -0.76544  -0.72849  -0.71930  -0.71282  -0.70957
 Alpha  occ. eigenvalues --   -0.70411  -0.69427  -0.65511  -0.65215  -0.63959
 Alpha  occ. eigenvalues --   -0.63626  -0.62567  -0.61004  -0.55724  -0.54170
 Alpha  occ. eigenvalues --   -0.53557  -0.53304  -0.52033  -0.51731  -0.49600
 Alpha  occ. eigenvalues --   -0.49561  -0.48049  -0.48012  -0.45657  -0.44109
 Alpha  occ. eigenvalues --   -0.37814  -0.36805  -0.36287  -0.35261
 Alpha virt. eigenvalues --    0.04427   0.05947   0.10853   0.12391   0.15977
 Alpha virt. eigenvalues --    0.17519   0.21010   0.22595   0.26945   0.27807
 Alpha virt. eigenvalues --    0.28593   0.29363   0.30611   0.31961   0.32279

 Mulliken charges:
               1
     1  C   -0.169805
     2  C   -0.218366
     3  C   -0.170173
     4  C    0.157833
     5  C   -0.170287
     6  C   -0.218509
     7  H    0.227699
     8  H    0.225577
     9  H    0.274635
    10  H    0.276036
    11  H    0.225110
    12  N    0.491506
    13  O   -0.458090
    14  O   -0.470920
    15  C   -0.171747
    16  C   -0.218668
    17  C   -0.173462
    18  C    0.157920
    19  C   -0.173433
    20  C   -0.219835
    21  H    0.226333
    22  H    0.219778
    23  H    0.271774
    24  H    0.273502
    25  H    0.243948
    26  N    0.488232
    27  O   -0.463089
    28  O   -0.463499
 Sum of Mulliken charges =  -0.00000

 Dipole moment (field-independent basis, Debye):
    X=              7.1715    Y=             -1.9609    Z=              1.3610  Tot=              7.5583
 Quadrupole moment (field-independent basis, Debye-Ang):
   XX=            -85.1475   YY=           -105.6718   ZZ=           -103.6623
   XY=             30.6160   XZ=             -5.3021   YZ=              3.5903

 Normal termination of Gaussian 16 at Fri May  7 01:44:04 2021.
