 Gaussian 16, Revision A.03,
 Gaussian 16:  EM64L-G16RevA.03 25-Dec-2016

 -------------
 #p 6-31g* mp2
 -------------

 ------------------------------------------------------
 Input file generated by CHIRIPA (05-May-2021 14:57:27)
 ------------------------------------------------------
 Symbolic Z-matrix:
 Charge =  0 Multiplicity = 1

                         Standard orientation:
 ---------------------------------------------------------------------
 Center     Atomic      Atomic             Coordinates (Angstroms)
 Number     Number       Type             X           Y           Z
 ---------------------------------------------------------------------
      1          6           0       -3.171861   -2.332918   -0.113030
      2          6           0       -4.519579   -1.974253   -0.220434
      3          6           0       -4.898878   -0.628652   -0.214129
      4          6           0       -3.899770    0.336580   -0.098372
      5          6           0       -2.548677    0.010960    0.010297
      6          6           0       -2.192438   -1.340916    0.001790
      7          1           0       -2.886169   -3.380651   -0.118782
      8          1           0       -5.282366   -2.742516   -0.309730
      9          1           0       -5.934888   -0.322990   -0.295813
     10          1           0       -1.810987    0.799339    0.097988
     11          1           0       -1.145012   -1.616526    0.085355
     12          7           0       -4.289111    1.764429   -0.090533
     13          8           0       -3.389737    2.595774    0.012567
     14          8           0       -5.486278    2.025196   -0.187636
     15          6           0        5.845828    1.176997   -0.731593
     16          6           0        5.286625    1.484206    0.513170
     17          6           0        4.172774    0.782504    0.983806
     18          6           0        3.641261   -0.224830    0.180028
     19          6           0        4.175781   -0.554302   -1.064571
     20          6           0        5.289602    0.160515   -1.515110
     21          1           0        6.711083    1.727191   -1.089388
     22          1           0        5.716500    2.273118    1.123800
     23          1           0        3.719890    0.999694    1.943568
     24          1           0        3.725166   -1.346003   -1.650724
     25          1           0        5.721795   -0.080230   -2.482217
     26          7           0        2.462092   -0.974633    0.667631
     27          8           0        2.012482   -1.857643   -0.059542
     28          8           0        2.009799   -0.665120    1.767753
 ---------------------------------------------------------------------

 SCF Done:  E(RHF) =  -868.340895911     A.U. after   16 cycles
 E2 =    -0.2598322855D+01 EUMP2 =    -0.87093921876594D+03

 The electronic state is 1-A.
 Alpha  occ. eigenvalues --  -20.61735 -20.61727 -20.60067 -20.60061 -15.86728
 Alpha  occ. eigenvalues --  -15.85107 -11.31757 -11.30262 -11.28294 -11.28267
 Alpha  occ. eigenvalues --  -11.27962 -11.27224 -11.27202 -11.26829 -11.26699
 Alpha  occ. eigenvalues --  -11.26429 -11.25833 -11.25503  -1.60789  -1.59145
 Alpha  occ. eigenvalues --   -1.40346  -1.38704  -1.19896  -1.18384  -1.09356
 Alpha  occ. eigenvalues --   -1.07815  -1.05245  -1.03729  -0.96245  -0.94697
 Alpha  occ. eigenvalues --   -0.86659  -0.85133  -0.83087  -0.81519  -0.78173
 Alpha  occ. eigenvalues --   -0.76598  -0.72950  -0.72084  -0.71334  -0.70998
 Alpha  occ. eigenvalues --   -0.70463  -0.69495  -0.65550  -0.65244  -0.64021
 Alpha  occ. eigenvalues --   -0.63679  -0.62594  -0.61059  -0.55759  -0.54238
 Alpha  occ. eigenvalues --   -0.53593  -0.53331  -0.52104  -0.51787  -0.49725
 Alpha  occ. eigenvalues --   -0.49687  -0.48100  -0.48064  -0.45818  -0.44157
 Alpha  occ. eigenvalues --   -0.37855  -0.36829  -0.36363  -0.35329
 Alpha virt. eigenvalues --    0.04306   0.05885   0.10830   0.12320   0.15872
 Alpha virt. eigenvalues --    0.17452   0.21002   0.22588   0.26942   0.27834
 Alpha virt. eigenvalues --    0.28614   0.29291   0.30604   0.32025   0.32271

 Mulliken charges:
               1
     1  C   -0.172790
     2  C   -0.218641
     3  C   -0.173553
     4  C    0.158022
     5  C   -0.173096
     6  C   -0.226329
     7  H    0.225993
     8  H    0.219700
     9  H    0.271904
    10  H    0.274059
    11  H    0.248108
    12  N    0.488200
    13  O   -0.462786
    14  O   -0.463449
    15  C   -0.169335
    16  C   -0.218368
    17  C   -0.169950
    18  C    0.157447
    19  C   -0.170400
    20  C   -0.218437
    21  H    0.228135
    22  H    0.226199
    23  H    0.277174
    24  H    0.275039
    25  H    0.225257
    26  N    0.488110
    27  O   -0.467746
    28  O   -0.458469
 Sum of Mulliken charges =  -0.00000

 Dipole moment (field-independent basis, Debye):
    X=              6.1135    Y=             -2.3968    Z=             -1.7000  Tot=              6.7830
 Quadrupole moment (field-independent basis, Debye-Ang):
   XX=            -81.5382   YY=           -108.7878   ZZ=           -102.8483
   XY=             31.1337   XZ=             -5.3419   YZ=              4.1472

 Normal termination of Gaussian 16 at Fri May  7 06:39:03 2021.
