 Gaussian 16, Revision A.03,
 Gaussian 16:  EM64L-G16RevA.03 25-Dec-2016

 -------------
 #p 6-31g* mp2
 -------------

 ------------------------------------------------------
 Input file generated by CHIRIPA (05-May-2021 14:51:07)
 ------------------------------------------------------
 Symbolic Z-matrix:
 Charge =  0 Multiplicity = 1

                         Standard orientation:
 ---------------------------------------------------------------------
 Center     Atomic      Atomic             Coordinates (Angstroms)
 Number     Number       Type             X           Y           Z
 ---------------------------------------------------------------------
      1          6           0        3.602625   -0.104808    0.235705
      2          6           0        4.851068   -0.263948   -0.632655
      3          6           0        5.925320    0.778212   -0.320119
      4          1           0        3.190186    0.903321    0.092470
      5          1           0        3.888867   -0.177954    1.294057
      6          1           0        4.562349   -0.191905   -1.689096
      7          1           0        5.260472   -1.271881   -0.487482
      8          1           0        6.241776    0.703689    0.725301
      9          1           0        5.539686    1.789801   -0.483141
     10          1           0        6.808908    0.646003   -0.952299
     11          6           0        2.519627   -1.139427   -0.064972
     12          6           0        1.271184   -0.980287    0.803388
     13          6           0        0.196932   -2.022447    0.490852
     14          1           0        2.233384   -1.066281   -1.123325
     15          1           0        2.932065   -2.147556    0.078262
     16          1           0        0.861779    0.027646    0.658215
     17          1           0        1.559902   -1.052330    1.859829
     18          1           0        0.582565   -3.034036    0.653873
     19          1           0       -0.119524   -1.947924   -0.554568
     20          1           0       -0.686657   -1.890238    1.123032
     21          6           0       -3.107366   -0.126996    0.056490
     22          6           0       -4.346032   -0.784261   -0.553176
     23          6           0       -4.424454   -2.282969   -0.260739
     24          1           0       -2.207834   -0.625085   -0.330415
     25          1           0       -3.111821   -0.289738    1.143177
     26          1           0       -4.339958   -0.619139   -1.638217
     27          1           0       -5.242714   -0.284424   -0.164922
     28          1           0       -4.455405   -2.463763    0.818592
     29          1           0       -3.547520   -2.800380   -0.663073
     30          1           0       -5.317519   -2.732657   -0.705797
     31          6           0       -3.014885    1.371231   -0.227222
     32          6           0       -1.776219    2.028496    0.382443
     33          6           0       -1.697797    3.527204    0.090006
     34          1           0       -3.010431    1.533973   -1.313910
     35          1           0       -3.914417    1.869320    0.159682
     36          1           0       -0.879538    1.528658   -0.005811
     37          1           0       -1.782294    1.863373    1.467484
     38          1           0       -2.574731    4.044615    0.492341
     39          1           0       -1.666846    3.707998   -0.989325
     40          1           0       -0.804732    3.976892    0.535065
 ---------------------------------------------------------------------

 SCF Done:  E(RHF) =  -470.731902228     A.U. after   11 cycles
 E2 =    -0.1584485521D+01 EUMP2 =    -0.47231638774961D+03

 The electronic state is 1-A.
 Alpha  occ. eigenvalues --  -11.21611 -11.21604 -11.21556 -11.21555 -11.21402
 Alpha  occ. eigenvalues --  -11.21364 -11.21343 -11.21246 -11.21092 -11.21073
 Alpha  occ. eigenvalues --  -11.21031 -11.21016  -1.08457  -1.08378  -1.03524
 Alpha  occ. eigenvalues --   -1.03518  -0.96018  -0.95923  -0.87058  -0.86923
 Alpha  occ. eigenvalues --   -0.79724  -0.79460  -0.78267  -0.78206  -0.65224
 Alpha  occ. eigenvalues --   -0.64909  -0.60972  -0.60885  -0.59384  -0.59304
 Alpha  occ. eigenvalues --   -0.57657  -0.57509  -0.55397  -0.55150  -0.52773
 Alpha  occ. eigenvalues --   -0.52639  -0.52439  -0.52287  -0.50101  -0.49770
 Alpha  occ. eigenvalues --   -0.48111  -0.47760  -0.46860  -0.46356  -0.45901
 Alpha  occ. eigenvalues --   -0.45741  -0.45652  -0.45427  -0.43765  -0.43714
 Alpha virt. eigenvalues --    0.21117   0.23104   0.23859   0.24090   0.25826
 Alpha virt. eigenvalues --    0.26297   0.27332   0.27389   0.27888   0.29781
 Alpha virt. eigenvalues --    0.30518   0.31115   0.31584   0.31897   0.32173

 Mulliken charges:
               1
     1  C   -0.298202
     2  C   -0.299614
     3  C   -0.475712
     4  H    0.149343
     5  H    0.149651
     6  H    0.151788
     7  H    0.151987
     8  H    0.155207
     9  H    0.155177
    10  H    0.160245
    11  C   -0.297890
    12  C   -0.307703
    13  C   -0.479593
    14  H    0.148840
    15  H    0.149740
    16  H    0.159108
    17  H    0.152139
    18  H    0.155427
    19  H    0.152907
    20  H    0.166143
    21  C   -0.306373
    22  C   -0.298930
    23  C   -0.476521
    24  H    0.161790
    25  H    0.147732
    26  H    0.151292
    27  H    0.151428
    28  H    0.154783
    29  H    0.156299
    30  H    0.160109
    31  C   -0.297323
    32  C   -0.305831
    33  C   -0.475208
    34  H    0.148775
    35  H    0.149396
    36  H    0.157063
    37  H    0.152060
    38  H    0.155476
    39  H    0.154924
    40  H    0.160073
 Sum of Mulliken charges =  -0.00000

 Dipole moment (field-independent basis, Debye):
    X=              0.0037    Y=             -0.0093    Z=              0.0127  Tot=              0.0161
 Quadrupole moment (field-independent basis, Debye-Ang):
   XX=            -85.3563   YY=            -86.0696   ZZ=            -83.5787
   XY=             -1.1144   XZ=             -0.2305   YZ=             -0.2246

 Normal termination of Gaussian 16 at Wed May  5 21:15:33 2021.
