 Gaussian 16, Revision A.03,
 Gaussian 16:  EM64L-G16RevA.03 25-Dec-2016

 -------------
 #p 6-31g* mp2
 -------------

 ------------------------------------------------------
 Input file generated by CHIRIPA (05-May-2021 14:53:13)
 ------------------------------------------------------
 Symbolic Z-matrix:
 Charge =  0 Multiplicity = 1

                         Standard orientation:
 ---------------------------------------------------------------------
 Center     Atomic      Atomic             Coordinates (Angstroms)
 Number     Number       Type             X           Y           Z
 ---------------------------------------------------------------------
      1          6           0       -2.954520   -0.339514   -0.121946
      2          6           0       -3.791070   -0.741279    1.093272
      3          6           0       -3.987922   -2.253667    1.201563
      4          1           0       -3.440365   -0.713673   -1.033485
      5          1           0       -1.975199   -0.834460   -0.064042
      6          1           0       -4.768013   -0.244630    1.033803
      7          1           0       -3.303276   -0.365955    2.002010
      8          1           0       -3.022357   -2.762779    1.285774
      9          1           0       -4.495417   -2.640765    0.312066
     10          1           0       -4.588676   -2.518646    2.077200
     11          6           0       -2.748957    1.169330   -0.243859
     12          6           0       -1.912407    1.571096   -1.459076
     13          6           0       -1.715555    3.083483   -1.567367
     14          1           0       -3.728278    1.664277   -0.301762
     15          1           0       -2.263111    1.543490    0.667680
     16          1           0       -2.400201    1.195771   -2.367814
     17          1           0       -0.935463    1.074447   -1.399608
     18          1           0       -1.208059    3.470582   -0.677871
     19          1           0       -2.681119    3.592595   -1.651578
     20          1           0       -1.114801    3.348462   -2.443005
     21          6           0        1.824719   -1.992602   -1.706326
     22          6           0        0.803127   -1.692546   -0.799222
     23          6           0        1.015304   -0.769695    0.229308
     24          6           0        2.266900   -0.162847    0.321668
     25          6           0        3.304678   -0.440789   -0.566621
     26          6           0        3.070038   -1.366868   -1.587340
     27          1           0        1.651169   -2.710749   -2.502279
     28          1           0       -0.165009   -2.176965   -0.889205
     29          1           0        0.242016   -0.518863    0.945219
     30          1           0        4.259185    0.058269   -0.451399
     31          1           0        3.865263   -1.597951   -2.290378
     32          7           0        2.503413    0.815844    1.406392
     33          8           0        3.615003    1.336830    1.466214
     34          8           0        1.572724    1.043424    2.176237
 ---------------------------------------------------------------------

 SCF Done:  E(RHF) =  -669.534733309     A.U. after   15 cycles
 E2 =    -0.2093860627D+01 EUMP2 =    -0.67162859393600D+03

 The electronic state is 1-A.
 Alpha  occ. eigenvalues --  -20.60831 -20.60824 -15.85883 -11.31246 -11.27806
 Alpha  occ. eigenvalues --  -11.27802 -11.27536 -11.26820 -11.26794 -11.22054
 Alpha  occ. eigenvalues --  -11.21993 -11.21725 -11.21613 -11.21583 -11.21045
 Alpha  occ. eigenvalues --   -1.59904  -1.39458  -1.19421  -1.08832  -1.08797
 Alpha  occ. eigenvalues --   -1.04829  -1.03822  -0.96297  -0.95646  -0.87302
 Alpha  occ. eigenvalues --   -0.86214  -0.82498  -0.79910  -0.78665  -0.77509
 Alpha  occ. eigenvalues --   -0.72102  -0.71227  -0.70534  -0.65549  -0.65033
 Alpha  occ. eigenvalues --   -0.64820  -0.62157  -0.61215  -0.59666  -0.57894
 Alpha  occ. eigenvalues --   -0.55618  -0.55278  -0.53183  -0.52946  -0.52905
 Alpha  occ. eigenvalues --   -0.52693  -0.50229  -0.48859  -0.48857  -0.48213
 Alpha  occ. eigenvalues --   -0.46955  -0.46149  -0.46057  -0.44862  -0.44107
 Alpha  occ. eigenvalues --   -0.37390  -0.36363
 Alpha virt. eigenvalues --    0.04970   0.11204   0.16393   0.19621   0.22830
 Alpha virt. eigenvalues --    0.23873   0.25570   0.26318   0.27432   0.28229
 Alpha virt. eigenvalues --    0.30012   0.30636   0.31472   0.31583   0.31990

 Mulliken charges:
               1
     1  C   -0.303757
     2  C   -0.301027
     3  C   -0.475572
     4  H    0.150021
     5  H    0.139081
     6  H    0.155617
     7  H    0.156868
     8  H    0.149363
     9  H    0.154864
    10  H    0.164413
    11  C   -0.301509
    12  C   -0.304440
    13  C   -0.476929
    14  H    0.151984
    15  H    0.157906
    16  H    0.148911
    17  H    0.154252
    18  H    0.161729
    19  H    0.154876
    20  H    0.159897
    21  C   -0.170993
    22  C   -0.219927
    23  C   -0.173669
    24  C    0.158412
    25  C   -0.170922
    26  C   -0.218498
    27  H    0.226231
    28  H    0.227664
    29  H    0.278208
    30  H    0.275796
    31  H    0.223792
    32  N    0.488690
    33  O   -0.459861
    34  O   -0.461470
 Sum of Mulliken charges =  -0.00000

 Dipole moment (field-independent basis, Debye):
    X=             -0.8623    Y=             -3.3582    Z=             -3.7687  Tot=              5.1209
 Quadrupole moment (field-independent basis, Debye-Ang):
   XX=            -93.0632   YY=            -95.2311   ZZ=            -97.0458
   XY=             -7.5326   XZ=            -10.6144   YZ=             -0.3605

 Normal termination of Gaussian 16 at Thu May  6 07:21:12 2021.
