 Gaussian 16, Revision A.03,
 Gaussian 16:  EM64L-G16RevA.03 25-Dec-2016

 -------------
 #p 6-31g* mp2
 -------------

 ------------------------------------------------------
 Input file generated by CHIRIPA (05-May-2021 14:53:17)
 ------------------------------------------------------
 Symbolic Z-matrix:
 Charge =  0 Multiplicity = 1

                         Standard orientation:
 ---------------------------------------------------------------------
 Center     Atomic      Atomic             Coordinates (Angstroms)
 Number     Number       Type             X           Y           Z
 ---------------------------------------------------------------------
      1          6           0        2.766138    0.289848   -0.525997
      2          6           0        3.953910   -0.312475    0.225262
      3          6           0        4.482848   -1.588292   -0.430719
      4          1           0        1.960979   -0.455348   -0.583849
      5          1           0        3.066959    0.505939   -1.560504
      6          1           0        3.651342   -0.526085    1.258432
      7          1           0        4.756264    0.434307    0.281500
      8          1           0        4.811439   -1.386865   -1.455442
      9          1           0        3.700240   -2.352714   -0.472959
     10          1           0        5.331684   -2.002009    0.122612
     11          6           0        2.226192    1.565755    0.117623
     12          6           0        1.038420    2.168078   -0.633636
     13          6           0        0.509482    3.443894    0.022346
     14          1           0        1.925371    1.349664    1.152131
     15          1           0        3.031352    2.310950    0.175475
     16          1           0        0.236067    1.421296   -0.689873
     17          1           0        1.340988    2.381688   -1.666805
     18          1           0        1.292091    4.208317    0.064585
     19          1           0        0.180891    3.242468    1.047068
     20          1           0       -0.339354    3.857611   -0.530985
     21          6           0        0.006423   -2.262795    0.574890
     22          6           0       -0.109158   -1.067668    1.292408
     23          6           0       -1.189022   -0.207898    1.070510
     24          6           0       -2.139281   -0.576161    0.119364
     25          6           0       -2.051973   -1.760008   -0.611509
     26          6           0       -0.963641   -2.604548   -0.373107
     27          1           0        0.848577   -2.924770    0.753676
     28          1           0        0.642706   -0.799690    2.029249
     29          1           0       -1.303074    0.723408    1.611878
     30          1           0       -2.817294   -2.000081   -1.339565
     31          1           0       -0.876454   -3.532062   -0.931820
     32          7           0       -3.286966    0.325977   -0.124285
     33          8           0       -4.110783   -0.021310   -0.967702
     34          8           0       -3.340973    1.363279    0.532774
 ---------------------------------------------------------------------

 SCF Done:  E(RHF) =  -669.533069671     A.U. after   15 cycles
 E2 =    -0.2097082002D+01 EUMP2 =    -0.67163015167319D+03

 The electronic state is 1-A.
 Alpha  occ. eigenvalues --  -20.60868 -20.60860 -15.85920 -11.31330 -11.27899
 Alpha  occ. eigenvalues --  -11.27876 -11.27635 -11.26919 -11.26886 -11.22277
 Alpha  occ. eigenvalues --  -11.21830 -11.21794 -11.21693 -11.21624 -11.21047
 Alpha  occ. eigenvalues --   -1.59941  -1.39492  -1.19529  -1.08966  -1.08789
 Alpha  occ. eigenvalues --   -1.04931  -1.03911  -0.96357  -0.95728  -0.87373
 Alpha  occ. eigenvalues --   -0.86320  -0.82555  -0.79985  -0.78637  -0.77597
 Alpha  occ. eigenvalues --   -0.72137  -0.71271  -0.70628  -0.65664  -0.65166
 Alpha  occ. eigenvalues --   -0.64856  -0.62252  -0.61330  -0.59736  -0.57943
 Alpha  occ. eigenvalues --   -0.55727  -0.55400  -0.53321  -0.52997  -0.52981
 Alpha  occ. eigenvalues --   -0.52763  -0.50350  -0.48900  -0.48888  -0.48303
 Alpha  occ. eigenvalues --   -0.47092  -0.46164  -0.46015  -0.44878  -0.44131
 Alpha  occ. eigenvalues --   -0.37409  -0.36420
 Alpha virt. eigenvalues --    0.04884   0.11029   0.16226   0.18944   0.22653
 Alpha virt. eigenvalues --    0.23679   0.24793   0.26141   0.27081   0.28372
 Alpha virt. eigenvalues --    0.29657   0.31014   0.31096   0.31529   0.32343

 Mulliken charges:
               1
     1  C   -0.306977
     2  C   -0.299659
     3  C   -0.474543
     4  H    0.157280
     5  H    0.151678
     6  H    0.142675
     7  H    0.155815
     8  H    0.159377
     9  H    0.146522
    10  H    0.161702
    11  C   -0.295760
    12  C   -0.306797
    13  C   -0.475102
    14  H    0.137105
    15  H    0.152015
    16  H    0.157850
    17  H    0.153451
    18  H    0.154374
    19  H    0.150019
    20  H    0.169648
    21  C   -0.174238
    22  C   -0.214749
    23  C   -0.175756
    24  C    0.161079
    25  C   -0.170969
    26  C   -0.218101
    27  H    0.228329
    28  H    0.226526
    29  H    0.278254
    30  H    0.276365
    31  H    0.224516
    32  N    0.487972
    33  O   -0.460027
    34  O   -0.459874
 Sum of Mulliken charges =  -0.00000

 Dipole moment (field-independent basis, Debye):
    X=              3.9145    Y=             -3.1499    Z=              0.7516  Tot=              5.0804
 Quadrupole moment (field-independent basis, Debye-Ang):
   XX=           -111.9939   YY=            -89.8031   ZZ=            -92.4790
   XY=              6.6067   XZ=             -0.3934   YZ=              0.8483

 Normal termination of Gaussian 16 at Wed May  5 18:48:32 2021.
