 Gaussian 16, Revision A.03,
 Gaussian 16:  EM64L-G16RevA.03 25-Dec-2016

 -------------
 #p 6-31g* mp2
 -------------

 ------------------------------------------------------
 Input file generated by CHIRIPA (05-May-2021 14:51:09)
 ------------------------------------------------------
 Symbolic Z-matrix:
 Charge =  0 Multiplicity = 1

                         Standard orientation:
 ---------------------------------------------------------------------
 Center     Atomic      Atomic             Coordinates (Angstroms)
 Number     Number       Type             X           Y           Z
 ---------------------------------------------------------------------
      1          6           0       -1.985822   -0.368576    0.706345
      2          6           0       -1.672315   -1.410347    1.780780
      3          6           0       -0.363662   -1.124024    2.517828
      4          1           0       -1.157430   -0.333777   -0.014419
      5          1           0       -2.036377    0.625107    1.172643
      6          1           0       -1.623734   -2.401947    1.312820
      7          1           0       -2.501637   -1.442806    2.498963
      8          1           0       -0.404859   -0.147308    3.010707
      9          1           0        0.478032   -1.111898    1.817824
     10          1           0       -0.159027   -1.880979    3.281375
     11          6           0       -3.291009   -0.641155   -0.039253
     12          6           0       -3.604516    0.400617   -1.113688
     13          6           0       -4.913169    0.114294   -1.850736
     14          1           0       -3.240454   -1.634837   -0.505551
     15          1           0       -4.119401   -0.675953    0.681511
     16          1           0       -2.775194    0.433076   -1.831871
     17          1           0       -3.653096    1.392216   -0.645728
     18          1           0       -5.754862    0.102168   -1.150732
     19          1           0       -4.871972   -0.862422   -2.343615
     20          1           0       -5.117804    0.871249   -2.614283
     21          6           0        2.630982   -0.171293   -0.688775
     22          6           0        3.971916   -0.903459   -0.627027
     23          6           0        3.941199   -2.254575   -1.342105
     24          1           0        1.852979   -0.806074   -0.243008
     25          1           0        2.349580   -0.024144   -1.740705
     26          1           0        4.251374   -1.047956    0.424466
     27          1           0        4.746852   -0.266781   -1.072820
     28          1           0        3.686922   -2.125331   -2.399101
     29          1           0        3.188629   -2.910943   -0.893307
     30          1           0        4.909917   -2.760795   -1.285647
     31          6           0        2.645849    1.181023    0.021684
     32          6           0        1.304915    1.913190   -0.040065
     33          6           0        1.335632    3.264306    0.675013
     34          1           0        2.927250    1.033874    1.073612
     35          1           0        3.423852    1.815804   -0.424084
     36          1           0        0.529978    1.276512    0.405728
     37          1           0        1.025457    2.057687   -1.091559
     38          1           0        2.088202    3.920674    0.226215
     39          1           0        1.589908    3.135060    1.732009
     40          1           0        0.366914    3.770525    0.618556
 ---------------------------------------------------------------------

 SCF Done:  E(RHF) =  -470.732367539     A.U. after   11 cycles
 E2 =    -0.1584743572D+01 EUMP2 =    -0.47231711111136D+03

 The electronic state is 1-A.
 Alpha  occ. eigenvalues --  -11.21666 -11.21612 -11.21607 -11.21432 -11.21425
 Alpha  occ. eigenvalues --  -11.21406 -11.21365 -11.21308 -11.21162 -11.21088
 Alpha  occ. eigenvalues --  -11.21077 -11.21000  -1.08496  -1.08383  -1.03586
 Alpha  occ. eigenvalues --   -1.03481  -0.96034  -0.95947  -0.87050  -0.86965
 Alpha  occ. eigenvalues --   -0.79694  -0.79537  -0.78469  -0.78037  -0.65224
 Alpha  occ. eigenvalues --   -0.64942  -0.60972  -0.60905  -0.59425  -0.59284
 Alpha  occ. eigenvalues --   -0.57682  -0.57525  -0.55414  -0.55158  -0.52725
 Alpha  occ. eigenvalues --   -0.52639  -0.52490  -0.52349  -0.50016  -0.49860
 Alpha  occ. eigenvalues --   -0.48130  -0.47821  -0.46798  -0.46675  -0.46205
 Alpha  occ. eigenvalues --   -0.45751  -0.45700  -0.44927  -0.43823  -0.43743
 Alpha virt. eigenvalues --    0.20299   0.23092   0.23783   0.24325   0.25550
 Alpha virt. eigenvalues --    0.26508   0.26762   0.28000   0.28310   0.29579
 Alpha virt. eigenvalues --    0.30710   0.31484   0.31730   0.31993   0.32204

 Mulliken charges:
               1
     1  C   -0.304756
     2  C   -0.298784
     3  C   -0.483194
     4  H    0.155402
     5  H    0.149969
     6  H    0.151823
     7  H    0.152262
     8  H    0.155690
     9  H    0.160436
    10  H    0.160919
    11  C   -0.297394
    12  C   -0.299732
    13  C   -0.475754
    14  H    0.149537
    15  H    0.149582
    16  H    0.152428
    17  H    0.151866
    18  H    0.155150
    19  H    0.155209
    20  H    0.160311
    21  C   -0.304874
    22  C   -0.299423
    23  C   -0.475732
    24  H    0.153355
    25  H    0.149509
    26  H    0.152267
    27  H    0.152333
    28  H    0.155089
    29  H    0.154840
    30  H    0.160447
    31  C   -0.297622
    32  C   -0.310299
    33  C   -0.475326
    34  H    0.149767
    35  H    0.149414
    36  H    0.166059
    37  H    0.150230
    38  H    0.154659
    39  H    0.154729
    40  H    0.159605
 Sum of Mulliken charges =  -0.00000

 Dipole moment (field-independent basis, Debye):
    X=             -0.0336    Y=             -0.0237    Z=              0.0101  Tot=              0.0424
 Quadrupole moment (field-independent basis, Debye-Ang):
   XX=            -85.3391   YY=            -85.3860   ZZ=            -84.1613
   XY=             -0.1432   XZ=             -1.1076   YZ=             -0.5300

 Normal termination of Gaussian 16 at Wed May  5 19:45:23 2021.
