 Gaussian 16, Revision A.03,
 Gaussian 16:  EM64L-G16RevA.03 25-Dec-2016

 -------------
 #p 6-31g* mp2
 -------------

 ------------------------------------------------------
 Input file generated by CHIRIPA (05-May-2021 14:51:10)
 ------------------------------------------------------
 Symbolic Z-matrix:
 Charge =  0 Multiplicity = 1

                         Standard orientation:
 ---------------------------------------------------------------------
 Center     Atomic      Atomic             Coordinates (Angstroms)
 Number     Number       Type             X           Y           Z
 ---------------------------------------------------------------------
      1          6           0       -4.048299    0.065606    0.176902
      2          6           0       -4.303983   -1.212478   -0.622542
      3          6           0       -5.455381   -2.043772   -0.055950
      4          1           0       -3.831926   -0.199581    1.220839
      5          1           0       -4.965687    0.670234    0.191699
      6          1           0       -3.385974   -1.813866   -0.636993
      7          1           0       -4.519583   -0.944229   -1.664739
      8          1           0       -6.384942   -1.465399   -0.056792
      9          1           0       -5.244892   -2.339977    0.976793
     10          1           0       -5.620877   -2.952797   -0.642588
     11          6           0       -2.900186    0.907317   -0.377252
     12          6           0       -2.644502    2.185401    0.422192
     13          6           0       -1.493104    3.016695   -0.144399
     14          1           0       -1.982797    0.302689   -0.392048
     15          1           0       -3.116559    1.172504   -1.421188
     16          1           0       -2.428901    1.917152    1.464389
     17          1           0       -3.562511    2.786789    0.436644
     18          1           0       -1.703593    3.312900   -1.177142
     19          1           0       -0.563542    2.438322   -0.143558
     20          1           0       -1.327608    3.925720    0.442239
     21          6           0        4.078827   -0.436669   -0.363969
     22          6           0        5.351591    0.026380    0.345709
     23          6           0        6.552421    0.121066   -0.596011
     24          1           0        4.260843   -1.415720   -0.827945
     25          1           0        3.849906    0.259512   -1.182701
     26          1           0        5.577274   -0.669695    1.163733
     27          1           0        5.166466    1.004355    0.808212
     28          1           0        6.352174    0.830451   -1.405502
     29          1           0        6.765316   -0.853110   -1.047961
     30          1           0        7.451469    0.453833   -0.067959
     31          6           0        2.869657   -0.536254    0.564319
     32          6           0        1.596894   -0.999303   -0.145360
     33          6           0        0.396064   -1.093989    0.796360
     34          1           0        3.098578   -1.232435    1.383051
     35          1           0        2.687642    0.442797    1.028295
     36          1           0        1.782018   -1.977278   -0.607863
     37          1           0        1.371210   -0.303228   -0.963384
     38          1           0        0.183169   -0.119813    1.248310
     39          1           0        0.596310   -1.803375    1.605851
     40          1           0       -0.502984   -1.426757    0.268308
 ---------------------------------------------------------------------

 SCF Done:  E(RHF) =  -470.732920084     A.U. after   11 cycles
 E2 =    -0.1583470502D+01 EUMP2 =    -0.47231639058561D+03

 The electronic state is 1-A.
 Alpha  occ. eigenvalues --  -11.21687 -11.21624 -11.21590 -11.21564 -11.21453
 Alpha  occ. eigenvalues --  -11.21389 -11.21331 -11.21232 -11.21181 -11.21086
 Alpha  occ. eigenvalues --  -11.21079 -11.21052  -1.08486  -1.08377  -1.03597
 Alpha  occ. eigenvalues --   -1.03498  -0.96055  -0.95941  -0.87078  -0.86955
 Alpha  occ. eigenvalues --   -0.79662  -0.79562  -0.78291  -0.78192  -0.65191
 Alpha  occ. eigenvalues --   -0.64971  -0.61104  -0.60790  -0.59431  -0.59314
 Alpha  occ. eigenvalues --   -0.57697  -0.57525  -0.55342  -0.55230  -0.52783
 Alpha  occ. eigenvalues --   -0.52645  -0.52484  -0.52336  -0.50036  -0.49844
 Alpha  occ. eigenvalues --   -0.47981  -0.47874  -0.46703  -0.46585  -0.45837
 Alpha  occ. eigenvalues --   -0.45760  -0.45718  -0.45610  -0.43800  -0.43729
 Alpha virt. eigenvalues --    0.19942   0.22651   0.23516   0.24410   0.26227
 Alpha virt. eigenvalues --    0.26404   0.26910   0.27626   0.28047   0.29200
 Alpha virt. eigenvalues --    0.30573   0.31380   0.31753   0.31989   0.32116

 Mulliken charges:
               1
     1  C   -0.297938
     2  C   -0.301108
     3  C   -0.475653
     4  H    0.149959
     5  H    0.149264
     6  H    0.151986
     7  H    0.152007
     8  H    0.155254
     9  H    0.155373
    10  H    0.160086
    11  C   -0.306699
    12  C   -0.299288
    13  C   -0.477385
    14  H    0.160402
    15  H    0.148570
    16  H    0.151763
    17  H    0.151824
    18  H    0.155313
    19  H    0.155412
    20  H    0.160095
    21  C   -0.298380
    22  C   -0.299733
    23  C   -0.475755
    24  H    0.149756
    25  H    0.149854
    26  H    0.151933
    27  H    0.152123
    28  H    0.155333
    29  H    0.155194
    30  H    0.160353
    31  C   -0.298596
    32  C   -0.301358
    33  C   -0.482004
    34  H    0.149793
    35  H    0.149850
    36  H    0.152594
    37  H    0.153159
    38  H    0.157047
    39  H    0.156232
    40  H    0.163368
 Sum of Mulliken charges =  -0.00000

 Dipole moment (field-independent basis, Debye):
    X=              0.0417    Y=             -0.0237    Z=              0.0058  Tot=              0.0483
 Quadrupole moment (field-independent basis, Debye-Ang):
   XX=            -85.9129   YY=            -84.1439   ZZ=            -84.7887
   XY=             -1.2358   XZ=              1.1793   YZ=             -0.2451

 Normal termination of Gaussian 16 at Thu May  6 03:48:54 2021.
