 Gaussian 16, Revision A.03,
 Gaussian 16:  EM64L-G16RevA.03 25-Dec-2016

 -------------
 #p 6-31g* mp2
 -------------

 ------------------------------------------------------
 Input file generated by CHIRIPA (05-May-2021 14:57:26)
 ------------------------------------------------------
 Symbolic Z-matrix:
 Charge =  0 Multiplicity = 1

                         Standard orientation:
 ---------------------------------------------------------------------
 Center     Atomic      Atomic             Coordinates (Angstroms)
 Number     Number       Type             X           Y           Z
 ---------------------------------------------------------------------
      1          6           0        4.078799    1.486116   -1.322653
      2          6           0        4.254965    1.515629    0.064652
      3          6           0        3.593999    0.595685    0.884026
      4          6           0        2.760582   -0.344350    0.279841
      5          6           0        2.564598   -0.399253   -1.099241
      6          6           0        3.235664    0.530454   -1.899156
      7          1           0        4.596177    2.204542   -1.951605
      8          1           0        4.909142    2.256688    0.515128
      9          1           0        3.712322    0.596035    1.960789
     10          1           0        1.906030   -1.149783   -1.519253
     11          1           0        3.096959    0.505175   -2.976266
     12          7           0        2.055500   -1.323421    1.136975
     13          8           0        1.326706   -2.141626    0.580166
     14          8           0        2.245003   -1.254074    2.349376
     15          6           0       -3.173818    2.563419    0.643246
     16          6           0       -1.911484    2.108888    0.247728
     17          6           0       -1.735212    0.791967   -0.187238
     18          6           0       -2.848072   -0.047144   -0.214158
     19          6           0       -4.118449    0.376099    0.173525
     20          6           0       -4.271337    1.697101    0.604950
     21          1           0       -3.301668    3.588020    0.979764
     22          1           0       -1.057344    2.779461    0.276429
     23          1           0       -0.769145    0.413952   -0.499067
     24          1           0       -4.951015   -0.315773    0.133964
     25          1           0       -5.252855    2.047356    0.911525
     26          7           0       -2.673839   -1.443469   -0.672763
     27          8           0       -3.670212   -2.162960   -0.687235
     28          8           0       -1.544201   -1.791978   -1.009061
 ---------------------------------------------------------------------

 SCF Done:  E(RHF) =  -868.336683440     A.U. after   16 cycles
 E2 =    -0.2601469164D+01 EUMP2 =    -0.87093815260310D+03

 The electronic state is 1-A.
 Alpha  occ. eigenvalues --  -20.60569 -20.60451 -20.60239 -20.60160 -15.85548
 Alpha  occ. eigenvalues --  -15.85250 -11.31227 -11.30813 -11.27828 -11.27722
 Alpha  occ. eigenvalues --  -11.27594 -11.27422 -11.27401 -11.27202 -11.26900
 Alpha  occ. eigenvalues --  -11.26847 -11.26491 -11.26465  -1.59595  -1.59264
 Alpha  occ. eigenvalues --   -1.39126  -1.38811  -1.19420  -1.19006  -1.08760
 Alpha  occ. eigenvalues --   -1.08367  -1.04839  -1.04446  -0.95536  -0.95169
 Alpha  occ. eigenvalues --   -0.86216  -0.85836  -0.82346  -0.81995  -0.77366
 Alpha  occ. eigenvalues --   -0.76991  -0.71793  -0.71436  -0.70947  -0.70570
 Alpha  occ. eigenvalues --   -0.70470  -0.70125  -0.65038  -0.64817  -0.64658
 Alpha  occ. eigenvalues --   -0.64462  -0.62149  -0.61796  -0.55319  -0.54954
 Alpha  occ. eigenvalues --   -0.53198  -0.52901  -0.52754  -0.52543  -0.48564
 Alpha  occ. eigenvalues --   -0.48524  -0.48250  -0.48192  -0.44557  -0.44035
 Alpha  occ. eigenvalues --   -0.37434  -0.36994  -0.36474  -0.36055
 Alpha virt. eigenvalues --    0.05131   0.05551   0.11061   0.11595   0.16570
 Alpha virt. eigenvalues --    0.17015   0.21262   0.21702   0.26880   0.27499
 Alpha virt. eigenvalues --    0.28020   0.28696   0.30527   0.31282   0.32096

 Mulliken charges:
               1
     1  C   -0.172592
     2  C   -0.219418
     3  C   -0.173086
     4  C    0.154431
     5  C   -0.180914
     6  C   -0.220325
     7  H    0.225173
     8  H    0.222786
     9  H    0.275514
    10  H    0.289732
    11  H    0.225448
    12  N    0.484864
    13  O   -0.444181
    14  O   -0.464634
    15  C   -0.171085
    16  C   -0.218814
    17  C   -0.170396
    18  C    0.160444
    19  C   -0.170554
    20  C   -0.218449
    21  H    0.223626
    22  H    0.220650
    23  H    0.272231
    24  H    0.275544
    25  H    0.222350
    26  N    0.488633
    27  O   -0.462698
    28  O   -0.454281
 Sum of Mulliken charges =  -0.00000

 Dipole moment (field-independent basis, Debye):
    X=              1.8727    Y=              8.0643    Z=             -1.4654  Tot=              8.4076
 Quadrupole moment (field-independent basis, Debye-Ang):
   XX=            -83.0764   YY=           -107.7821   ZZ=           -104.9854
   XY=             -3.4563   XZ=            -11.4353   YZ=              2.7596

 Normal termination of Gaussian 16 at Fri May  7 12:42:45 2021.
