 Gaussian 16, Revision A.03,
 Gaussian 16:  EM64L-G16RevA.03 25-Dec-2016

 -------------
 #p 6-31g* mp2
 -------------

 ------------------------------------------------------
 Input file generated by CHIRIPA (05-May-2021 14:53:17)
 ------------------------------------------------------
 Symbolic Z-matrix:
 Charge =  0 Multiplicity = 1

                         Standard orientation:
 ---------------------------------------------------------------------
 Center     Atomic      Atomic             Coordinates (Angstroms)
 Number     Number       Type             X           Y           Z
 ---------------------------------------------------------------------
      1          6           0       -3.706596   -0.529466    0.408859
      2          6           0       -2.734617   -1.353706   -0.436050
      3          6           0       -1.846250   -2.268055    0.408086
      4          1           0       -3.136359    0.073573    1.128663
      5          1           0       -4.335519   -1.209603    0.999844
      6          1           0       -2.108648   -0.672252   -1.026304
      7          1           0       -3.307224   -1.954709   -1.154056
      8          1           0       -2.455402   -2.970829    0.985705
      9          1           0       -1.250016   -1.681085    1.114182
     10          1           0       -1.159193   -2.848007   -0.215988
     11          6           0       -4.601488    0.389539   -0.420795
     12          6           0       -5.573467    1.213779    0.424114
     13          6           0       -6.461833    2.128128   -0.420021
     14          1           0       -3.972564    1.069676   -1.011780
     15          1           0       -5.171725   -0.213500   -1.140599
     16          1           0       -5.000860    1.814782    1.142120
     17          1           0       -6.199435    0.532325    1.014368
     18          1           0       -7.058067    1.541158   -1.126118
     19          1           0       -5.852682    2.830902   -0.997641
     20          1           0       -7.148890    2.708080    0.204053
     21          6           0        4.820204    2.025860    0.015179
     22          6           0        4.614936    1.300160   -1.162848
     23          6           0        3.744627    0.206176   -1.180319
     24          6           0        3.093094   -0.135910    0.003646
     25          6           0        3.276716    0.567342    1.193188
     26          6           0        4.151617    1.657784    1.187371
     27          1           0        5.498066    2.874316    0.019706
     28          1           0        5.132821    1.583735   -2.074674
     29          1           0        3.567282   -0.373090   -2.078327
     30          1           0        2.746238    0.260649    2.086469
     31          1           0        4.309098    2.219541    2.103708
     32          7           0        2.169304   -1.292186   -0.002523
     33          8           0        1.607313   -1.573292    1.053783
     34          8           0        2.024722   -1.895477   -1.063548
 ---------------------------------------------------------------------

 SCF Done:  E(RHF) =  -669.535963686     A.U. after   15 cycles
 E2 =    -0.2091272123D+01 EUMP2 =    -0.67162723580904D+03

 The electronic state is 1-A.
 Alpha  occ. eigenvalues --  -20.60943 -20.60938 -15.85965 -11.31302 -11.27866
 Alpha  occ. eigenvalues --  -11.27861 -11.27603 -11.26874 -11.26864 -11.21119
 Alpha  occ. eigenvalues --  -11.20743 -11.20699 -11.20513 -11.20385 -11.19235
 Alpha  occ. eigenvalues --   -1.59994  -1.39552  -1.19470  -1.08871  -1.07636
 Alpha  occ. eigenvalues --   -1.04867  -1.02610  -0.95715  -0.95019  -0.86268
 Alpha  occ. eigenvalues --   -0.86032  -0.82545  -0.78720  -0.77598  -0.77398
 Alpha  occ. eigenvalues --   -0.72187  -0.71312  -0.70578  -0.65125  -0.64870
 Alpha  occ. eigenvalues --   -0.64283  -0.62214  -0.60019  -0.58481  -0.56615
 Alpha  occ. eigenvalues --   -0.55372  -0.54330  -0.53197  -0.52959  -0.51674
 Alpha  occ. eigenvalues --   -0.51453  -0.49209  -0.48942  -0.48701  -0.47008
 Alpha  occ. eigenvalues --   -0.45811  -0.45058  -0.44914  -0.44694  -0.42839
 Alpha  occ. eigenvalues --   -0.37448  -0.36469
 Alpha virt. eigenvalues --    0.04911   0.11186   0.16393   0.21321   0.23572
 Alpha virt. eigenvalues --    0.25307   0.27239   0.27379   0.28172   0.28229
 Alpha virt. eigenvalues --    0.29130   0.30903   0.32248   0.32405   0.32559

 Mulliken charges:
               1
     1  C   -0.297041
     2  C   -0.299793
     3  C   -0.478041
     4  H    0.147139
     5  H    0.147913
     6  H    0.148585
     7  H    0.147583
     8  H    0.145301
     9  H    0.166266
    10  H    0.173983
    11  C   -0.297162
    12  C   -0.298799
    13  C   -0.475125
    14  H    0.147227
    15  H    0.148768
    16  H    0.150189
    17  H    0.151475
    18  H    0.154843
    19  H    0.153754
    20  H    0.158379
    21  C   -0.170631
    22  C   -0.218555
    23  C   -0.170792
    24  C    0.158452
    25  C   -0.170971
    26  C   -0.218539
    27  H    0.226020
    28  H    0.223862
    29  H    0.275891
    30  H    0.275630
    31  H    0.223838
    32  N    0.488858
    33  O   -0.458548
    34  O   -0.459957
 Sum of Mulliken charges =  -0.00000

 Dipole moment (field-independent basis, Debye):
    X=              3.6010    Y=              3.9977    Z=              0.0417  Tot=              5.3805
 Quadrupole moment (field-independent basis, Debye-Ang):
   XX=            -76.2727   YY=            -96.4089   ZZ=            -90.3498
   XY=             13.4457   XZ=             -1.3279   YZ=              1.2826

 Normal termination of Gaussian 16 at Thu May  6 18:54:49 2021.
