 Gaussian 16, Revision A.03,
 Gaussian 16:  EM64L-G16RevA.03 25-Dec-2016

 -------------
 #p 6-31g* mp2
 -------------

 ------------------------------------------------------
 Input file generated by CHIRIPA (05-May-2021 14:53:12)
 ------------------------------------------------------
 Symbolic Z-matrix:
 Charge =  0 Multiplicity = 1

                         Standard orientation:
 ---------------------------------------------------------------------
 Center     Atomic      Atomic             Coordinates (Angstroms)
 Number     Number       Type             X           Y           Z
 ---------------------------------------------------------------------
      1          6           0        5.364165   -0.328149    0.185615
      2          6           0        6.626744    0.035746   -0.596343
      3          6           0        7.909863   -0.354733    0.137772
      4          1           0        5.392410    0.166662    1.166079
      5          1           0        5.361265   -1.409422    0.381151
      6          1           0        6.626579    1.115798   -0.791547
      7          1           0        6.595398   -0.459835   -1.575135
      8          1           0        7.936632   -1.434063    0.319237
      9          1           0        7.967989    0.150522    1.107277
     10          1           0        8.800191   -0.085502   -0.439022
     11          6           0        4.073272    0.055946   -0.535354
     12          6           0        2.810693   -0.307949    0.246604
     13          6           0        1.527574    0.082530   -0.487512
     14          1           0        4.076172    1.137219   -0.730891
     15          1           0        4.045027   -0.438865   -1.515818
     16          1           0        2.842039    0.187632    1.225395
     17          1           0        2.810858   -1.388001    0.441808
     18          1           0        1.469448   -0.422725   -1.457017
     19          1           0        1.500805    1.161861   -0.668977
     20          1           0        0.637246   -0.186701    0.089283
     21          6           0       -1.642570    1.358198    0.924719
     22          6           0       -2.566868    1.986150    0.083369
     23          6           0       -3.702918    1.302172   -0.359478
     24          6           0       -3.884099   -0.014697    0.060426
     25          6           0       -2.981373   -0.667694    0.898264
     26          6           0       -1.852403    0.035612    1.328769
     27          1           0       -0.762809    1.897035    1.263938
     28          1           0       -2.406488    3.013209   -0.232025
     29          1           0       -4.434517    1.764176   -1.011193
     30          1           0       -3.168421   -1.692352    1.195767
     31          1           0       -1.136262   -0.454595    1.982133
     32          7           0       -5.083036   -0.749024   -0.401862
     33          8           0       -5.219715   -1.908483   -0.017661
     34          8           0       -5.863383   -0.151227   -1.139653
 ---------------------------------------------------------------------

 SCF Done:  E(RHF) =  -669.534214143     A.U. after   15 cycles
 E2 =    -0.2092373658D+01 EUMP2 =    -0.67162658780070D+03

 The electronic state is 1-A.
 Alpha  occ. eigenvalues --  -20.60759 -20.60754 -15.85815 -11.31182 -11.27777
 Alpha  occ. eigenvalues --  -11.27774 -11.27501 -11.26768 -11.26757 -11.22289
 Alpha  occ. eigenvalues --  -11.21992 -11.21936 -11.21831 -11.21701 -11.21406
 Alpha  occ. eigenvalues --   -1.59835  -1.39389  -1.19376  -1.08960  -1.08766
 Alpha  occ. eigenvalues --   -1.04787  -1.04062  -0.96515  -0.95591  -0.87531
 Alpha  occ. eigenvalues --   -0.86181  -0.82428  -0.80133  -0.78756  -0.77475
 Alpha  occ. eigenvalues --   -0.72035  -0.71159  -0.70483  -0.65588  -0.65035
 Alpha  occ. eigenvalues --   -0.64810  -0.62147  -0.61463  -0.59906  -0.58127
 Alpha  occ. eigenvalues --   -0.55824  -0.55242  -0.53625  -0.52978  -0.52878
 Alpha  occ. eigenvalues --   -0.52620  -0.50439  -0.48794  -0.48787  -0.48441
 Alpha  occ. eigenvalues --   -0.47171  -0.46298  -0.46218  -0.44795  -0.44327
 Alpha  occ. eigenvalues --   -0.37255  -0.36362
 Alpha virt. eigenvalues --    0.05065   0.11123   0.16519   0.20515   0.22580
 Alpha virt. eigenvalues --    0.24053   0.26069   0.26572   0.26981   0.27489
 Alpha virt. eigenvalues --    0.29379   0.30083   0.31076   0.31522   0.31916

 Mulliken charges:
               1
     1  C   -0.298492
     2  C   -0.299975
     3  C   -0.475940
     4  H    0.148862
     5  H    0.150461
     6  H    0.151883
     7  H    0.153043
     8  H    0.155855
     9  H    0.155065
    10  H    0.161415
    11  C   -0.298291
    12  C   -0.300181
    13  C   -0.481881
    14  H    0.148906
    15  H    0.152008
    16  H    0.146677
    17  H    0.153415
    18  H    0.160383
    19  H    0.149759
    20  H    0.162930
    21  C   -0.164380
    22  C   -0.219690
    23  C   -0.170252
    24  C    0.158033
    25  C   -0.171636
    26  C   -0.221941
    27  H    0.227718
    28  H    0.223444
    29  H    0.275765
    30  H    0.275781
    31  H    0.224094
    32  N    0.488154
    33  O   -0.460504
    34  O   -0.460490
 Sum of Mulliken charges =  -0.00000

 Dipole moment (field-independent basis, Debye):
    X=              4.2694    Y=              2.5801    Z=              1.5842  Tot=              5.2339
 Quadrupole moment (field-independent basis, Debye-Ang):
   XX=           -128.5628   YY=            -90.9981   ZZ=            -93.8129
   XY=            -11.4638   XZ=             -5.7559   YZ=             -1.7211

 Normal termination of Gaussian 16 at Thu May  6 12:01:14 2021.
