 Gaussian 16, Revision A.03,
 Gaussian 16:  EM64L-G16RevA.03 25-Dec-2016

 -------------
 #p 6-31g* mp2
 -------------

 ------------------------------------------------------
 Input file generated by CHIRIPA (05-May-2021 14:53:15)
 ------------------------------------------------------
 Symbolic Z-matrix:
 Charge =  0 Multiplicity = 1

                         Standard orientation:
 ---------------------------------------------------------------------
 Center     Atomic      Atomic             Coordinates (Angstroms)
 Number     Number       Type             X           Y           Z
 ---------------------------------------------------------------------
      1          6           0        3.286518    1.273008    0.201697
      2          6           0        2.093658    2.052562   -0.352709
      3          6           0        2.219570    3.560526   -0.133654
      4          1           0        3.385775    1.481928    1.275683
      5          1           0        4.207275    1.637961   -0.274128
      6          1           0        1.175276    1.685296    0.123007
      7          1           0        1.997113    1.841612   -1.425460
      8          1           0        3.119463    3.947066   -0.622921
      9          1           0        2.292956    3.789862    0.934344
     10          1           0        1.356188    4.098357   -0.537595
     11          6           0        3.175242   -0.235855   -0.009679
     12          6           0        4.368102   -1.015409    0.544727
     13          6           0        4.242189   -2.523373    0.325673
     14          1           0        2.254485   -0.600808    0.466146
     15          1           0        3.075985   -0.444775   -1.083665
     16          1           0        4.464647   -0.804459    1.617478
     17          1           0        5.286484   -0.648143    0.069012
     18          1           0        4.168804   -2.752709   -0.742326
     19          1           0        3.342297   -2.909913    0.814939
     20          1           0        5.105572   -3.061204    0.729613
     21          6           0       -4.241302    1.369578    0.442302
     22          6           0       -4.566185    0.017084    0.589714
     23          6           0       -3.622663   -0.974783    0.305963
     24          6           0       -2.358114   -0.576711   -0.125018
     25          6           0       -2.004194    0.762502   -0.281669
     26          6           0       -2.963595    1.737322    0.007847
     27          1           0       -4.980421    2.133463    0.664966
     28          1           0       -5.557686   -0.271441    0.926945
     29          1           0       -3.847500   -2.029173    0.411455
     30          1           0       -1.007569    1.019243   -0.619666
     31          1           0       -2.708491    2.786919   -0.107540
     32          7           0       -1.350844   -1.617733   -0.428465
     33          8           0       -0.243738   -1.240965   -0.806617
     34          8           0       -1.687525   -2.790742   -0.282407
 ---------------------------------------------------------------------

 SCF Done:  E(RHF) =  -669.535539692     A.U. after   15 cycles
 E2 =    -0.2092512679D+01 EUMP2 =    -0.67162805237078D+03

 The electronic state is 1-A.
 Alpha  occ. eigenvalues --  -20.60875 -20.60870 -15.85903 -11.31230 -11.27804
 Alpha  occ. eigenvalues --  -11.27755 -11.27541 -11.26814 -11.26797 -11.21470
 Alpha  occ. eigenvalues --  -11.21130 -11.20879 -11.20726 -11.20265 -11.20070
 Alpha  occ. eigenvalues --   -1.59941  -1.39496  -1.19404  -1.08810  -1.07798
 Alpha  occ. eigenvalues --   -1.04800  -1.02994  -0.95650  -0.95412  -0.86436
 Alpha  occ. eigenvalues --   -0.86197  -0.82483  -0.79137  -0.77687  -0.77317
 Alpha  occ. eigenvalues --   -0.72120  -0.71258  -0.70517  -0.65058  -0.64825
 Alpha  occ. eigenvalues --   -0.64431  -0.62164  -0.60391  -0.58863  -0.57003
 Alpha  occ. eigenvalues --   -0.55308  -0.54691  -0.53134  -0.52909  -0.52187
 Alpha  occ. eigenvalues --   -0.51803  -0.49348  -0.48894  -0.48886  -0.47394
 Alpha  occ. eigenvalues --   -0.46167  -0.45294  -0.44991  -0.44512  -0.43188
 Alpha  occ. eigenvalues --   -0.37387  -0.36399
 Alpha virt. eigenvalues --    0.04942   0.11206   0.16438   0.20801   0.23433
 Alpha virt. eigenvalues --    0.24559   0.26256   0.27427   0.27595   0.28548
 Alpha virt. eigenvalues --    0.29531   0.31120   0.31666   0.31901   0.32205

 Mulliken charges:
               1
     1  C   -0.298103
     2  C   -0.303489
     3  C   -0.474560
     4  H    0.146462
     5  H    0.147440
     6  H    0.147927
     7  H    0.154965
     8  H    0.157508
     9  H    0.154887
    10  H    0.151742
    11  C   -0.300192
    12  C   -0.300243
    13  C   -0.474508
    14  H    0.165553
    15  H    0.154332
    16  H    0.147313
    17  H    0.147228
    18  H    0.157309
    19  H    0.161084
    20  H    0.154959
    21  C   -0.170469
    22  C   -0.218791
    23  C   -0.170330
    24  C    0.156389
    25  C   -0.178080
    26  C   -0.221000
    27  H    0.225793
    28  H    0.223574
    29  H    0.275584
    30  H    0.287628
    31  H    0.224048
    32  N    0.488829
    33  O   -0.461150
    34  O   -0.459640
 Sum of Mulliken charges =  -0.00000

 Dipole moment (field-independent basis, Debye):
    X=             -3.6584    Y=              3.4853    Z=              1.0069  Tot=              5.1522
 Quadrupole moment (field-independent basis, Debye-Ang):
   XX=            -76.5577   YY=            -98.4374   ZZ=            -94.8145
   XY=             -4.1010   XZ=             -3.8018   YZ=             -2.1801

 Normal termination of Gaussian 16 at Wed May  5 23:32:05 2021.
