 Gaussian 16, Revision A.03,
 Gaussian 16:  EM64L-G16RevA.03 25-Dec-2016

 -------------
 #p 6-31g* mp2
 -------------

 ------------------------------------------------------
 Input file generated by CHIRIPA (05-May-2021 14:51:13)
 ------------------------------------------------------
 Symbolic Z-matrix:
 Charge =  0 Multiplicity = 1

                         Standard orientation:
 ---------------------------------------------------------------------
 Center     Atomic      Atomic             Coordinates (Angstroms)
 Number     Number       Type             X           Y           Z
 ---------------------------------------------------------------------
      1          6           0        3.467535    0.596478    0.338701
      2          6           0        4.190892    1.326176   -0.793677
      3          6           0        4.705983    2.703633   -0.375245
      4          1           0        2.627683    1.213505    0.686368
      5          1           0        4.151201    0.489566    1.192262
      6          1           0        3.506504    1.430455   -1.645356
      7          1           0        5.029003    0.707255   -1.138818
      8          1           0        5.409266    2.614814    0.459084
      9          1           0        3.878116    3.342123   -0.050331
     10          1           0        5.219723    3.207633   -1.199815
     11          6           0        2.946791   -0.782006   -0.064207
     12          6           0        2.223434   -1.511704    1.068172
     13          6           0        1.708343   -2.889162    0.649740
     14          1           0        2.263125   -0.675094   -0.917767
     15          1           0        3.786643   -1.399033   -0.411874
     16          1           0        1.385323   -0.892783    1.413312
     17          1           0        2.907822   -1.615983    1.919850
     18          1           0        2.536210   -3.527651    0.324826
     19          1           0        1.005061   -2.800342   -0.184590
     20          1           0        1.194603   -3.393161    1.474310
     21          6           0       -3.414169    0.791097   -0.367273
     22          6           0       -3.785464    1.724093    0.785828
     23          6           0       -4.197379    3.117440    0.309694
     24          1           0       -2.594313    1.240164   -0.944439
     25          1           0       -4.269401    0.707616   -1.052112
     26          1           0       -2.930262    1.804696    1.469018
     27          1           0       -4.604403    1.272663    1.360429
     28          1           0       -5.065301    3.056511   -0.354837
     29          1           0       -3.381648    3.591567   -0.245630
     30          1           0       -4.458630    3.767965    1.150186
     31          6           0       -3.000157   -0.605568    0.092780
     32          6           0       -2.628862   -1.538565   -1.060323
     33          6           0       -2.216946   -2.931912   -0.584189
     34          1           0       -2.144925   -0.522087    0.777618
     35          1           0       -3.820013   -1.054636    0.669944
     36          1           0       -1.809923   -1.087134   -1.634923
     37          1           0       -3.484064   -1.619168   -1.743513
     38          1           0       -3.032679   -3.406039   -0.028864
     39          1           0       -1.349026   -2.870983    0.080342
     40          1           0       -1.955697   -3.582437   -1.424680
 ---------------------------------------------------------------------

 SCF Done:  E(RHF) =  -470.733081638     A.U. after   11 cycles
 E2 =    -0.1582730233D+01 EUMP2 =    -0.47231581187117D+03

 The electronic state is 1-A.
 Alpha  occ. eigenvalues --  -11.21655 -11.21635 -11.21625 -11.21612 -11.21449
 Alpha  occ. eigenvalues --  -11.21429 -11.21389 -11.21369 -11.21099 -11.21092
 Alpha  occ. eigenvalues --  -11.21077 -11.20995  -1.08476  -1.08445  -1.03586
 Alpha  occ. eigenvalues --   -1.03522  -0.96055  -0.95950  -0.87090  -0.86947
 Alpha  occ. eigenvalues --   -0.79671  -0.79562  -0.78285  -0.78261  -0.65175
 Alpha  occ. eigenvalues --   -0.65022  -0.61159  -0.60775  -0.59393  -0.59345
 Alpha  occ. eigenvalues --   -0.57627  -0.57596  -0.55577  -0.55036  -0.52742
 Alpha  occ. eigenvalues --   -0.52668  -0.52448  -0.52374  -0.50213  -0.49658
 Alpha  occ. eigenvalues --   -0.47970  -0.47887  -0.46758  -0.46500  -0.45854
 Alpha  occ. eigenvalues --   -0.45789  -0.45739  -0.45701  -0.43823  -0.43794
 Alpha virt. eigenvalues --    0.20706   0.23307   0.23587   0.25118   0.26148
 Alpha virt. eigenvalues --    0.26737   0.27022   0.27418   0.28028   0.28996
 Alpha virt. eigenvalues --    0.31164   0.31228   0.31653   0.31783   0.32014

 Mulliken charges:
               1
     1  C   -0.298284
     2  C   -0.299683
     3  C   -0.475722
     4  H    0.149344
     5  H    0.149739
     6  H    0.151843
     7  H    0.152103
     8  H    0.155284
     9  H    0.155127
    10  H    0.160391
    11  C   -0.298389
    12  C   -0.300382
    13  C   -0.480499
    14  H    0.149351
    15  H    0.150017
    16  H    0.151224
    17  H    0.152424
    18  H    0.155666
    19  H    0.160543
    20  H    0.160386
    21  C   -0.298241
    22  C   -0.299644
    23  C   -0.475699
    24  H    0.149252
    25  H    0.149727
    26  H    0.151722
    27  H    0.152105
    28  H    0.155283
    29  H    0.155053
    30  H    0.160353
    31  C   -0.298494
    32  C   -0.299775
    33  C   -0.482245
    34  H    0.149204
    35  H    0.149957
    36  H    0.150809
    37  H    0.152122
    38  H    0.154898
    39  H    0.163427
    40  H    0.159706
 Sum of Mulliken charges =  -0.00000

 Dipole moment (field-independent basis, Debye):
    X=              0.0194    Y=             -0.0169    Z=              0.0070  Tot=              0.0267
 Quadrupole moment (field-independent basis, Debye-Ang):
   XX=            -83.2677   YY=            -86.6054   ZZ=            -84.7960
   XY=             -0.2168   XZ=              0.1657   YZ=             -0.0838

 Normal termination of Gaussian 16 at Thu May  6 03:57:57 2021.
