 Gaussian 16, Revision A.03,
 Gaussian 16:  EM64L-G16RevA.03 25-Dec-2016

 -------------
 #p 6-31g* mp2
 -------------

 ------------------------------------------------------
 Input file generated by CHIRIPA (05-May-2021 14:57:24)
 ------------------------------------------------------
 Symbolic Z-matrix:
 Charge =  0 Multiplicity = 1

                         Standard orientation:
 ---------------------------------------------------------------------
 Center     Atomic      Atomic             Coordinates (Angstroms)
 Number     Number       Type             X           Y           Z
 ---------------------------------------------------------------------
      1          6           0       -4.690368   -2.400670    0.120417
      2          6           0       -5.366617   -1.424410    0.859420
      3          6           0       -4.959417   -0.087877    0.810296
      4          6           0       -3.867066    0.238621    0.008137
      5          6           0       -3.172828   -0.711127   -0.739728
      6          6           0       -3.597558   -2.041545   -0.675396
      7          1           0       -5.013500   -3.436546    0.164485
      8          1           0       -6.215637   -1.700416    1.478315
      9          1           0       -5.464881    0.688138    1.372191
     10          1           0       -2.329950   -0.405480   -1.347639
     11          1           0       -3.070480   -2.797601   -1.250386
     12          7           0       -3.426702    1.650313   -0.051919
     13          8           0       -2.461413    1.912198   -0.766250
     14          8           0       -4.055173    2.468180    0.616478
     15          6           0        1.620886    0.823669   -0.566678
     16          6           0        1.903752   -0.545396   -0.613255
     17          6           0        3.184969   -1.016365   -0.311230
     18          6           0        4.163812   -0.086162    0.035006
     19          6           0        3.913008    1.283995    0.090294
     20          6           0        2.624647    1.732393   -0.215672
     21          1           0        0.622832    1.180762   -0.802829
     22          1           0        1.126182   -1.253418   -0.885531
     23          1           0        3.431327   -2.070845   -0.339450
     24          1           0        4.708818    1.965599    0.365103
     25          1           0        2.407840    2.796192   -0.178678
     26          7           0        5.523961   -0.572808    0.356832
     27          8           0        6.368855    0.267121    0.659002
     28          8           0        5.719395   -1.784957    0.300816
 ---------------------------------------------------------------------

 SCF Done:  E(RHF) =  -868.339313705     A.U. after   16 cycles
 E2 =    -0.2598771741D+01 EUMP2 =    -0.87093808544562D+03

 The electronic state is 1-A.
 Alpha  occ. eigenvalues --  -20.61875 -20.61802 -20.60524 -20.60514 -15.86873
 Alpha  occ. eigenvalues --  -15.85575 -11.32071 -11.30846 -11.28688 -11.28565
 Alpha  occ. eigenvalues --  -11.28283 -11.27612 -11.27536 -11.27478 -11.27394
 Alpha  occ. eigenvalues --  -11.26989 -11.26464 -11.26293  -1.60893  -1.59600
 Alpha  occ. eigenvalues --   -1.40458  -1.39157  -1.20216  -1.19010  -1.09632
 Alpha  occ. eigenvalues --   -1.08391  -1.05602  -1.04417  -0.96502  -0.95241
 Alpha  occ. eigenvalues --   -0.87003  -0.85804  -0.83348  -0.82092  -0.78427
 Alpha  occ. eigenvalues --   -0.77183  -0.73103  -0.72198  -0.71793  -0.71318
 Alpha  occ. eigenvalues --   -0.70924  -0.70015  -0.65873  -0.65598  -0.64653
 Alpha  occ. eigenvalues --   -0.64424  -0.62963  -0.61780  -0.56079  -0.54779
 Alpha  occ. eigenvalues --   -0.53925  -0.53691  -0.52735  -0.52506  -0.49866
 Alpha  occ. eigenvalues --   -0.49822  -0.48554  -0.48543  -0.45892  -0.44584
 Alpha  occ. eigenvalues --   -0.38163  -0.37196  -0.36939  -0.36038
 Alpha virt. eigenvalues --    0.04077   0.05378   0.10454   0.11626   0.15598
 Alpha virt. eigenvalues --    0.16903   0.19601   0.21908   0.25647   0.26978
 Alpha virt. eigenvalues --    0.27915   0.28908   0.30527   0.31253   0.32282

 Mulliken charges:
               1
     1  C   -0.169726
     2  C   -0.217941
     3  C   -0.169986
     4  C    0.159462
     5  C   -0.172058
     6  C   -0.217979
     7  H    0.228898
     8  H    0.226780
     9  H    0.277719
    10  H    0.268393
    11  H    0.223940
    12  N    0.490956
    13  O   -0.471567
    14  O   -0.453878
    15  C   -0.178622
    16  C   -0.219254
    17  C   -0.171097
    18  C    0.157426
    19  C   -0.170907
    20  C   -0.220193
    21  H    0.245262
    22  H    0.213690
    23  H    0.272592
    24  H    0.275065
    25  H    0.228120
    26  N    0.488260
    27  O   -0.460720
    28  O   -0.462634
 Sum of Mulliken charges =  -0.00000

 Dipole moment (field-independent basis, Debye):
    X=             -6.7806    Y=             -3.1613    Z=             -0.8133  Tot=              7.5253
 Quadrupole moment (field-independent basis, Debye-Ang):
   XX=           -129.6530   YY=           -102.9497   ZZ=           -104.1503
   XY=             27.8235   XZ=             -8.5966   YZ=              1.9964

 Normal termination of Gaussian 16 at Thu May  6 18:02:01 2021.
