 Gaussian 16, Revision A.03,
 Gaussian 16:  EM64L-G16RevA.03 25-Dec-2016

 -------------
 #p 6-31g* mp2
 -------------

 ------------------------------------------------------
 Input file generated by CHIRIPA (05-May-2021 14:51:08)
 ------------------------------------------------------
 Symbolic Z-matrix:
 Charge =  0 Multiplicity = 1

                         Standard orientation:
 ---------------------------------------------------------------------
 Center     Atomic      Atomic             Coordinates (Angstroms)
 Number     Number       Type             X           Y           Z
 ---------------------------------------------------------------------
      1          6           0        2.801984   -0.013212   -0.219789
      2          6           0        2.553935   -0.763735   -1.528672
      3          6           0        3.507551   -1.942848   -1.723870
      4          1           0        3.840049    0.346000   -0.201550
      5          1           0        2.698493   -0.712797    0.621201
      6          1           0        2.656501   -0.062637   -2.366859
      7          1           0        1.516284   -1.121037   -1.543881
      8          1           0        3.400460   -2.664186   -0.907289
      9          1           0        4.547156   -1.599772   -1.734944
     10          1           0        3.312616   -2.465177   -2.665694
     11          6           0        1.856466    1.168252   -0.010347
     12          6           0        2.104515    1.918774    1.298535
     13          6           0        1.150898    3.097888    1.493733
     14          1           0        1.959956    1.867837   -0.851338
     15          1           0        0.818401    0.809040   -0.028586
     16          1           0        3.142166    2.276077    1.313744
     17          1           0        2.001948    1.217677    2.136723
     18          1           0        0.111294    2.754812    1.504807
     19          1           0        1.257990    3.819226    0.677153
     20          1           0        1.345833    3.620216    2.435558
     21          6           0       -2.485483    0.147634   -0.067052
     22          6           0       -3.311242    0.287102   -1.346371
     23          6           0       -3.615761    1.743717   -1.697563
     24          1           0       -3.025721    0.621431    0.763974
     25          1           0       -1.544054    0.702025   -0.184333
     26          1           0       -4.250225   -0.268534   -1.227227
     27          1           0       -2.769064   -0.187250   -2.174409
     28          1           0       -2.688272    2.306850   -1.843327
     29          1           0       -4.177850    2.225104   -0.890764
     30          1           0       -4.206936    1.820233   -2.615451
     31          6           0       -2.172967   -1.302674    0.297188
     32          6           0       -1.347207   -1.442142    1.576507
     33          6           0       -1.042688   -2.898757    1.927699
     34          1           0       -3.114397   -1.857065    0.414471
     35          1           0       -1.632729   -1.776471   -0.533837
     36          1           0       -1.889386   -0.967790    2.404545
     37          1           0       -0.408224   -0.886506    1.457364
     38          1           0       -0.480600   -3.380144    1.120901
     39          1           0       -1.970178   -3.461890    2.073463
     40          1           0       -0.451514   -2.975273    2.845587
 ---------------------------------------------------------------------

 SCF Done:  E(RHF) =  -470.733110902     A.U. after   11 cycles
 E2 =    -0.1584516524D+01 EUMP2 =    -0.47231762742662D+03

 The electronic state is 1-A.
 Alpha  occ. eigenvalues --  -11.21677 -11.21667 -11.21625 -11.21625 -11.21464
 Alpha  occ. eigenvalues --  -11.21447 -11.21396 -11.21383 -11.21140 -11.21115
 Alpha  occ. eigenvalues --  -11.21073 -11.21068  -1.08530  -1.08441  -1.03576
 Alpha  occ. eigenvalues --   -1.03566  -0.96028  -0.96011  -0.87040  -0.87029
 Alpha  occ. eigenvalues --   -0.79642  -0.79632  -0.78433  -0.78182  -0.65461
 Alpha  occ. eigenvalues --   -0.64807  -0.60970  -0.60964  -0.59394  -0.59381
 Alpha  occ. eigenvalues --   -0.57654  -0.57609  -0.55351  -0.55273  -0.52719
 Alpha  occ. eigenvalues --   -0.52703  -0.52457  -0.52431  -0.49984  -0.49953
 Alpha  occ. eigenvalues --   -0.47984  -0.47940  -0.46767  -0.46678  -0.46347
 Alpha  occ. eigenvalues --   -0.45804  -0.45784  -0.45081  -0.43833  -0.43819
 Alpha virt. eigenvalues --    0.18983   0.22886   0.23137   0.24856   0.25432
 Alpha virt. eigenvalues --    0.26591   0.26942   0.27707   0.28109   0.30485
 Alpha virt. eigenvalues --    0.31182   0.31607   0.31711   0.31799   0.32353

 Mulliken charges:
               1
     1  C   -0.298403
     2  C   -0.300289
     3  C   -0.475808
     4  H    0.150185
     5  H    0.150037
     6  H    0.152175
     7  H    0.151250
     8  H    0.155430
     9  H    0.155498
    10  H    0.160346
    11  C   -0.310275
    12  C   -0.299648
    13  C   -0.477563
    14  H    0.149650
    15  H    0.160122
    16  H    0.152188
    17  H    0.152330
    18  H    0.157209
    19  H    0.154949
    20  H    0.160421
    21  C   -0.307838
    22  C   -0.299021
    23  C   -0.476025
    24  H    0.149812
    25  H    0.157607
    26  H    0.152021
    27  H    0.152093
    28  H    0.155886
    29  H    0.155194
    30  H    0.160327
    31  C   -0.298511
    32  C   -0.305413
    33  C   -0.475588
    34  H    0.150224
    35  H    0.149727
    36  H    0.152381
    37  H    0.156248
    38  H    0.155086
    39  H    0.155699
    40  H    0.160287
 Sum of Mulliken charges =  -0.00000

 Dipole moment (field-independent basis, Debye):
    X=             -0.0060    Y=              0.0047    Z=              0.0017  Tot=              0.0078
 Quadrupole moment (field-independent basis, Debye-Ang):
   XX=            -83.9944   YY=            -86.1728   ZZ=            -84.4589
   XY=              1.2923   XZ=             -0.7506   YZ=             -0.1967

 Normal termination of Gaussian 16 at Thu May  6 13:11:45 2021.
