 Gaussian 16, Revision A.03,
 Gaussian 16:  EM64L-G16RevA.03 25-Dec-2016

 -------------
 #p 6-31g* mp2
 -------------

 ------------------------------------------------------
 Input file generated by CHIRIPA (05-May-2021 14:55:21)
 ------------------------------------------------------
 Symbolic Z-matrix:
 Charge =  0 Multiplicity = 1

                         Standard orientation:
 ---------------------------------------------------------------------
 Center     Atomic      Atomic             Coordinates (Angstroms)
 Number     Number       Type             X           Y           Z
 ---------------------------------------------------------------------
      1          6           0       -1.610208    1.366279   -0.587165
      2          6           0       -1.434292   -0.010514   -0.413912
      3          6           0       -2.528804   -0.837945   -0.145680
      4          6           0       -3.790797   -0.252449   -0.057035
      5          6           0       -3.998352    1.115793   -0.224737
      6          6           0       -2.889421    1.924055   -0.492193
      7          1           0       -0.754364    2.001602   -0.795232
      8          1           0       -0.441996   -0.446443   -0.487116
      9          1           0       -2.421104   -1.906892   -0.007216
     10          1           0       -4.999723    1.521335   -0.145938
     11          1           0       -3.029026    2.992967   -0.626289
     12          7           0       -4.957140   -1.118267    0.226519
     13          8           0       -6.058657   -0.577950    0.299697
     14          8           0       -4.747718   -2.320818    0.370221
     15          6           0        3.865971    0.319820    0.190942
     16          6           0        3.620210    1.809267    0.434112
     17          6           0        2.134593    2.152393    0.548126
     18          1           0        3.346042    0.014032   -0.727270
     19          1           0        3.417281   -0.257422    1.011224
     20          1           0        4.070431    2.383610   -0.385674
     21          1           0        4.140942    2.111589    1.351748
     22          1           0        1.675319    1.604924    1.377552
     23          1           0        1.604407    1.878490   -0.369741
     24          1           0        1.981811    3.222137    0.721812
     25          6           0        5.346367   -0.038855    0.074705
     26          6           0        5.592127   -1.528302   -0.168466
     27          6           0        7.077745   -1.871427   -0.282481
     28          1           0        5.795057    0.538388   -0.745577
     29          1           0        5.866296    0.266934    0.992915
     30          1           0        5.071395   -1.830624   -1.086102
     31          1           0        5.141906   -2.102645    0.651319
     32          1           0        7.607931   -1.597525    0.635388
     33          1           0        7.537018   -1.323958   -1.111905
     34          1           0        7.230527   -2.941171   -0.456166
 ---------------------------------------------------------------------

 SCF Done:  E(RHF) =  -669.535524199     A.U. after   15 cycles
 E2 =    -0.2091083940D+01 EUMP2 =    -0.67162660813889D+03

 The electronic state is 1-A.
 Alpha  occ. eigenvalues --  -20.60696 -20.60691 -15.85750 -11.31092 -11.27665
 Alpha  occ. eigenvalues --  -11.27661 -11.27348 -11.26662 -11.26647 -11.22561
 Alpha  occ. eigenvalues --  -11.22351 -11.22265 -11.22169 -11.22041 -11.21524
 Alpha  occ. eigenvalues --   -1.59773  -1.39327  -1.19262  -1.09220  -1.08655
 Alpha  occ. eigenvalues --   -1.04665  -1.04332  -0.96811  -0.95494  -0.87834
 Alpha  occ. eigenvalues --   -0.86058  -0.82333  -0.80414  -0.79004  -0.77385
 Alpha  occ. eigenvalues --   -0.71968  -0.71096  -0.70377  -0.65844  -0.64912
 Alpha  occ. eigenvalues --   -0.64671  -0.62019  -0.61725  -0.60185  -0.58401
 Alpha  occ. eigenvalues --   -0.56164  -0.55148  -0.53480  -0.53223  -0.52969
 Alpha  occ. eigenvalues --   -0.52751  -0.50741  -0.48735  -0.48724  -0.48703
 Alpha  occ. eigenvalues --   -0.47427  -0.46554  -0.46446  -0.44737  -0.44574
 Alpha  occ. eigenvalues --   -0.37226  -0.36274
 Alpha virt. eigenvalues --    0.05147   0.11366   0.16636   0.19882   0.22337
 Alpha virt. eigenvalues --    0.23739   0.25469   0.26168   0.26459   0.27716
 Alpha virt. eigenvalues --    0.28913   0.30314   0.30876   0.31109   0.31641

 Mulliken charges:
               1
     1  C   -0.173482
     2  C   -0.221021
     3  C   -0.171174
     4  C    0.158133
     5  C   -0.170919
     6  C   -0.219466
     7  H    0.232263
     8  H    0.223989
     9  H    0.275198
    10  H    0.275160
    11  H    0.223251
    12  N    0.488083
    13  O   -0.460726
    14  O   -0.460780
    15  C   -0.299449
    16  C   -0.299595
    17  C   -0.480826
    18  H    0.146114
    19  H    0.150273
    20  H    0.154349
    21  H    0.156538
    22  H    0.160316
    23  H    0.144211
    24  H    0.163567
    25  C   -0.298734
    26  C   -0.300318
    27  C   -0.476160
    28  H    0.150854
    29  H    0.151789
    30  H    0.151655
    31  H    0.152710
    32  H    0.156262
    33  H    0.155873
    34  H    0.162060
 Sum of Mulliken charges =  -0.00000

 Dipole moment (field-independent basis, Debye):
    X=              4.3819    Y=              3.0781    Z=             -0.9312  Tot=              5.4354
 Quadrupole moment (field-independent basis, Debye-Ang):
   XX=           -124.7273   YY=            -93.3411   ZZ=            -94.4765
   XY=            -15.0259   XZ=              4.0096   YZ=             -0.1882

 Normal termination of Gaussian 16 at Thu May  6 12:29:51 2021.
