 Gaussian 16, Revision A.03,
 Gaussian 16:  EM64L-G16RevA.03 25-Dec-2016

 -------------
 #p 6-31g* mp2
 -------------

 ------------------------------------------------------
 Input file generated by CHIRIPA (05-May-2021 14:51:10)
 ------------------------------------------------------
 Symbolic Z-matrix:
 Charge =  0 Multiplicity = 1

                         Standard orientation:
 ---------------------------------------------------------------------
 Center     Atomic      Atomic             Coordinates (Angstroms)
 Number     Number       Type             X           Y           Z
 ---------------------------------------------------------------------
      1          6           0       -2.473553   -1.530616    0.074511
      2          6           0       -1.091307   -2.001480    0.528015
      3          6           0       -0.971087   -3.525073    0.572824
      4          1           0       -3.234293   -1.940075    0.753159
      5          1           0       -2.686399   -1.945563   -0.920432
      6          1           0       -0.880554   -1.584641    1.521215
      7          1           0       -0.333753   -1.590696   -0.151679
      8          1           0       -1.155282   -3.955314   -0.416906
      9          1           0       -1.705190   -3.949225    1.265492
     10          1           0        0.024954   -3.839757    0.899529
     11          6           0       -2.609283   -0.009821    0.024642
     12          6           0       -3.991530    0.461044   -0.428862
     13          6           0       -4.111749    1.984636   -0.473671
     14          1           0       -2.396437    0.405127    1.019585
     15          1           0       -1.848543    0.399639   -0.654006
     16          1           0       -4.749083    0.050259    0.250832
     17          1           0       -4.202282    0.044205   -1.422061
     18          1           0       -3.377647    2.408789   -1.166339
     19          1           0       -3.927555    2.414877    0.516059
     20          1           0       -5.107790    2.299321   -0.800375
     21          6           0        2.609637    1.493138    0.187415
     22          6           0        1.308691    2.290064    0.085278
     23          6           0        1.461177    3.734455    0.563060
     24          1           0        2.956340    1.501362    1.229853
     25          1           0        3.386936    1.995988   -0.404483
     26          1           0        0.533708    1.785111    0.676073
     27          1           0        0.964945    2.279782   -0.957003
     28          1           0        2.214722    4.259745   -0.032624
     29          1           0        1.781037    3.762264    1.609730
     30          1           0        0.519310    4.285886    0.481379
     31          6           0        2.473198    0.047299   -0.286569
     32          6           0        3.774145   -0.749628   -0.184431
     33          6           0        3.621660   -2.194019   -0.662214
     34          1           0        1.695900   -0.455552    0.305330
     35          1           0        2.126497    0.039075   -1.329005
     36          1           0        4.117892   -0.739345    0.857850
     37          1           0        4.549128   -0.244674   -0.775226
     38          1           0        3.301800   -2.221827   -1.708883
     39          1           0        2.868113   -2.719308   -0.066528
     40          1           0        4.563526   -2.745449   -0.580533
 ---------------------------------------------------------------------

 SCF Done:  E(RHF) =  -470.733162624     A.U. after   11 cycles
 E2 =    -0.1583932422D+01 EUMP2 =    -0.47231709504649D+03

 The electronic state is 1-A.
 Alpha  occ. eigenvalues --  -11.21598 -11.21589 -11.21573 -11.21561 -11.21396
 Alpha  occ. eigenvalues --  -11.21366 -11.21336 -11.21299 -11.21087 -11.21077
 Alpha  occ. eigenvalues --  -11.21067 -11.21044  -1.08451  -1.08384  -1.03544
 Alpha  occ. eigenvalues --   -1.03498  -0.95980  -0.95960  -0.87018  -0.86956
 Alpha  occ. eigenvalues --   -0.79667  -0.79518  -0.78438  -0.78031  -0.65099
 Alpha  occ. eigenvalues --   -0.65001  -0.60964  -0.60881  -0.59408  -0.59273
 Alpha  occ. eigenvalues --   -0.57608  -0.57555  -0.55267  -0.55253  -0.52689
 Alpha  occ. eigenvalues --   -0.52647  -0.52493  -0.52307  -0.49956  -0.49878
 Alpha  occ. eigenvalues --   -0.48061  -0.47780  -0.46735  -0.46576  -0.46240
 Alpha  occ. eigenvalues --   -0.45797  -0.45640  -0.45058  -0.43780  -0.43754
 Alpha virt. eigenvalues --    0.21172   0.22509   0.23409   0.24793   0.25403
 Alpha virt. eigenvalues --    0.25871   0.26526   0.27367   0.28612   0.29812
 Alpha virt. eigenvalues --    0.30551   0.31058   0.31633   0.31837   0.32107

 Mulliken charges:
               1
     1  C   -0.297637
     2  C   -0.306892
     3  C   -0.476175
     4  H    0.149385
     5  H    0.149479
     6  H    0.150233
     7  H    0.160386
     8  H    0.155650
     9  H    0.155198
    10  H    0.160165
    11  C   -0.300616
    12  C   -0.299660
    13  C   -0.475661
    14  H    0.149053
    15  H    0.152839
    16  H    0.151866
    17  H    0.151890
    18  H    0.155318
    19  H    0.155053
    20  H    0.160193
    21  C   -0.297638
    22  C   -0.302206
    23  C   -0.475763
    24  H    0.149360
    25  H    0.149192
    26  H    0.155629
    27  H    0.150897
    28  H    0.154976
    29  H    0.154969
    30  H    0.160526
    31  C   -0.306033
    32  C   -0.299018
    33  C   -0.477253
    34  H    0.159280
    35  H    0.147927
    36  H    0.151751
    37  H    0.151792
    38  H    0.154959
    39  H    0.156167
    40  H    0.160418
 Sum of Mulliken charges =  -0.00000

 Dipole moment (field-independent basis, Debye):
    X=             -0.0117    Y=             -0.0053    Z=             -0.0029  Tot=              0.0132
 Quadrupole moment (field-independent basis, Debye-Ang):
   XX=            -84.8030   YY=            -87.0979   ZZ=            -83.0289
   XY=              0.3568   XZ=             -0.4999   YZ=             -0.4784

 Normal termination of Gaussian 16 at Thu May  6 00:36:40 2021.
