 Gaussian 16, Revision A.03,
 Gaussian 16:  EM64L-G16RevA.03 25-Dec-2016

 -------------
 #p 6-31g* mp2
 -------------

 ------------------------------------------------------
 Input file generated by CHIRIPA (05-May-2021 14:53:14)
 ------------------------------------------------------
 Symbolic Z-matrix:
 Charge =  0 Multiplicity = 1

                         Standard orientation:
 ---------------------------------------------------------------------
 Center     Atomic      Atomic             Coordinates (Angstroms)
 Number     Number       Type             X           Y           Z
 ---------------------------------------------------------------------
      1          6           0        2.530133    1.274844    0.384156
      2          6           0        1.430704    2.022820   -0.370677
      3          6           0        0.712543    3.054318    0.499984
      4          1           0        2.091269    0.776275    1.259240
      5          1           0        3.258835    2.000737    0.770769
      6          1           0        0.705030    1.295620   -0.756932
      7          1           0        1.872203    2.519509   -1.244172
      8          1           0        1.419600    3.801698    0.874274
      9          1           0        0.245796    2.570855    1.364283
     10          1           0       -0.069364    3.577259   -0.059492
     11          6           0        3.257239    0.240220   -0.472931
     12          6           0        4.356668   -0.507755    0.281902
     13          6           0        5.074829   -1.539253   -0.588759
     14          1           0        2.528537   -0.485673   -0.859543
     15          1           0        3.696103    0.738790   -1.348015
     16          1           0        3.915169   -1.004444    1.155398
     17          1           0        5.082342    0.219445    0.668158
     18          1           0        5.541576   -1.055790   -1.453057
     19          1           0        4.367772   -2.286634   -0.963049
     20          1           0        5.856737   -2.062194   -0.029282
     21          6           0       -0.001276   -1.531068    0.650131
     22          6           0       -0.935586   -1.242792    1.650372
     23          6           0       -2.190542   -0.722095    1.320962
     24          6           0       -2.479124   -0.501019   -0.024822
     25          6           0       -1.569528   -0.778029   -1.044229
     26          6           0       -0.320666   -1.298177   -0.691612
     27          1           0        0.971236   -1.935343    0.915038
     28          1           0       -0.690285   -1.422643    2.693217
     29          1           0       -2.932630   -0.489916    2.075161
     30          1           0       -1.842937   -0.588065   -2.075044
     31          1           0        0.402963   -1.521111   -1.470526
     32          7           0       -3.804464    0.049928   -0.385837
     33          8           0       -4.034323    0.235679   -1.578859
     34          8           0       -4.588310    0.285577    0.531054
 ---------------------------------------------------------------------

 SCF Done:  E(RHF) =  -669.533631216     A.U. after   15 cycles
 E2 =    -0.2096019502D+01 EUMP2 =    -0.67162965071799D+03

 The electronic state is 1-A.
 Alpha  occ. eigenvalues --  -20.60850 -20.60845 -15.85905 -11.31323 -11.27889
 Alpha  occ. eigenvalues --  -11.27877 -11.27621 -11.26924 -11.26881 -11.22505
 Alpha  occ. eigenvalues --  -11.22231 -11.21931 -11.21927 -11.21766 -11.21224
 Alpha  occ. eigenvalues --   -1.59924  -1.39476  -1.19510  -1.09152  -1.08839
 Alpha  occ. eigenvalues --   -1.04922  -1.04087  -0.96563  -0.95708  -0.87567
 Alpha  occ. eigenvalues --   -0.86317  -0.82546  -0.80202  -0.78895  -0.77576
 Alpha  occ. eigenvalues --   -0.72123  -0.71247  -0.70627  -0.65895  -0.65144
 Alpha  occ. eigenvalues --   -0.64825  -0.62257  -0.61533  -0.59943  -0.58154
 Alpha  occ. eigenvalues --   -0.55883  -0.55376  -0.53327  -0.53149  -0.53025
 Alpha  occ. eigenvalues --   -0.52927  -0.50508  -0.48891  -0.48874  -0.48491
 Alpha  occ. eigenvalues --   -0.47278  -0.46395  -0.46345  -0.44869  -0.44362
 Alpha  occ. eigenvalues --   -0.37425  -0.36406
 Alpha virt. eigenvalues --    0.04914   0.11003   0.16290   0.19040   0.23147
 Alpha virt. eigenvalues --    0.23650   0.25141   0.25713   0.27297   0.28463
 Alpha virt. eigenvalues --    0.29842   0.30272   0.31113   0.31315   0.31862

 Mulliken charges:
               1
     1  C   -0.297360
     2  C   -0.306265
     3  C   -0.476074
     4  H    0.145359
     5  H    0.151818
     6  H    0.159898
     7  H    0.150763
     8  H    0.154435
     9  H    0.154759
    10  H    0.163852
    11  C   -0.301477
    12  C   -0.300429
    13  C   -0.475075
    14  H    0.139094
    15  H    0.154051
    16  H    0.145096
    17  H    0.157077
    18  H    0.158825
    19  H    0.149668
    20  H    0.163101
    21  C   -0.167711
    22  C   -0.220091
    23  C   -0.170684
    24  C    0.160115
    25  C   -0.171378
    26  C   -0.222406
    27  H    0.228996
    28  H    0.224401
    29  H    0.276337
    30  H    0.276645
    31  H    0.226464
    32  N    0.488073
    33  O   -0.459979
    34  O   -0.459892
 Sum of Mulliken charges =  -0.00000

 Dipole moment (field-independent basis, Debye):
    X=              4.6197    Y=             -1.9088    Z=              1.2611  Tot=              5.1552
 Quadrupole moment (field-independent basis, Debye-Ang):
   XX=           -117.8040   YY=            -93.7139   ZZ=            -90.3487
   XY=              3.5197   XZ=             -4.6616   YZ=             -1.1094

 Normal termination of Gaussian 16 at Thu May  6 18:46:54 2021.
