 Gaussian 16, Revision A.03,
 Gaussian 16:  EM64L-G16RevA.03 25-Dec-2016

 -------------
 #p 6-31g* mp2
 -------------

 ------------------------------------------------------
 Input file generated by CHIRIPA (05-May-2021 14:55:22)
 ------------------------------------------------------
 Symbolic Z-matrix:
 Charge =  0 Multiplicity = 1

                         Standard orientation:
 ---------------------------------------------------------------------
 Center     Atomic      Atomic             Coordinates (Angstroms)
 Number     Number       Type             X           Y           Z
 ---------------------------------------------------------------------
      1          6           0        0.597002   -0.863074    0.526400
      2          6           0        1.000213    0.400610    0.970298
      3          6           0        2.303304    0.851647    0.739935
      4          6           0        3.181066    0.009188    0.059429
      5          6           0        2.809286   -1.255059   -0.395270
      6          6           0        1.501231   -1.685425   -0.153768
      7          1           0       -0.417199   -1.205421    0.709678
      8          1           0        0.300118    1.041398    1.498788
      9          1           0        2.641885    1.825353    1.072616
     10          1           0        3.529733   -1.871286   -0.919330
     11          1           0        1.190861   -2.667300   -0.499655
     12          7           0        4.563218    0.475739   -0.190343
     13          8           0        5.317483   -0.285500   -0.792204
     14          8           0        4.866112    1.593826    0.220477
     15          6           0       -4.042870    0.753884    0.134384
     16          6           0       -3.612616    1.951664   -0.713077
     17          6           0       -4.145923    3.279333   -0.173938
     18          1           0       -5.140048    0.719180    0.178429
     19          1           0       -3.693070    0.898845    1.165898
     20          1           0       -3.961929    1.803833   -1.743000
     21          1           0       -2.516337    1.983410   -0.755267
     22          1           0       -3.786594    3.453359    0.845473
     23          1           0       -5.240400    3.272762   -0.147872
     24          1           0       -3.826408    4.122134   -0.794791
     25          6           0       -3.517501   -0.580558   -0.391905
     26          6           0       -3.947756   -1.778338    0.455557
     27          6           0       -3.414449   -3.106007   -0.083583
     28          1           0       -3.867302   -0.725520   -1.423419
     29          1           0       -2.420324   -0.545853   -0.435950
     30          1           0       -5.044035   -1.810084    0.497747
     31          1           0       -3.598443   -1.630507    1.485480
     32          1           0       -2.319972   -3.099435   -0.109648
     33          1           0       -3.773777   -3.280033   -1.102994
     34          1           0       -3.733964   -3.948807    0.537270
 ---------------------------------------------------------------------

 SCF Done:  E(RHF) =  -669.535331922     A.U. after   15 cycles
 E2 =    -0.2091924137D+01 EUMP2 =    -0.67162725605891D+03

 The electronic state is 1-A.
 Alpha  occ. eigenvalues --  -20.60774 -20.60769 -15.85828 -11.31208 -11.27776
 Alpha  occ. eigenvalues --  -11.27770 -11.27498 -11.26803 -11.26785 -11.22684
 Alpha  occ. eigenvalues --  -11.22447 -11.22369 -11.22282 -11.22221 -11.21715
 Alpha  occ. eigenvalues --   -1.59849  -1.39402  -1.19380  -1.09413  -1.08772
 Alpha  occ. eigenvalues --   -1.04783  -1.04462  -0.96910  -0.95608  -0.87923
 Alpha  occ. eigenvalues --   -0.86181  -0.82442  -0.80519  -0.79202  -0.77481
 Alpha  occ. eigenvalues --   -0.72046  -0.71172  -0.70533  -0.66067  -0.65032
 Alpha  occ. eigenvalues --   -0.64775  -0.62134  -0.61873  -0.60275  -0.58503
 Alpha  occ. eigenvalues --   -0.56234  -0.55291  -0.53573  -0.53326  -0.53107
 Alpha  occ. eigenvalues --   -0.52874  -0.50872  -0.48837  -0.48800  -0.48792
 Alpha  occ. eigenvalues --   -0.47567  -0.46722  -0.46662  -0.44805  -0.44714
 Alpha  occ. eigenvalues --   -0.37347  -0.36387
 Alpha virt. eigenvalues --    0.05017   0.11238   0.16383   0.18260   0.22447
 Alpha virt. eigenvalues --    0.23379   0.25528   0.25891   0.26629   0.27887
 Alpha virt. eigenvalues --    0.29521   0.30080   0.30820   0.31402   0.32152

 Mulliken charges:
               1
     1  C   -0.175024
     2  C   -0.220660
     3  C   -0.170577
     4  C    0.158652
     5  C   -0.170746
     6  C   -0.220027
     7  H    0.233227
     8  H    0.223581
     9  H    0.275689
    10  H    0.275774
    11  H    0.223722
    12  N    0.488022
    13  O   -0.460276
    14  O   -0.460351
    15  C   -0.298281
    16  C   -0.300725
    17  C   -0.476066
    18  H    0.153575
    19  H    0.145813
    20  H    0.155057
    21  H    0.150730
    22  H    0.153790
    23  H    0.157179
    24  H    0.163428
    25  C   -0.303372
    26  C   -0.302100
    27  C   -0.475193
    28  H    0.154857
    29  H    0.143667
    30  H    0.157743
    31  H    0.149302
    32  H    0.144261
    33  H    0.160313
    34  H    0.165018
 Sum of Mulliken charges =  -0.00000

 Dipole moment (field-independent basis, Debye):
    X=             -5.0785    Y=             -1.6226    Z=              0.8078  Tot=              5.3923
 Quadrupole moment (field-independent basis, Debye-Ang):
   XX=           -124.4276   YY=            -91.9863   ZZ=            -93.9842
   XY=             -5.8559   XZ=              2.7847   YZ=              2.0235

 Normal termination of Gaussian 16 at Thu May  6 07:50:32 2021.
