 Gaussian 16, Revision A.03,
 Gaussian 16:  EM64L-G16RevA.03 25-Dec-2016

 -------------
 #p 6-31g* mp2
 -------------

 ------------------------------------------------------
 Input file generated by CHIRIPA (05-May-2021 14:57:27)
 ------------------------------------------------------
 Symbolic Z-matrix:
 Charge =  0 Multiplicity = 1

                         Standard orientation:
 ---------------------------------------------------------------------
 Center     Atomic      Atomic             Coordinates (Angstroms)
 Number     Number       Type             X           Y           Z
 ---------------------------------------------------------------------
      1          6           0        2.833082   -2.461733    0.106504
      2          6           0        2.679386   -1.765290   -1.096769
      3          6           0        2.746713   -0.369100   -1.122627
      4          6           0        2.970033    0.301737    0.078788
      5          6           0        3.127129   -0.363719    1.293604
      6          6           0        3.056070   -1.759962    1.295753
      7          1           0        2.779332   -3.546348    0.117382
      8          1           0        2.506104   -2.307673   -2.021886
      9          1           0        2.631225    0.195146   -2.040073
     10          1           0        3.298743    0.204588    2.199691
     11          1           0        3.175800   -2.298200    2.231708
     12          7           0        3.043284    1.779848    0.063963
     13          8           0        3.240977    2.347526    1.136015
     14          8           0        2.901619    2.342726   -1.019428
     15          6           0       -5.354141    0.548865    0.424537
     16          6           0       -4.424163    1.552484    0.134001
     17          6           0       -3.093846    1.227773   -0.147725
     18          6           0       -2.726306   -0.116808   -0.130126
     19          6           0       -3.629472   -1.139497    0.155683
     20          6           0       -4.954532   -0.791558    0.434434
     21          1           0       -6.385522    0.810130    0.642232
     22          1           0       -4.731673    2.594314    0.125600
     23          1           0       -2.353244    1.984656   -0.375876
     24          1           0       -3.293108   -2.169195    0.156516
     25          1           0       -5.674603   -1.573087    0.659729
     26          7           0       -1.320742   -0.472860   -0.426802
     27          8           0       -1.022116   -1.664909   -0.404930
     28          8           0       -0.544301    0.446858   -0.675592
 ---------------------------------------------------------------------

 SCF Done:  E(RHF) =  -868.338633610     A.U. after   16 cycles
 E2 =    -0.2600754192D+01 EUMP2 =    -0.87093938780201D+03

 The electronic state is 1-A.
 Alpha  occ. eigenvalues --  -20.61078 -20.61048 -20.59400 -20.59367 -15.86098
 Alpha  occ. eigenvalues --  -15.84429 -11.31329 -11.29470 -11.27918 -11.27837
 Alpha  occ. eigenvalues --  -11.27613 -11.26896 -11.26839 -11.26168 -11.26021
 Alpha  occ. eigenvalues --  -11.25861 -11.25154 -11.25002  -1.60130  -1.58455
 Alpha  occ. eigenvalues --   -1.39687  -1.38023  -1.19493  -1.17657  -1.08916
 Alpha  occ. eigenvalues --   -1.07129  -1.04873  -1.03068  -0.95772  -0.94022
 Alpha  occ. eigenvalues --   -0.86278  -0.84501  -0.82607  -0.80896  -0.77664
 Alpha  occ. eigenvalues --   -0.75956  -0.72338  -0.71444  -0.70687  -0.70599
 Alpha  occ. eigenvalues --   -0.69731  -0.68877  -0.65148  -0.64876  -0.63372
 Alpha  occ. eigenvalues --   -0.63151  -0.62217  -0.60474  -0.55392  -0.53659
 Alpha  occ. eigenvalues --   -0.53215  -0.52962  -0.51500  -0.51231  -0.49080
 Alpha  occ. eigenvalues --   -0.48903  -0.47439  -0.47408  -0.45128  -0.43505
 Alpha  occ. eigenvalues --   -0.37473  -0.36471  -0.35575  -0.34560
 Alpha virt. eigenvalues --    0.04837   0.06633   0.11184   0.13062   0.16362
 Alpha virt. eigenvalues --    0.18165   0.21345   0.22864   0.27266   0.28239
 Alpha virt. eigenvalues --    0.28737   0.29746   0.30907   0.32315   0.32493

 Mulliken charges:
               1
     1  C   -0.164037
     2  C   -0.208440
     3  C   -0.150503
     4  C    0.164327
     5  C   -0.173682
     6  C   -0.219994
     7  H    0.219307
     8  H    0.218115
     9  H    0.271495
    10  H    0.268458
    11  H    0.215311
    12  N    0.489106
    13  O   -0.469216
    14  O   -0.462749
    15  C   -0.170365
    16  C   -0.218741
    17  C   -0.170719
    18  C    0.157557
    19  C   -0.171257
    20  C   -0.218732
    21  H    0.226289
    22  H    0.225660
    23  H    0.280498
    24  H    0.273342
    25  H    0.223086
    26  N    0.488917
    27  O   -0.464363
    28  O   -0.458673
 Sum of Mulliken charges =  -0.00000

 Dipole moment (field-independent basis, Debye):
    X=             -5.5750    Y=             -3.9028    Z=              0.8787  Tot=              6.8618
 Quadrupole moment (field-independent basis, Debye-Ang):
   XX=            -81.3385   YY=           -104.6708   ZZ=           -101.3207
   XY=            -17.6992   XZ=             -2.0701   YZ=             -1.3088

 Normal termination of Gaussian 16 at Thu May  6 18:11:22 2021.
