 Gaussian 16, Revision A.03,
 Gaussian 16:  EM64L-G16RevA.03 25-Dec-2016

 -------------
 #p 6-31g* mp2
 -------------

 ------------------------------------------------------
 Input file generated by CHIRIPA (05-May-2021 14:55:25)
 ------------------------------------------------------
 Symbolic Z-matrix:
 Charge =  0 Multiplicity = 1

                         Standard orientation:
 ---------------------------------------------------------------------
 Center     Atomic      Atomic             Coordinates (Angstroms)
 Number     Number       Type             X           Y           Z
 ---------------------------------------------------------------------
      1          6           0        1.849242    0.055700    2.553088
      2          6           0        1.723214    1.200995    1.760033
      3          6           0        1.841623    1.118271    0.369463
      4          6           0        2.087256   -0.131423   -0.197298
      5          6           0        2.217796   -1.290633    0.565907
      6          6           0        2.095697   -1.184273    1.954550
      7          1           0        1.755826    0.129143    3.632568
      8          1           0        1.531807    2.165295    2.222131
      9          1           0        1.748446    1.988929   -0.268260
     10          1           0        2.408518   -2.237979    0.076440
     11          1           0        2.194032   -2.075400    2.567955
     12          7           0        2.214563   -0.231511   -1.668411
     13          8           0        2.431036   -1.344242   -2.143392
     14          8           0        2.095464    0.804666   -2.318634
     15          6           0       -2.549684   -0.541310    0.259149
     16          6           0       -3.332837   -1.647920   -0.448008
     17          6           0       -3.132290   -3.019288    0.197690
     18          1           0       -1.481294   -0.797192    0.255484
     19          1           0       -2.857562   -0.499911    1.313139
     20          1           0       -3.024573   -1.686300   -1.500679
     21          1           0       -4.399465   -1.389281   -0.442827
     22          1           0       -3.457745   -3.004267    1.242895
     23          1           0       -2.075041   -3.302974    0.179033
     24          1           0       -3.701088   -3.795533   -0.323627
     25          6           0       -2.739978    0.835526   -0.374758
     26          6           0       -1.956824    1.942134    0.332400
     27          6           0       -2.157372    3.313502   -0.313298
     28          1           0       -2.432100    0.794125   -1.428747
     29          1           0       -3.808368    1.091406   -0.371093
     30          1           0       -0.890197    1.683495    0.327218
     31          1           0       -2.265089    1.980514    1.385070
     32          1           0       -3.214620    3.597188   -0.294641
     33          1           0       -1.831916    3.298482   -1.358503
     34          1           0       -1.588574    4.089747    0.208019
 ---------------------------------------------------------------------

 SCF Done:  E(RHF) =  -669.534979683     A.U. after   15 cycles
 E2 =    -0.2093673467D+01 EUMP2 =    -0.67162865314930D+03

 The electronic state is 1-A.
 Alpha  occ. eigenvalues --  -20.60868 -20.60863 -15.85924 -11.31306 -11.27869
 Alpha  occ. eigenvalues --  -11.27848 -11.27582 -11.26874 -11.26856 -11.21628
 Alpha  occ. eigenvalues --  -11.21546 -11.21384 -11.21321 -11.21178 -11.21092
 Alpha  occ. eigenvalues --   -1.59946  -1.39498  -1.19480  -1.08858  -1.08431
 Alpha  occ. eigenvalues --   -1.04887  -1.03560  -0.96014  -0.95696  -0.87029
 Alpha  occ. eigenvalues --   -0.86267  -0.82529  -0.79633  -0.78252  -0.77569
 Alpha  occ. eigenvalues --   -0.72138  -0.71274  -0.70570  -0.65145  -0.65060
 Alpha  occ. eigenvalues --   -0.64854  -0.62233  -0.60957  -0.59396  -0.57632
 Alpha  occ. eigenvalues --   -0.55364  -0.55288  -0.53284  -0.52954  -0.52700
 Alpha  occ. eigenvalues --   -0.52441  -0.49949  -0.48899  -0.48894  -0.47956
 Alpha  occ. eigenvalues --   -0.46669  -0.45769  -0.45679  -0.44896  -0.43806
 Alpha  occ. eigenvalues --   -0.37441  -0.36366
 Alpha virt. eigenvalues --    0.04934   0.11126   0.16392   0.21040   0.22852
 Alpha virt. eigenvalues --    0.24129   0.26506   0.26991   0.27499   0.27929
 Alpha virt. eigenvalues --    0.28741   0.30652   0.31399   0.31804   0.32098

 Mulliken charges:
               1
     1  C   -0.170483
     2  C   -0.214032
     3  C   -0.175613
     4  C    0.160224
     5  C   -0.172535
     6  C   -0.217631
     7  H    0.226308
     8  H    0.225059
     9  H    0.277195
    10  H    0.276023
    11  H    0.224215
    12  N    0.487931
    13  O   -0.460103
    14  O   -0.460454
    15  C   -0.299337
    16  C   -0.300255
    17  C   -0.475238
    18  H    0.150544
    19  H    0.146046
    20  H    0.156241
    21  H    0.151576
    22  H    0.152636
    23  H    0.154091
    24  H    0.161358
    25  C   -0.298918
    26  C   -0.306971
    27  C   -0.476732
    28  H    0.155056
    29  H    0.149196
    30  H    0.156358
    31  H    0.147033
    32  H    0.156277
    33  H    0.161062
    34  H    0.153874
 Sum of Mulliken charges =  -0.00000

 Dipole moment (field-independent basis, Debye):
    X=             -0.3607    Y=              0.3090    Z=              5.1365  Tot=              5.1584
 Quadrupole moment (field-independent basis, Debye-Ang):
   XX=            -96.7301   YY=            -91.3440   ZZ=            -96.9962
   XY=             -0.0903   XZ=             10.9559   YZ=             -0.8003

 Normal termination of Gaussian 16 at Thu May  6 19:22:45 2021.
