 Gaussian 16, Revision A.03,
 Gaussian 16:  EM64L-G16RevA.03 25-Dec-2016

 -------------
 #p 6-31g* mp2
 -------------

 ------------------------------------------------------
 Input file generated by CHIRIPA (05-May-2021 14:55:23)
 ------------------------------------------------------
 Symbolic Z-matrix:
 Charge =  0 Multiplicity = 1

                         Standard orientation:
 ---------------------------------------------------------------------
 Center     Atomic      Atomic             Coordinates (Angstroms)
 Number     Number       Type             X           Y           Z
 ---------------------------------------------------------------------
      1          6           0       -1.842999    1.794748    0.785432
      2          6           0       -2.076759    0.696769    1.619889
      3          6           0       -3.030504   -0.265919    1.276160
      4          6           0       -3.735510   -0.098517    0.085264
      5          6           0       -3.525380    0.984385   -0.767062
      6          6           0       -2.566779    1.934805   -0.403284
      7          1           0       -1.100221    2.537822    1.060237
      8          1           0       -1.516152    0.585422    2.543668
      9          1           0       -3.231567   -1.125681    1.903696
     10          1           0       -4.099926    1.068230   -1.681548
     11          1           0       -2.387344    2.786489   -1.053271
     12          7           0       -4.747768   -1.111178   -0.289239
     13          8           0       -5.355619   -0.940774   -1.343808
     14          8           0       -4.914156   -2.056131    0.478885
     15          6           0        5.168258   -0.229682    0.262195
     16          6           0        6.453513   -0.518850   -0.514005
     17          6           0        7.645680   -0.801315    0.400733
     18          1           0        5.334108    0.629401    0.926585
     19          1           0        4.939108   -1.086654    0.910643
     20          1           0        6.679419    0.337836   -1.161825
     21          1           0        6.284526   -1.377225   -1.176766
     22          1           0        7.445450   -1.668950    1.037693
     23          1           0        7.842586    0.055857    1.052718
     24          1           0        8.553890   -1.005417   -0.174904
     25          6           0        3.967557    0.054625   -0.638479
     26          6           0        2.682302    0.343793    0.137721
     27          6           0        1.490135    0.626259   -0.777017
     28          1           0        4.196707    0.911596   -1.286928
     29          1           0        3.801707   -0.804458   -1.302870
     30          1           0        2.851289    1.202169    0.800481
     31          1           0        2.456396   -0.512893    0.785540
     32          1           0        1.293229   -0.230913   -1.429003
     33          1           0        1.690366    1.493893   -1.413978
     34          1           0        0.581925    0.830359   -0.201381
 ---------------------------------------------------------------------

 SCF Done:  E(RHF) =  -669.535014413     A.U. after   15 cycles
 E2 =    -0.2091914387D+01 EUMP2 =    -0.67162692879984D+03

 The electronic state is 1-A.
 Alpha  occ. eigenvalues --  -20.60790 -20.60785 -15.85845 -11.31227 -11.27805
 Alpha  occ. eigenvalues --  -11.27797 -11.27544 -11.26826 -11.26809 -11.22108
 Alpha  occ. eigenvalues --  -11.21887 -11.21783 -11.21707 -11.21469 -11.21322
 Alpha  occ. eigenvalues --   -1.59865  -1.39418  -1.19414  -1.08833  -1.08790
 Alpha  occ. eigenvalues --   -1.04812  -1.03909  -0.96354  -0.95636  -0.87366
 Alpha  occ. eigenvalues --   -0.86211  -0.82464  -0.79979  -0.78619  -0.77501
 Alpha  occ. eigenvalues --   -0.72063  -0.71188  -0.70536  -0.65439  -0.65065
 Alpha  occ. eigenvalues --   -0.64811  -0.62154  -0.61305  -0.59768  -0.57991
 Alpha  occ. eigenvalues --   -0.55633  -0.55323  -0.53549  -0.52903  -0.52854
 Alpha  occ. eigenvalues --   -0.52543  -0.50287  -0.48823  -0.48816  -0.48291
 Alpha  occ. eigenvalues --   -0.47016  -0.46160  -0.46083  -0.44820  -0.44175
 Alpha  occ. eigenvalues --   -0.37305  -0.36415
 Alpha virt. eigenvalues --    0.05003   0.11207   0.16433   0.21082   0.22583
 Alpha virt. eigenvalues --    0.24071   0.26264   0.27004   0.27331   0.27379
 Alpha virt. eigenvalues --    0.28714   0.30801   0.31034   0.31609   0.32203

 Mulliken charges:
               1
     1  C   -0.173302
     2  C   -0.217995
     3  C   -0.170532
     4  C    0.158800
     5  C   -0.170753
     6  C   -0.216411
     7  H    0.227623
     8  H    0.224295
     9  H    0.275871
    10  H    0.275952
    11  H    0.224298
    12  N    0.488057
    13  O   -0.460237
    14  O   -0.460355
    15  C   -0.298387
    16  C   -0.299917
    17  C   -0.475870
    18  H    0.148657
    19  H    0.149906
    20  H    0.152005
    21  H    0.153013
    22  H    0.155608
    23  H    0.154875
    24  H    0.161214
    25  C   -0.298291
    26  C   -0.299201
    27  C   -0.483459
    28  H    0.149439
    29  H    0.151737
    30  H    0.147208
    31  H    0.152006
    32  H    0.159159
    33  H    0.151597
    34  H    0.163391
 Sum of Mulliken charges =  -0.00000

 Dipole moment (field-independent basis, Debye):
    X=              3.5373    Y=              3.5478    Z=              1.3055  Tot=              5.1772
 Quadrupole moment (field-independent basis, Debye-Ang):
   XX=           -122.6184   YY=            -93.7026   ZZ=            -91.5514
   XY=            -14.1268   XZ=             -4.2177   YZ=             -2.1414

 Normal termination of Gaussian 16 at Wed May  5 23:55:32 2021.
