 Gaussian 16, Revision A.03,
 Gaussian 16:  EM64L-G16RevA.03 25-Dec-2016

 -------------
 #p 6-31g* mp2
 -------------

 ------------------------------------------------------
 Input file generated by CHIRIPA (05-May-2021 14:57:25)
 ------------------------------------------------------
 Symbolic Z-matrix:
 Charge =  0 Multiplicity = 1

                         Standard orientation:
 ---------------------------------------------------------------------
 Center     Atomic      Atomic             Coordinates (Angstroms)
 Number     Number       Type             X           Y           Z
 ---------------------------------------------------------------------
      1          6           0        4.091739    1.905404   -1.510833
      2          6           0        5.107979    0.963556   -1.319264
      3          6           0        4.904224   -0.141580   -0.487574
      4          6           0        3.666414   -0.274285    0.139725
      5          6           0        2.634272    0.647011   -0.031114
      6          6           0        2.860299    1.744409   -0.867282
      7          1           0        4.258671    2.760894   -2.158649
      8          1           0        6.065339    1.086025   -1.817770
      9          1           0        5.673637   -0.885806   -0.321596
     10          1           0        1.690548    0.497935    0.479356
     11          1           0        2.069257    2.474280   -1.014205
     12          7           0        3.438918   -1.440147    1.022568
     13          8           0        2.339440   -1.534273    1.563793
     14          8           0        4.364393   -2.237749    1.156598
     15          6           0       -2.708239    1.686553    1.679223
     16          6           0       -1.872084    0.931938    0.849813
     17          6           0       -2.412746    0.039889   -0.081037
     18          6           0       -3.800165   -0.072972   -0.156004
     19          6           0       -4.659578    0.664997    0.656463
     20          6           0       -4.096869    1.550914    1.580076
     21          1           0       -2.279677    2.377136    2.399517
     22          1           0       -0.793296    1.035217    0.924608
     23          1           0       -1.788655   -0.556550   -0.735398
     24          1           0       -5.731173    0.540331    0.558694
     25          1           0       -4.748673    2.135675    2.222921
     26          7           0       -4.384210   -1.014098   -1.137622
     27          8           0       -5.609732   -1.095196   -1.184074
     28          8           0       -3.605404   -1.652836   -1.841974
 ---------------------------------------------------------------------

 SCF Done:  E(RHF) =  -868.336896218     A.U. after   16 cycles
 E2 =    -0.2599522993D+01 EUMP2 =    -0.87093641921104D+03

 The electronic state is 1-A.
 Alpha  occ. eigenvalues --  -20.61287 -20.61265 -20.60764 -20.60757 -15.86334
 Alpha  occ. eigenvalues --  -15.85821 -11.31774 -11.31243 -11.28461 -11.28273
 Alpha  occ. eigenvalues --  -11.28033 -11.27850 -11.27829 -11.27621 -11.27398
 Alpha  occ. eigenvalues --  -11.27294 -11.26959 -11.26845  -1.60349  -1.59837
 Alpha  occ. eigenvalues --   -1.39904  -1.39389  -1.19933  -1.19440  -1.09300
 Alpha  occ. eigenvalues --   -1.08827  -1.05361  -1.04865  -0.96136  -0.95645
 Alpha  occ. eigenvalues --   -0.86748  -0.86263  -0.82975  -0.82487  -0.78035
 Alpha  occ. eigenvalues --   -0.77516  -0.72550  -0.72039  -0.71671  -0.71161
 Alpha  occ. eigenvalues --   -0.71047  -0.70547  -0.65588  -0.65384  -0.65101
 Alpha  occ. eigenvalues --   -0.64893  -0.62766  -0.62174  -0.55823  -0.55365
 Alpha  occ. eigenvalues --   -0.53658  -0.53485  -0.53173  -0.52945  -0.49318
 Alpha  occ. eigenvalues --   -0.49299  -0.48805  -0.48787  -0.45294  -0.44782
 Alpha  occ. eigenvalues --   -0.37880  -0.37422  -0.36959  -0.36460
 Alpha virt. eigenvalues --    0.04531   0.05039   0.10700   0.11190   0.16032
 Alpha virt. eigenvalues --    0.16503   0.18148   0.21976   0.24414   0.27300
 Alpha virt. eigenvalues --    0.28230   0.29037   0.30212   0.31069   0.32259

 Mulliken charges:
               1
     1  C   -0.170246
     2  C   -0.218046
     3  C   -0.169225
     4  C    0.161074
     5  C   -0.179315
     6  C   -0.219615
     7  H    0.227917
     8  H    0.226110
     9  H    0.277866
    10  H    0.273929
    11  H    0.221863
    12  N    0.487263
    13  O   -0.462698
    14  O   -0.456736
    15  C   -0.171484
    16  C   -0.219623
    17  C   -0.170686
    18  C    0.158449
    19  C   -0.170208
    20  C   -0.218562
    21  H    0.226169
    22  H    0.220068
    23  H    0.277042
    24  H    0.276244
    25  H    0.223939
    26  N    0.488172
    27  O   -0.460379
    28  O   -0.459284
 Sum of Mulliken charges =  -0.00000

 Dipole moment (field-independent basis, Debye):
    X=              2.9953    Y=              7.3727    Z=              0.2905  Tot=              7.9632
 Quadrupole moment (field-independent basis, Debye-Ang):
   XX=           -104.5960   YY=           -107.9478   ZZ=           -107.4427
   XY=             -0.9201   XZ=            -27.9702   YZ=              1.3609

 Normal termination of Gaussian 16 at Wed May  5 19:31:52 2021.
