 Gaussian 16, Revision A.03,
 Gaussian 16:  EM64L-G16RevA.03 25-Dec-2016

 -------------
 #p 6-31g* mp2
 -------------

 ------------------------------------------------------
 Input file generated by CHIRIPA (05-May-2021 14:53:12)
 ------------------------------------------------------
 Symbolic Z-matrix:
 Charge =  0 Multiplicity = 1

                         Standard orientation:
 ---------------------------------------------------------------------
 Center     Atomic      Atomic             Coordinates (Angstroms)
 Number     Number       Type             X           Y           Z
 ---------------------------------------------------------------------
      1          6           0        4.468100   -0.061596   -0.276174
      2          6           0        5.268378    0.763283    0.732347
      3          6           0        6.443017    1.503056    0.091446
      4          1           0        5.137393   -0.784620   -0.762207
      5          1           0        4.096066    0.601957   -1.069070
      6          1           0        5.637627    0.098599    1.523843
      7          1           0        4.597061    1.484298    1.216173
      8          1           0        6.088917    2.188792   -0.685072
      9          1           0        7.135394    0.795219   -0.375653
     10          1           0        7.001346    2.086368    0.830280
     11          6           0        3.290503   -0.806983    0.349439
     12          6           0        2.490225   -1.631862   -0.659082
     13          6           0        1.315586   -2.371635   -0.018182
     14          1           0        3.662537   -1.470536    1.142335
     15          1           0        2.621210   -0.083959    0.835471
     16          1           0        3.161541   -2.352877   -1.142908
     17          1           0        2.120976   -0.967178   -1.450578
     18          1           0        0.623208   -1.663798    0.448918
     19          1           0        1.669686   -3.057371    0.758336
     20          1           0        0.757257   -2.954947   -0.757016
     21          6           0       -3.571228   -2.115140    0.193950
     22          6           0       -2.322676   -1.714694   -0.293167
     23          6           0       -2.012294   -0.357512   -0.420703
     24          6           0       -2.978448    0.576574   -0.050136
     25          6           0       -4.231246    0.209064    0.438460
     26          6           0       -4.519856   -1.153678    0.557567
     27          1           0       -3.803885   -3.171591    0.289749
     28          1           0       -1.584016   -2.459173   -0.576322
     29          1           0       -1.053501   -0.019736   -0.794926
     30          1           0       -4.947099    0.974435    0.712649
     31          1           0       -5.490315   -1.461759    0.936170
     32          7           0       -2.661384    2.016305   -0.180691
     33          8           0       -3.529858    2.819617    0.152596
     34          8           0       -1.550401    2.314193   -0.613836
 ---------------------------------------------------------------------

 SCF Done:  E(RHF) =  -669.534692963     A.U. after   15 cycles
 E2 =    -0.2092266800D+01 EUMP2 =    -0.67162695976278D+03

 The electronic state is 1-A.
 Alpha  occ. eigenvalues --  -20.60757 -20.60751 -15.85808 -11.31147 -11.27704
 Alpha  occ. eigenvalues --  -11.27678 -11.27415 -11.26725 -11.26615 -11.22147
 Alpha  occ. eigenvalues --  -11.21962 -11.21650 -11.21591 -11.21461 -11.21009
 Alpha  occ. eigenvalues --   -1.59832  -1.39387  -1.19308  -1.08711  -1.08674
 Alpha  occ. eigenvalues --   -1.04714  -1.03845  -0.96331  -0.95548  -0.87374
 Alpha  occ. eigenvalues --   -0.86095  -0.82385  -0.79933  -0.78429  -0.77429
 Alpha  occ. eigenvalues --   -0.72027  -0.71155  -0.70422  -0.65324  -0.64949
 Alpha  occ. eigenvalues --   -0.64725  -0.62194  -0.61144  -0.59732  -0.57902
 Alpha  occ. eigenvalues --   -0.55626  -0.55172  -0.53283  -0.53074  -0.52710
 Alpha  occ. eigenvalues --   -0.52538  -0.50233  -0.48784  -0.48779  -0.48230
 Alpha  occ. eigenvalues --   -0.46925  -0.45985  -0.45863  -0.44798  -0.44074
 Alpha  occ. eigenvalues --   -0.37287  -0.36274
 Alpha virt. eigenvalues --    0.05057   0.11330   0.16485   0.20123   0.22784
 Alpha virt. eigenvalues --    0.23958   0.25930   0.26382   0.27343   0.27944
 Alpha virt. eigenvalues --    0.29264   0.29863   0.31314   0.31804   0.32169

 Mulliken charges:
               1
     1  C   -0.299155
     2  C   -0.300436
     3  C   -0.476116
     4  H    0.148951
     5  H    0.152970
     6  H    0.151018
     7  H    0.155233
     8  H    0.157140
     9  H    0.154286
    10  H    0.160988
    11  C   -0.299802
    12  C   -0.300493
    13  C   -0.486679
    14  H    0.149611
    15  H    0.154174
    16  H    0.154330
    17  H    0.153262
    18  H    0.158497
    19  H    0.160636
    20  H    0.152273
    21  C   -0.172679
    22  C   -0.219952
    23  C   -0.176200
    24  C    0.158500
    25  C   -0.171531
    26  C   -0.218305
    27  H    0.225731
    28  H    0.232247
    29  H    0.276507
    30  H    0.275291
    31  H    0.223158
    32  N    0.488227
    33  O   -0.460417
    34  O   -0.461264
 Sum of Mulliken charges =  -0.00000

 Dipole moment (field-independent basis, Debye):
    X=             -0.9640    Y=             -5.0343    Z=              0.4977  Tot=              5.1498
 Quadrupole moment (field-independent basis, Debye-Ang):
   XX=            -84.0532   YY=           -100.7480   ZZ=            -95.0639
   XY=             12.5854   XZ=             -2.7864   YZ=              0.9438

 Normal termination of Gaussian 16 at Thu May  6 16:59:52 2021.
