 Gaussian 16, Revision A.03,
 Gaussian 16:  EM64L-G16RevA.03 25-Dec-2016

 -------------
 #p 6-31g* mp2
 -------------

 ------------------------------------------------------
 Input file generated by CHIRIPA (05-May-2021 14:53:17)
 ------------------------------------------------------
 Symbolic Z-matrix:
 Charge =  0 Multiplicity = 1

                         Standard orientation:
 ---------------------------------------------------------------------
 Center     Atomic      Atomic             Coordinates (Angstroms)
 Number     Number       Type             X           Y           Z
 ---------------------------------------------------------------------
      1          6           0       -4.500441    0.295863   -0.147489
      2          6           0       -5.989808    0.221674    0.190545
      3          6           0       -6.799042    1.347609   -0.453818
      4          1           0       -4.104709    1.267202    0.179378
      5          1           0       -4.376985    0.259260   -1.238734
      6          1           0       -6.110334    0.257012    1.280884
      7          1           0       -6.381997   -0.749677   -0.136993
      8          1           0       -6.708462    1.311786   -1.544283
      9          1           0       -6.435256    2.324195   -0.118350
     10          1           0       -7.860988    1.275346   -0.199045
     11          6           0       -3.678198   -0.823068    0.489408
     12          6           0       -2.188831   -0.748879    0.151374
     13          6           0       -1.379596   -1.874814    0.795737
     14          1           0       -3.801653   -0.786465    1.580653
     15          1           0       -4.073929   -1.794407    0.162541
     16          1           0       -1.796642    0.222472    0.478912
     17          1           0       -2.068304   -0.784217   -0.938965
     18          1           0       -1.743383   -2.851400    0.460269
     19          1           0       -1.470176   -1.838991    1.886202
     20          1           0       -0.317650   -1.802551    0.540964
     21          6           0        3.083277   -2.289026   -0.492227
     22          6           0        4.195041   -1.721572    0.139042
     23          6           0        4.267534   -0.340385    0.343041
     24          6           0        3.205560    0.447143   -0.098887
     25          6           0        2.084457   -0.088419   -0.731018
     26          6           0        2.033384   -1.472078   -0.924479
     27          1           0        3.035284   -3.362925   -0.646605
     28          1           0        5.011876   -2.353581    0.475776
     29          1           0        5.116378    0.125217    0.828939
     30          1           0        1.285728    0.567342   -1.055714
     31          1           0        1.168732   -1.910014   -1.415025
     32          7           0        3.270966    1.910653    0.111500
     33          8           0        2.322253    2.582732   -0.287109
     34          8           0        4.269707    2.357961    0.671025
 ---------------------------------------------------------------------

 SCF Done:  E(RHF) =  -669.535006240     A.U. after   15 cycles
 E2 =    -0.2092177649D+01 EUMP2 =    -0.67162718388837D+03

 The electronic state is 1-A.
 Alpha  occ. eigenvalues --  -20.60792 -20.60786 -15.85846 -11.31227 -11.27799
 Alpha  occ. eigenvalues --  -11.27793 -11.27543 -11.26815 -11.26791 -11.22049
 Alpha  occ. eigenvalues --  -11.21723 -11.21676 -11.21533 -11.21480 -11.21132
 Alpha  occ. eigenvalues --   -1.59867  -1.39420  -1.19411  -1.08801  -1.08683
 Alpha  occ. eigenvalues --   -1.04824  -1.03801  -0.96246  -0.95627  -0.87270
 Alpha  occ. eigenvalues --   -0.86204  -0.82463  -0.79877  -0.78481  -0.77508
 Alpha  occ. eigenvalues --   -0.72063  -0.71190  -0.70503  -0.65316  -0.65060
 Alpha  occ. eigenvalues --   -0.64832  -0.62205  -0.61194  -0.59629  -0.57868
 Alpha  occ. eigenvalues --   -0.55520  -0.55301  -0.53423  -0.52958  -0.52795
 Alpha  occ. eigenvalues --   -0.52450  -0.50175  -0.48824  -0.48817  -0.48183
 Alpha  occ. eigenvalues --   -0.46908  -0.46024  -0.45936  -0.44822  -0.44055
 Alpha  occ. eigenvalues --   -0.37376  -0.36357
 Alpha virt. eigenvalues --    0.05016   0.11168   0.16404   0.20502   0.22797
 Alpha virt. eigenvalues --    0.24040   0.26274   0.26458   0.27317   0.28209
 Alpha virt. eigenvalues --    0.29037   0.30394   0.31200   0.31608   0.32201

 Mulliken charges:
               1
     1  C   -0.299075
     2  C   -0.299927
     3  C   -0.475982
     4  H    0.152839
     5  H    0.148826
     6  H    0.152638
     7  H    0.151236
     8  H    0.155111
     9  H    0.156819
    10  H    0.160598
    11  C   -0.297878
    12  C   -0.301952
    13  C   -0.485089
    14  H    0.151669
    15  H    0.148951
    16  H    0.157494
    17  H    0.145241
    18  H    0.152047
    19  H    0.159294
    20  H    0.162156
    21  C   -0.172043
    22  C   -0.218472
    23  C   -0.170599
    24  C    0.158740
    25  C   -0.171073
    26  C   -0.220037
    27  H    0.226355
    28  H    0.223755
    29  H    0.275836
    30  H    0.277573
    31  H    0.227428
    32  N    0.488089
    33  O   -0.460237
    34  O   -0.460334
 Sum of Mulliken charges =  -0.00000

 Dipole moment (field-independent basis, Debye):
    X=             -0.2267    Y=             -5.1038    Z=             -0.7042  Tot=              5.1571
 Quadrupole moment (field-independent basis, Debye-Ang):
   XX=            -92.4393   YY=           -100.2721   ZZ=            -93.7908
   XY=            -17.0028   XZ=             -0.3918   YZ=              0.7466

 Normal termination of Gaussian 16 at Thu May  6 18:55:56 2021.
