 Gaussian 16, Revision A.03,
 Gaussian 16:  EM64L-G16RevA.03 25-Dec-2016

 -------------
 #p 6-31g* mp2
 -------------

 ------------------------------------------------------
 Input file generated by CHIRIPA (05-May-2021 14:57:25)
 ------------------------------------------------------
 Symbolic Z-matrix:
 Charge =  0 Multiplicity = 1

                         Standard orientation:
 ---------------------------------------------------------------------
 Center     Atomic      Atomic             Coordinates (Angstroms)
 Number     Number       Type             X           Y           Z
 ---------------------------------------------------------------------
      1          6           0        0.877352   -1.996048    0.507942
      2          6           0        1.427967   -1.201162    1.518635
      3          6           0        2.481227   -0.325462    1.238737
      4          6           0        2.961565   -0.269840   -0.068730
      5          6           0        2.434070   -1.048937   -1.097344
      6          6           0        1.381272   -1.917537   -0.794525
      7          1           0        0.059335   -2.673555    0.734276
      8          1           0        1.038626   -1.260044    2.531053
      9          1           0        2.926108    0.301267    2.002090
     10          1           0        2.843361   -0.968214   -2.097035
     11          1           0        0.955609   -2.533667   -1.581444
     12          7           0        4.076359    0.653466   -0.377178
     13          8           0        4.481659    0.683874   -1.537111
     14          8           0        4.523727    1.329263    0.546834
     15          6           0       -3.557678   -1.962247   -0.252437
     16          6           0       -2.708384   -1.619134    0.804680
     17          6           0       -2.270013   -0.301207    0.964199
     18          6           0       -2.702441    0.652513    0.044029
     19          6           0       -3.548424    0.341851   -1.019499
     20          6           0       -3.974252   -0.982386   -1.159554
     21          1           0       -3.893342   -2.988495   -0.368794
     22          1           0       -2.383259   -2.378022    1.510675
     23          1           0       -1.612353   -0.008061    1.773500
     24          1           0       -3.855583    1.120313   -1.707299
     25          1           0       -4.633806   -1.245967   -1.981477
     26          7           0       -2.244997    2.051084    0.202601
     27          8           0       -2.640271    2.872769   -0.621553
     28          8           0       -1.499840    2.299117    1.148043
 ---------------------------------------------------------------------

 SCF Done:  E(RHF) =  -868.335197161     A.U. after   16 cycles
 E2 =    -0.2602704744D+01 EUMP2 =    -0.87093790190471D+03

 The electronic state is 1-A.
 Alpha  occ. eigenvalues --  -20.61200 -20.61193 -20.60642 -20.60629 -15.86265
 Alpha  occ. eigenvalues --  -15.85701 -11.31820 -11.31193 -11.28505 -11.28412
 Alpha  occ. eigenvalues --  -11.28271 -11.27832 -11.27823 -11.27688 -11.27600
 Alpha  occ. eigenvalues --  -11.27442 -11.26923 -11.26870  -1.60269  -1.59709
 Alpha  occ. eigenvalues --   -1.39818  -1.39260  -1.20054  -1.19424  -1.09410
 Alpha  occ. eigenvalues --   -1.08821  -1.05509  -1.04854  -0.96203  -0.95619
 Alpha  occ. eigenvalues --   -0.86896  -0.86268  -0.83064  -0.82439  -0.78062
 Alpha  occ. eigenvalues --   -0.77443  -0.72482  -0.71924  -0.71594  -0.71166
 Alpha  occ. eigenvalues --   -0.71028  -0.70624  -0.65713  -0.65538  -0.65096
 Alpha  occ. eigenvalues --   -0.64909  -0.62852  -0.62193  -0.56003  -0.55523
 Alpha  occ. eigenvalues --   -0.53899  -0.53571  -0.53025  -0.52969  -0.49253
 Alpha  occ. eigenvalues --   -0.49221  -0.48693  -0.48662  -0.45181  -0.44638
 Alpha  occ. eigenvalues --   -0.38054  -0.37930  -0.36577  -0.36418
 Alpha virt. eigenvalues --    0.04394   0.05231   0.10316   0.11205   0.15720
 Alpha virt. eigenvalues --    0.16695   0.19116   0.22103   0.25441   0.26169
 Alpha virt. eigenvalues --    0.28070   0.29057   0.30067   0.31241   0.32854

 Mulliken charges:
               1
     1  C   -0.164886
     2  C   -0.223799
     3  C   -0.164347
     4  C    0.158870
     5  C   -0.169304
     6  C   -0.219811
     7  H    0.216992
     8  H    0.218392
     9  H    0.278990
    10  H    0.276379
    11  H    0.221619
    12  N    0.488499
    13  O   -0.460521
    14  O   -0.457962
    15  C   -0.172537
    16  C   -0.226312
    17  C   -0.161928
    18  C    0.158239
    19  C   -0.169183
    20  C   -0.219221
    21  H    0.225864
    22  H    0.215991
    23  H    0.273986
    24  H    0.278580
    25  H    0.225656
    26  N    0.488354
    27  O   -0.457568
    28  O   -0.459033
 Sum of Mulliken charges =  -0.00000

 Dipole moment (field-independent basis, Debye):
    X=             -5.5047    Y=             -7.8820    Z=              0.3948  Tot=              9.6220
 Quadrupole moment (field-independent basis, Debye-Ang):
   XX=           -118.6550   YY=           -110.3538   ZZ=            -97.5477
   XY=              2.9008   XZ=              7.8961   YZ=              0.0024

 Normal termination of Gaussian 16 at Fri May  7 00:26:50 2021.
