 Gaussian 16, Revision A.03,
 Gaussian 16:  EM64L-G16RevA.03 25-Dec-2016

 -------------
 #p 6-31g* mp2
 -------------

 ------------------------------------------------------
 Input file generated by CHIRIPA (05-May-2021 14:57:26)
 ------------------------------------------------------
 Symbolic Z-matrix:
 Charge =  0 Multiplicity = 1

                         Standard orientation:
 ---------------------------------------------------------------------
 Center     Atomic      Atomic             Coordinates (Angstroms)
 Number     Number       Type             X           Y           Z
 ---------------------------------------------------------------------
      1          6           0        0.974847   -0.020797   -0.312747
      2          6           0        1.631868    0.854808    0.557978
      3          6           0        3.022300    0.808324    0.696129
      4          6           0        3.727641   -0.130518   -0.055110
      5          6           0        3.101852   -1.016304   -0.930931
      6          6           0        1.710639   -0.951916   -1.053117
      7          1           0       -0.105577    0.022267   -0.413865
      8          1           0        1.063008    1.578958    1.134216
      9          1           0        3.556370    1.474365    1.362895
     10          1           0        3.695960   -1.727312   -1.492109
     11          1           0        1.203054   -1.633162   -1.730101
     12          7           0        5.200042   -0.189205    0.082694
     13          8           0        5.798619   -1.025496   -0.590330
     14          8           0        5.727654    0.602197    0.861119
     15          6           0       -4.307976   -2.212104    0.573739
     16          6           0       -4.649172   -1.591047   -0.632244
     17          6           0       -4.198801   -0.298655   -0.917612
     18          6           0       -3.405407    0.346387    0.029878
     19          6           0       -3.048455   -0.245746    1.240355
     20          6           0       -3.510113   -1.538658    1.504549
     21          1           0       -4.662219   -3.216267    0.787195
     22          1           0       -5.268661   -2.111656   -1.356983
     23          1           0       -4.447935    0.205654   -1.843368
     24          1           0       -2.429421    0.298493    1.943221
     25          1           0       -3.243564   -2.018515    2.441957
     26          7           0       -2.922644    1.714860   -0.261019
     27          8           0       -2.224926    2.261808    0.590259
     28          8           0       -3.251114    2.214610   -1.334795
 ---------------------------------------------------------------------

 SCF Done:  E(RHF) =  -868.339020091     A.U. after   16 cycles
 E2 =    -0.2600051489D+01 EUMP2 =    -0.87093907157987D+03

 The electronic state is 1-A.
 Alpha  occ. eigenvalues --  -20.62049 -20.61995 -20.60471 -20.60463 -15.87053
 Alpha  occ. eigenvalues --  -15.85518 -11.32313 -11.30807 -11.28858 -11.28805
 Alpha  occ. eigenvalues --  -11.28491 -11.27782 -11.27766 -11.27387 -11.27310
 Alpha  occ. eigenvalues --  -11.27048 -11.26404 -11.26221  -1.61094  -1.59546
 Alpha  occ. eigenvalues --   -1.40648  -1.39102  -1.20455  -1.18958  -1.09857
 Alpha  occ. eigenvalues --   -1.08361  -1.05810  -1.04341  -0.96709  -0.95217
 Alpha  occ. eigenvalues --   -0.87212  -0.85731  -0.83528  -0.82048  -0.78611
 Alpha  occ. eigenvalues --   -0.77107  -0.73255  -0.72468  -0.71737  -0.71509
 Alpha  occ. eigenvalues --   -0.70869  -0.70043  -0.66081  -0.65775  -0.64601
 Alpha  occ. eigenvalues --   -0.64310  -0.63144  -0.61678  -0.56276  -0.54905
 Alpha  occ. eigenvalues --   -0.54109  -0.53873  -0.52687  -0.52411  -0.50032
 Alpha  occ. eigenvalues --   -0.49999  -0.48499  -0.48488  -0.46054  -0.44525
 Alpha  occ. eigenvalues --   -0.38415  -0.37421  -0.36920  -0.35949
 Alpha virt. eigenvalues --    0.03866   0.05408   0.10177   0.11706   0.15378
 Alpha virt. eigenvalues --    0.16929   0.20406   0.21692   0.26280   0.26980
 Alpha virt. eigenvalues --    0.27834   0.28101   0.30365   0.30955   0.31670

 Mulliken charges:
               1
     1  C   -0.171319
     2  C   -0.222066
     3  C   -0.171890
     4  C    0.158337
     5  C   -0.172000
     6  C   -0.219655
     7  H    0.223163
     8  H    0.235836
     9  H    0.275271
    10  H    0.273554
    11  H    0.220454
    12  N    0.488063
    13  O   -0.462089
    14  O   -0.460739
    15  C   -0.170376
    16  C   -0.218529
    17  C   -0.172109
    18  C    0.151665
    19  C   -0.176273
    20  C   -0.217415
    21  H    0.229854
    22  H    0.227293
    23  H    0.278237
    24  H    0.274992
    25  H    0.227848
    26  N    0.488399
    27  O   -0.465346
    28  O   -0.453162
 Sum of Mulliken charges =  -0.00000

 Dipole moment (field-independent basis, Debye):
    X=             -7.2996    Y=             -4.6175    Z=              0.5693  Tot=              8.6562
 Quadrupole moment (field-independent basis, Debye-Ang):
   XX=           -131.3561   YY=           -106.0490   ZZ=            -99.0437
   XY=             18.0627   XZ=             -2.6325   YZ=              3.0526

 Normal termination of Gaussian 16 at Fri May  7 06:37:12 2021.
