 Gaussian 16, Revision A.03,
 Gaussian 16:  EM64L-G16RevA.03 25-Dec-2016

 -------------
 #p 6-31g* mp2
 -------------

 ------------------------------------------------------
 Input file generated by CHIRIPA (05-May-2021 14:51:09)
 ------------------------------------------------------
 Symbolic Z-matrix:
 Charge =  0 Multiplicity = 1

                         Standard orientation:
 ---------------------------------------------------------------------
 Center     Atomic      Atomic             Coordinates (Angstroms)
 Number     Number       Type             X           Y           Z
 ---------------------------------------------------------------------
      1          6           0        2.783619   -0.086461    0.425090
      2          6           0        1.609202   -1.039011    0.198417
      3          6           0        0.301274   -0.517095    0.794001
      4          1           0        2.910473    0.078859    1.503757
      5          1           0        2.543749    0.891418   -0.014921
      6          1           0        1.851782   -2.015210    0.637514
      7          1           0        1.485250   -1.202233   -0.879827
      8          1           0        0.032449    0.446168    0.348514
      9          1           0        0.401064   -0.371428    1.874475
     10          1           0       -0.524985   -1.213540    0.620446
     11          6           0        4.098154   -0.594393   -0.164597
     12          6           0        5.272570    0.358157    0.062076
     13          6           0        6.580499   -0.163759   -0.533509
     14          1           0        4.338024   -1.572272    0.275414
     15          1           0        3.971299   -0.759712   -1.243264
     16          1           0        5.396523    0.521379    1.140320
     17          1           0        5.029991    1.334357   -0.377021
     18          1           0        6.480708   -0.309425   -1.613983
     19          1           0        6.849323   -1.127022   -0.088021
     20          1           0        7.406757    0.532686   -0.359953
     21          6           0       -3.301873    0.996697    0.235016
     22          6           0       -2.548341    2.017653   -0.618110
     23          6           0       -2.277652    3.325379    0.126450
     24          1           0       -4.253112    1.435589    0.565870
     25          1           0       -2.720708    0.788620    1.144052
     26          1           0       -3.130096    2.222701   -1.525928
     27          1           0       -1.598873    1.576209   -0.947131
     28          1           0       -1.677243    3.140964    1.023167
     29          1           0       -3.217166    3.791130    0.441082
     30          1           0       -1.738067    4.040836   -0.501904
     31          6           0       -3.579900   -0.315844   -0.495509
     32          6           0       -4.333432   -1.336798    0.357618
     33          6           0       -4.604121   -2.644526   -0.386943
     34          1           0       -4.161064   -0.107767   -1.404545
     35          1           0       -2.628661   -0.754736   -0.826363
     36          1           0       -5.282899   -0.895356    0.686638
     37          1           0       -3.751678   -1.541847    1.265435
     38          1           0       -3.664608   -3.110275   -0.701574
     39          1           0       -5.204530   -2.460111   -1.283660
     40          1           0       -5.143707   -3.359982    0.241411
 ---------------------------------------------------------------------

 SCF Done:  E(RHF) =  -470.732705299     A.U. after   11 cycles
 E2 =    -0.1583821665D+01 EUMP2 =    -0.47231652696422D+03

 The electronic state is 1-A.
 Alpha  occ. eigenvalues --  -11.21673 -11.21629 -11.21562 -11.21542 -11.21452
 Alpha  occ. eigenvalues --  -11.21391 -11.21318 -11.21256 -11.21146 -11.21092
 Alpha  occ. eigenvalues --  -11.21053 -11.21044  -1.08488  -1.08366  -1.03592
 Alpha  occ. eigenvalues --   -1.03487  -0.96052  -0.95926  -0.87070  -0.86948
 Alpha  occ. eigenvalues --   -0.79657  -0.79553  -0.78291  -0.78183  -0.65211
 Alpha  occ. eigenvalues --   -0.64954  -0.61137  -0.60779  -0.59403  -0.59305
 Alpha  occ. eigenvalues --   -0.57660  -0.57534  -0.55322  -0.55232  -0.52721
 Alpha  occ. eigenvalues --   -0.52639  -0.52478  -0.52341  -0.50076  -0.49800
 Alpha  occ. eigenvalues --   -0.48038  -0.47792  -0.46776  -0.46503  -0.45861
 Alpha  occ. eigenvalues --   -0.45792  -0.45653  -0.45574  -0.43822  -0.43725
 Alpha virt. eigenvalues --    0.20470   0.22951   0.23347   0.24616   0.26207
 Alpha virt. eigenvalues --    0.26511   0.27423   0.27480   0.27898   0.29442
 Alpha virt. eigenvalues --    0.30167   0.31411   0.31760   0.31821   0.32354

 Mulliken charges:
               1
     1  C   -0.298562
     2  C   -0.300398
     3  C   -0.483860
     4  H    0.149814
     5  H    0.149667
     6  H    0.152210
     7  H    0.151989
     8  H    0.161568
     9  H    0.155128
    10  H    0.163032
    11  C   -0.298332
    12  C   -0.299703
    13  C   -0.475741
    14  H    0.149632
    15  H    0.149758
    16  H    0.152001
    17  H    0.152049
    18  H    0.155240
    19  H    0.155219
    20  H    0.160375
    21  C   -0.299723
    22  C   -0.303028
    23  C   -0.476716
    24  H    0.149282
    25  H    0.153555
    26  H    0.152058
    27  H    0.153855
    28  H    0.155815
    29  H    0.155426
    30  H    0.159703
    31  C   -0.300971
    32  C   -0.300664
    33  C   -0.475472
    34  H    0.149171
    35  H    0.152491
    36  H    0.151978
    37  H    0.152246
    38  H    0.154525
    39  H    0.155217
    40  H    0.160167
 Sum of Mulliken charges =  -0.00000

 Dipole moment (field-independent basis, Debye):
    X=              0.0320    Y=             -0.0014    Z=              0.0154  Tot=              0.0356
 Quadrupole moment (field-independent basis, Debye-Ang):
   XX=            -85.1212   YY=            -85.5720   ZZ=            -84.1975
   XY=             -0.4643   XZ=              0.7173   YZ=             -1.0285

 Normal termination of Gaussian 16 at Thu May  6 00:33:42 2021.
