 Gaussian 16, Revision A.03,
 Gaussian 16:  EM64L-G16RevA.03 25-Dec-2016

 -------------
 #p 6-31g* mp2
 -------------

 ------------------------------------------------------
 Input file generated by CHIRIPA (05-May-2021 14:53:17)
 ------------------------------------------------------
 Symbolic Z-matrix:
 Charge =  0 Multiplicity = 1

                         Standard orientation:
 ---------------------------------------------------------------------
 Center     Atomic      Atomic             Coordinates (Angstroms)
 Number     Number       Type             X           Y           Z
 ---------------------------------------------------------------------
      1          6           0        2.537546   -0.477242    0.038707
      2          6           0        3.651175   -1.521860   -0.042462
      3          6           0        3.318451   -2.801517    0.725370
      4          1           0        2.347064   -0.234814    1.093169
      5          1           0        1.607986   -0.911070   -0.355128
      6          1           0        4.578690   -1.085735    0.350129
      7          1           0        3.839160   -1.761688   -1.096862
      8          1           0        2.407571   -3.262362    0.329744
      9          1           0        3.151303   -2.582569    1.784957
     10          1           0        4.128061   -3.534526    0.654014
     11          6           0        2.855432    0.807659   -0.723991
     12          6           0        1.741803    1.852277   -0.642823
     13          6           0        2.074526    3.131934   -1.410655
     14          1           0        3.784992    1.241487   -0.330157
     15          1           0        3.045914    0.565231   -1.778453
     16          1           0        1.553818    2.092105    0.411578
     17          1           0        0.814288    1.416152   -1.035414
     18          1           0        2.241675    2.912986   -2.470241
     19          1           0        2.985407    3.592779   -1.015028
     20          1           0        1.264917    3.864943   -1.339299
     21          6           0       -1.118233    1.477916    1.942977
     22          6           0       -0.569009    0.200638    1.789905
     23          6           0       -1.108506   -0.698008    0.864742
     24          6           0       -2.202187   -0.284427    0.105729
     25          6           0       -2.771715    0.981347    0.235127
     26          6           0       -2.215898    1.863516    1.166468
     27          1           0       -0.692800    2.169607    2.664065
     28          1           0        0.283457   -0.101543    2.391599
     29          1           0       -0.703011   -1.692846    0.725849
     30          1           0       -3.621447    1.253923   -0.378938
     31          1           0       -2.644498    2.854838    1.283207
     32          7           0       -2.781967   -1.227060   -0.876970
     33          8           0       -3.745542   -0.838504   -1.533616
     34          8           0       -2.261845   -2.336605   -0.971955
 ---------------------------------------------------------------------

 SCF Done:  E(RHF) =  -669.533342693     A.U. after   15 cycles
 E2 =    -0.2095547322D+01 EUMP2 =    -0.67162889001430D+03

 The electronic state is 1-A.
 Alpha  occ. eigenvalues --  -20.60794 -20.60788 -15.85846 -11.31197 -11.27745
 Alpha  occ. eigenvalues --  -11.27707 -11.27456 -11.26765 -11.26693 -11.21983
 Alpha  occ. eigenvalues --  -11.21885 -11.21857 -11.21729 -11.21505 -11.21360
 Alpha  occ. eigenvalues --   -1.59870  -1.39424  -1.19357  -1.08874  -1.08724
 Alpha  occ. eigenvalues --   -1.04749  -1.03895  -0.96370  -0.95595  -0.87383
 Alpha  occ. eigenvalues --   -0.86159  -0.82438  -0.79962  -0.78740  -0.77432
 Alpha  occ. eigenvalues --   -0.72063  -0.71195  -0.70466  -0.65554  -0.65002
 Alpha  occ. eigenvalues --   -0.64695  -0.62118  -0.61287  -0.59742  -0.57982
 Alpha  occ. eigenvalues --   -0.55672  -0.55255  -0.53333  -0.52921  -0.52854
 Alpha  occ. eigenvalues --   -0.52747  -0.50301  -0.48822  -0.48820  -0.48271
 Alpha  occ. eigenvalues --   -0.46990  -0.46192  -0.46092  -0.44829  -0.44164
 Alpha  occ. eigenvalues --   -0.37272  -0.36231
 Alpha virt. eigenvalues --    0.05016   0.11160   0.16449   0.20031   0.22988
 Alpha virt. eigenvalues --    0.23446   0.24954   0.26194   0.27595   0.28553
 Alpha virt. eigenvalues --    0.29302   0.29745   0.31332   0.31692   0.31809

 Mulliken charges:
               1
     1  C   -0.300978
     2  C   -0.299167
     3  C   -0.477980
     4  H    0.138398
     5  H    0.154299
     6  H    0.151976
     7  H    0.156294
     8  H    0.157934
     9  H    0.149424
    10  H    0.164243
    11  C   -0.298467
    12  C   -0.298726
    13  C   -0.476061
    14  H    0.148645
    15  H    0.153174
    16  H    0.145008
    17  H    0.157428
    18  H    0.157658
    19  H    0.153870
    20  H    0.158388
    21  C   -0.170502
    22  C   -0.210834
    23  C   -0.172408
    24  C    0.157443
    25  C   -0.172031
    26  C   -0.218162
    27  H    0.224965
    28  H    0.224845
    29  H    0.275790
    30  H    0.275419
    31  H    0.223292
    32  N    0.488099
    33  O   -0.460251
    34  O   -0.461024
 Sum of Mulliken charges =  -0.00000

 Dipole moment (field-independent basis, Debye):
    X=              2.0582    Y=              3.2831    Z=              3.3773  Tot=              5.1401
 Quadrupole moment (field-independent basis, Debye-Ang):
   XX=           -101.7526   YY=            -95.5285   ZZ=            -93.9210
   XY=            -10.8348   XZ=             -6.3419   YZ=             -0.6770

 Normal termination of Gaussian 16 at Thu May  6 10:41:26 2021.
