 Gaussian 16, Revision A.03,
 Gaussian 16:  EM64L-G16RevA.03 25-Dec-2016

 -------------
 #p 6-31g* mp2
 -------------

 ------------------------------------------------------
 Input file generated by CHIRIPA (05-May-2021 14:57:21)
 ------------------------------------------------------
 Symbolic Z-matrix:
 Charge =  0 Multiplicity = 1

                         Standard orientation:
 ---------------------------------------------------------------------
 Center     Atomic      Atomic             Coordinates (Angstroms)
 Number     Number       Type             X           Y           Z
 ---------------------------------------------------------------------
      1          6           0        2.809912    2.646850    0.473014
      2          6           0        3.819943    1.748337    0.832223
      3          6           0        3.729888    0.399415    0.476066
      4          6           0        2.610873   -0.018614   -0.242507
      5          6           0        1.588104    0.852259   -0.615084
      6          6           0        1.699174    2.196737   -0.248221
      7          1           0        2.888031    3.693000    0.753844
      8          1           0        4.683700    2.095086    1.392342
      9          1           0        4.497306   -0.317660    0.741191
     10          1           0        0.739114    0.476946   -1.173452
     11          1           0        0.913249    2.892284   -0.528546
     12          7           0        2.504412   -1.444306   -0.625221
     13          8           0        1.508388   -1.787552   -1.258274
     14          8           0        3.419007   -2.191520   -0.284893
     15          6           0       -1.558399   -2.275962    1.168879
     16          6           0       -1.980486   -1.236436    2.004193
     17          6           0       -2.574609   -0.090601    1.466952
     18          6           0       -2.731865   -0.017242    0.083775
     19          6           0       -2.321683   -1.036101   -0.774694
     20          6           0       -1.730042   -2.172658   -0.215458
     21          1           0       -1.097834   -3.162470    1.594764
     22          1           0       -1.848458   -1.313928    3.079650
     23          1           0       -2.910512    0.729030    2.090484
     24          1           0       -2.466702   -0.930040   -1.842934
     25          1           0       -1.403200   -2.978410   -0.866599
     26          7           0       -3.359522    1.190892   -0.496621
     27          8           0       -3.486745    1.231196   -1.718434
     28          8           0       -3.712373    2.074646    0.281268
 ---------------------------------------------------------------------

 SCF Done:  E(RHF) =  -868.340080698     A.U. after   16 cycles
 E2 =    -0.2600596045D+01 EUMP2 =    -0.87094067674336D+03

 The electronic state is 1-A.
 Alpha  occ. eigenvalues --  -20.61253 -20.61245 -20.60857 -20.60850 -15.86278
 Alpha  occ. eigenvalues --  -15.85894 -11.31379 -11.31021 -11.27943 -11.27870
 Alpha  occ. eigenvalues --  -11.27602 -11.27518 -11.27410 -11.27062 -11.26900
 Alpha  occ. eigenvalues --  -11.26806 -11.26513 -11.26290  -1.60321  -1.59946
 Alpha  occ. eigenvalues --   -1.39882  -1.39501  -1.19527  -1.19115  -1.08971
 Alpha  occ. eigenvalues --   -1.08540  -1.04883  -1.04440  -0.95853  -0.95427
 Alpha  occ. eigenvalues --   -0.86292  -0.85843  -0.82699  -0.82244  -0.77777
 Alpha  occ. eigenvalues --   -0.77344  -0.72531  -0.72105  -0.71632  -0.71286
 Alpha  occ. eigenvalues --   -0.70627  -0.70167  -0.65182  -0.64874  -0.64733
 Alpha  occ. eigenvalues --   -0.64386  -0.62231  -0.61777  -0.55395  -0.54905
 Alpha  occ. eigenvalues --   -0.53246  -0.53041  -0.52727  -0.52490  -0.49283
 Alpha  occ. eigenvalues --   -0.49249  -0.48882  -0.48840  -0.45351  -0.44958
 Alpha  occ. eigenvalues --   -0.37500  -0.37062  -0.36470  -0.35981
 Alpha virt. eigenvalues --    0.04701   0.05123   0.11171   0.11607   0.16231
 Alpha virt. eigenvalues --    0.16786   0.21310   0.21908   0.27119   0.27690
 Alpha virt. eigenvalues --    0.28265   0.28735   0.30932   0.31478   0.32102

 Mulliken charges:
               1
     1  C   -0.170377
     2  C   -0.219145
     3  C   -0.171757
     4  C    0.156455
     5  C   -0.170043
     6  C   -0.220493
     7  H    0.227708
     8  H    0.223566
     9  H    0.274363
    10  H    0.276588
    11  H    0.230672
    12  N    0.488938
    13  O   -0.466758
    14  O   -0.460988
    15  C   -0.174875
    16  C   -0.218465
    17  C   -0.174651
    18  C    0.154197
    19  C   -0.181639
    20  C   -0.200648
    21  H    0.229488
    22  H    0.221996
    23  H    0.272209
    24  H    0.275370
    25  H    0.236572
    26  N    0.486490
    27  O   -0.461768
    28  O   -0.463005
 Sum of Mulliken charges =  -0.00000

 Dipole moment (field-independent basis, Debye):
    X=              2.7071    Y=              0.5912    Z=              3.3542  Tot=              4.3507
 Quadrupole moment (field-independent basis, Debye-Ang):
   XX=           -112.7306   YY=           -104.2074   ZZ=           -100.8428
   XY=             24.4616   XZ=             -0.0349   YZ=             -0.0232

 Normal termination of Gaussian 16 at Thu May  6 03:19:32 2021.
