 Gaussian 16, Revision A.03,
 Gaussian 16:  EM64L-G16RevA.03 25-Dec-2016

 -------------
 #p 6-31g* mp2
 -------------

 ------------------------------------------------------
 Input file generated by CHIRIPA (05-May-2021 14:55:20)
 ------------------------------------------------------
 Symbolic Z-matrix:
 Charge =  0 Multiplicity = 1

                         Standard orientation:
 ---------------------------------------------------------------------
 Center     Atomic      Atomic             Coordinates (Angstroms)
 Number     Number       Type             X           Y           Z
 ---------------------------------------------------------------------
      1          6           0        2.732974    2.214578   -0.628077
      2          6           0        1.645418    1.515182   -0.094610
      3          6           0        1.764321    0.161772    0.235076
      4          6           0        2.990924   -0.463738    0.017195
      5          6           0        4.092794    0.205869   -0.512711
      6          6           0        3.951044    1.558845   -0.835060
      7          1           0        2.631733    3.265771   -0.881335
      8          1           0        0.698245    2.021860    0.067214
      9          1           0        0.938528   -0.403695    0.649481
     10          1           0        5.024303   -0.326319   -0.662663
     11          1           0        4.797347    2.099488   -1.249210
     12          7           0        3.128896   -1.896303    0.362335
     13          8           0        4.220239   -2.424493    0.160789
     14          8           0        2.143081   -2.463830    0.827867
     15          6           0       -4.076380   -0.201007   -0.463213
     16          6           0       -5.116052   -1.161075    0.115867
     17          6           0       -5.661071   -2.139937   -0.924602
     18          1           0       -4.526260    0.358459   -1.294809
     19          1           0       -3.247740   -0.782883   -0.890027
     20          1           0       -5.941829   -0.577527    0.542696
     21          1           0       -4.663704   -1.718183    0.946306
     22          1           0       -4.851964   -2.747033   -1.343389
     23          1           0       -6.137350   -1.599895   -1.749293
     24          1           0       -6.402706   -2.816892   -0.489207
     25          6           0       -3.522173    0.783748    0.564815
     26          6           0       -2.482501    1.743817   -0.014267
     27          6           0       -1.937483    2.722680    1.026204
     28          1           0       -4.350814    1.365625    0.991628
     29          1           0       -3.072295    0.224283    1.396410
     30          1           0       -2.934850    2.300926   -0.844704
     31          1           0       -1.656725    1.160270   -0.441094
     32          1           0       -1.461203    2.182638    1.850894
     33          1           0       -2.746590    3.329775    1.444991
     34          1           0       -1.195847    3.399635    0.590809
 ---------------------------------------------------------------------

 SCF Done:  E(RHF) =  -669.535191105     A.U. after   15 cycles
 E2 =    -0.2091918186D+01 EUMP2 =    -0.67162710929071D+03

 The electronic state is 1-A.
 Alpha  occ. eigenvalues --  -20.60743 -20.60738 -15.85794 -11.31142 -11.27705
 Alpha  occ. eigenvalues --  -11.27694 -11.27427 -11.26723 -11.26622 -11.22535
 Alpha  occ. eigenvalues --  -11.22205 -11.21990 -11.21830 -11.21745 -11.21189
 Alpha  occ. eigenvalues --   -1.59818  -1.39372  -1.19305  -1.08994  -1.08701
 Alpha  occ. eigenvalues --   -1.04711  -1.04123  -0.96581  -0.95544  -0.87596
 Alpha  occ. eigenvalues --   -0.86100  -0.82378  -0.80209  -0.78726  -0.77432
 Alpha  occ. eigenvalues --   -0.72014  -0.71141  -0.70420  -0.65683  -0.64952
 Alpha  occ. eigenvalues --   -0.64732  -0.62233  -0.61377  -0.59967  -0.58154
 Alpha  occ. eigenvalues --   -0.55862  -0.55184  -0.53351  -0.53052  -0.53035
 Alpha  occ. eigenvalues --   -0.52614  -0.50505  -0.48771  -0.48766  -0.48512
 Alpha  occ. eigenvalues --   -0.47244  -0.46276  -0.46157  -0.44782  -0.44355
 Alpha  occ. eigenvalues --   -0.37285  -0.36298
 Alpha virt. eigenvalues --    0.05087   0.11340   0.16534   0.19446   0.22783
 Alpha virt. eigenvalues --    0.23920   0.25560   0.26409   0.26948   0.28185
 Alpha virt. eigenvalues --    0.29493   0.30418   0.31060   0.31166   0.31962

 Mulliken charges:
               1
     1  C   -0.173771
     2  C   -0.227426
     3  C   -0.175989
     4  C    0.159089
     5  C   -0.171450
     6  C   -0.218295
     7  H    0.225606
     8  H    0.242226
     9  H    0.274724
    10  H    0.275350
    11  H    0.223150
    12  N    0.488154
    13  O   -0.460564
    14  O   -0.460940
    15  C   -0.299225
    16  C   -0.300469
    17  C   -0.476364
    18  H    0.150021
    19  H    0.151731
    20  H    0.151874
    21  H    0.154546
    22  H    0.157577
    23  H    0.154736
    24  H    0.161789
    25  C   -0.298712
    26  C   -0.305521
    27  C   -0.484840
    28  H    0.151929
    29  H    0.151596
    30  H    0.156214
    31  H    0.148417
    32  H    0.157491
    33  H    0.165363
    34  H    0.151984
 Sum of Mulliken charges =  -0.00000

 Dipole moment (field-independent basis, Debye):
    X=             -0.7170    Y=              5.0271    Z=             -1.1972  Tot=              5.2172
 Quadrupole moment (field-independent basis, Debye-Ang):
   XX=            -92.0609   YY=           -100.1811   ZZ=            -95.4320
   XY=             14.7083   XZ=             -5.6275   YZ=              0.0114

 Normal termination of Gaussian 16 at Thu May  6 15:45:27 2021.
