 Gaussian 16, Revision A.03,
 Gaussian 16:  EM64L-G16RevA.03 25-Dec-2016

 -------------
 #p 6-31g* mp2
 -------------

 ------------------------------------------------------
 Input file generated by CHIRIPA (05-May-2021 14:53:12)
 ------------------------------------------------------
 Symbolic Z-matrix:
 Charge =  0 Multiplicity = 1

                         Standard orientation:
 ---------------------------------------------------------------------
 Center     Atomic      Atomic             Coordinates (Angstroms)
 Number     Number       Type             X           Y           Z
 ---------------------------------------------------------------------
      1          6           0       -3.156237    0.855400   -0.537840
      2          6           0       -2.425749    2.085519    0.001771
      3          6           0       -2.141262    3.126519   -1.081363
      4          1           0       -2.554494    0.400542   -1.336560
      5          1           0       -4.101243    1.172327   -1.000351
      6          1           0       -1.483053    1.766213    0.464354
      7          1           0       -3.029213    2.537390    0.799430
      8          1           0       -3.074410    3.473336   -1.536943
      9          1           0       -1.519466    2.697776   -1.873923
     10          1           0       -1.618544    3.997430   -0.673759
     11          6           0       -3.447718   -0.194313    0.533080
     12          6           0       -4.178206   -1.424432   -0.006530
     13          6           0       -4.462694   -2.465432    1.076604
     14          1           0       -2.502712   -0.511240    0.995591
     15          1           0       -4.049462    0.260545    1.331801
     16          1           0       -3.574743   -1.876303   -0.804189
     17          1           0       -5.120902   -1.105126   -0.469113
     18          1           0       -5.084490   -2.036689    1.869164
     19          1           0       -3.529545   -2.812249    1.532184
     20          1           0       -4.985412   -3.336342    0.669000
     21          6           0        2.909907    2.108760    0.810681
     22          6           0        1.658852    1.698549    0.338336
     23          6           0        1.464384    0.389474   -0.112277
     24          6           0        2.547744   -0.487070   -0.076334
     25          6           0        3.806231   -0.108384    0.388530
     26          6           0        3.977721    1.205576    0.834230
     27          1           0        3.052050    3.127578    1.158820
     28          1           0        0.827773    2.397816    0.318894
     29          1           0        0.506474    0.045417   -0.483020
     30          1           0        4.615716   -0.828176    0.395747
     31          1           0        4.950419    1.521375    1.200528
     32          7           0        2.354032   -1.875515   -0.550778
     33          8           0        3.324494   -2.628563   -0.508843
     34          8           0        1.235406   -2.184439   -0.955598
 ---------------------------------------------------------------------

 SCF Done:  E(RHF) =  -669.535445620     A.U. after   15 cycles
 E2 =    -0.2092208035D+01 EUMP2 =    -0.67162765365493D+03

 The electronic state is 1-A.
 Alpha  occ. eigenvalues --  -20.60793 -20.60786 -15.85844 -11.31193 -11.27759
 Alpha  occ. eigenvalues --  -11.27751 -11.27486 -11.26772 -11.26721 -11.22408
 Alpha  occ. eigenvalues --  -11.21901 -11.21828 -11.21590 -11.21521 -11.20915
 Alpha  occ. eigenvalues --   -1.59867  -1.39421  -1.19360  -1.08808  -1.08753
 Alpha  occ. eigenvalues --   -1.04765  -1.03885  -0.96325  -0.95597  -0.87342
 Alpha  occ. eigenvalues --   -0.86158  -0.82437  -0.80001  -0.78532  -0.77481
 Alpha  occ. eigenvalues --   -0.72063  -0.71189  -0.70475  -0.65506  -0.64998
 Alpha  occ. eigenvalues --   -0.64769  -0.62210  -0.61161  -0.59748  -0.57912
 Alpha  occ. eigenvalues --   -0.55608  -0.55252  -0.53094  -0.53043  -0.52833
 Alpha  occ. eigenvalues --   -0.52732  -0.50275  -0.48820  -0.48819  -0.48282
 Alpha  occ. eigenvalues --   -0.47043  -0.46074  -0.45950  -0.44830  -0.44124
 Alpha  occ. eigenvalues --   -0.37338  -0.36356
 Alpha virt. eigenvalues --    0.05032   0.11282   0.16478   0.18700   0.22693
 Alpha virt. eigenvalues --    0.23749   0.25386   0.26290   0.27140   0.28496
 Alpha virt. eigenvalues --    0.30215   0.30497   0.31116   0.31379   0.32233

 Mulliken charges:
               1
     1  C   -0.300788
     2  C   -0.306787
     3  C   -0.478747
     4  H    0.152484
     5  H    0.152737
     6  H    0.143768
     7  H    0.156486
     8  H    0.161887
     9  H    0.156243
    10  H    0.155815
    11  C   -0.299129
    12  C   -0.300996
    13  C   -0.476430
    14  H    0.150748
    15  H    0.149332
    16  H    0.158793
    17  H    0.150868
    18  H    0.153099
    19  H    0.158958
    20  H    0.161945
    21  C   -0.171181
    22  C   -0.224216
    23  C   -0.175130
    24  C    0.158629
    25  C   -0.170832
    26  C   -0.218496
    27  H    0.225939
    28  H    0.231840
    29  H    0.277471
    30  H    0.275556
    31  H    0.223454
    32  N    0.488180
    33  O   -0.460192
    34  O   -0.461307
 Sum of Mulliken charges =  -0.00000

 Dipole moment (field-independent basis, Debye):
    X=              0.5433    Y=              4.8204    Z=              1.6348  Tot=              5.1190
 Quadrupole moment (field-independent basis, Debye-Ang):
   XX=            -85.3283   YY=           -100.3371   ZZ=            -96.0117
   XY=             10.6066   XZ=              5.6417   YZ=             -0.7881

 Normal termination of Gaussian 16 at Thu May  6 10:26:56 2021.
