 Gaussian 16, Revision A.03,
 Gaussian 16:  EM64L-G16RevA.03 25-Dec-2016

 -------------
 #p 6-31g* mp2
 -------------

 ------------------------------------------------------
 Input file generated by CHIRIPA (05-May-2021 14:57:24)
 ------------------------------------------------------
 Symbolic Z-matrix:
 Charge =  0 Multiplicity = 1

                         Standard orientation:
 ---------------------------------------------------------------------
 Center     Atomic      Atomic             Coordinates (Angstroms)
 Number     Number       Type             X           Y           Z
 ---------------------------------------------------------------------
      1          6           0       -1.738194    2.528320    0.271809
      2          6           0       -1.951279    1.703512    1.381227
      3          6           0       -2.684370    0.519737    1.255517
      4          6           0       -3.192204    0.189901   -0.000112
      5          6           0       -2.996942    0.990821   -1.124251
      6          6           0       -2.260784    2.169974   -0.975191
      7          1           0       -1.167520    3.446109    0.378533
      8          1           0       -1.546615    1.979293    2.350885
      9          1           0       -2.864369   -0.137204    2.097803
     10          1           0       -3.412840    0.689408   -2.077979
     11          1           0       -2.096876    2.808602   -1.838518
     12          7           0       -3.969918   -1.060862   -0.145555
     13          8           0       -4.406759   -1.329074   -1.262636
     14          8           0       -4.127923   -1.749314    0.860280
     15          6           0        1.005726   -1.848703    0.114322
     16          6           0        0.880309   -0.455586    0.110178
     17          6           0        2.013882    0.359123    0.033953
     18          6           0        3.263016   -0.255603   -0.037218
     19          6           0        3.420623   -1.640684   -0.035110
     20          6           0        2.273248   -2.435770    0.041791
     21          1           0        0.119778   -2.473967    0.173798
     22          1           0       -0.102796    0.003096    0.166404
     23          1           0        1.945600    1.440201    0.028962
     24          1           0        4.414011   -2.068862   -0.092225
     25          1           0        2.373667   -3.517413    0.044823
     26          7           0        4.470385    0.596505   -0.118273
     27          8           0        5.559577    0.030398   -0.180075
     28          8           0        4.304667    1.814362   -0.118466
 ---------------------------------------------------------------------

 SCF Done:  E(RHF) =  -868.337738552     A.U. after   16 cycles
 E2 =    -0.2602617337D+01 EUMP2 =    -0.87094035588876D+03

 The electronic state is 1-A.
 Alpha  occ. eigenvalues --  -20.61835 -20.61818 -20.60932 -20.60913 -15.86884
 Alpha  occ. eigenvalues --  -15.85972 -11.32400 -11.31245 -11.28911 -11.28898
 Alpha  occ. eigenvalues --  -11.28613 -11.27917 -11.27907 -11.27795 -11.27758
 Alpha  occ. eigenvalues --  -11.27406 -11.26747 -11.26574  -1.60909  -1.60001
 Alpha  occ. eigenvalues --   -1.40453  -1.39559  -1.20593  -1.19374  -1.09920
 Alpha  occ. eigenvalues --   -1.08775  -1.05950  -1.04755  -0.96722  -0.95639
 Alpha  occ. eigenvalues --   -0.87304  -0.86159  -0.83517  -0.82474  -0.78566
 Alpha  occ. eigenvalues --   -0.77562  -0.73079  -0.72261  -0.72188  -0.71569
 Alpha  occ. eigenvalues --   -0.71323  -0.70467  -0.66160  -0.65859  -0.65013
 Alpha  occ. eigenvalues --   -0.64811  -0.63233  -0.62195  -0.56362  -0.55337
 Alpha  occ. eigenvalues --   -0.54447  -0.53957  -0.53105  -0.52449  -0.49857
 Alpha  occ. eigenvalues --   -0.49837  -0.48959  -0.48925  -0.45822  -0.44986
 Alpha  occ. eigenvalues --   -0.38591  -0.37688  -0.37276  -0.36306
 Alpha virt. eigenvalues --    0.03909   0.04962   0.10052   0.11272   0.15355
 Alpha virt. eigenvalues --    0.16521   0.20385   0.21702   0.26447   0.26833
 Alpha virt. eigenvalues --    0.27808   0.28499   0.30214   0.31450   0.31710

 Mulliken charges:
               1
     1  C   -0.178627
     2  C   -0.224744
     3  C   -0.182891
     4  C    0.157112
     5  C   -0.172176
     6  C   -0.217079
     7  H    0.233273
     8  H    0.230831
     9  H    0.279057
    10  H    0.280119
    11  H    0.230662
    12  N    0.487227
    13  O   -0.456216
    14  O   -0.459336
    15  C   -0.176164
    16  C   -0.226245
    17  C   -0.177639
    18  C    0.159509
    19  C   -0.172336
    20  C   -0.217988
    21  H    0.230337
    22  H    0.240757
    23  H    0.267477
    24  H    0.275362
    25  H    0.224921
    26  N    0.488234
    27  O   -0.459551
    28  O   -0.463884
 Sum of Mulliken charges =  -0.00000

 Dipole moment (field-independent basis, Debye):
    X=             -1.8735    Y=              1.4606    Z=              0.7511  Tot=              2.4915
 Quadrupole moment (field-independent basis, Debye-Ang):
   XX=           -149.2977   YY=            -98.2550   ZZ=           -100.6808
   XY=            -25.6726   XZ=              0.2467   YZ=             -0.8349

 Normal termination of Gaussian 16 at Wed May  5 16:23:33 2021.
