 Gaussian 16, Revision A.03,
 Gaussian 16:  EM64L-G16RevA.03 25-Dec-2016

 -------------
 #p 6-31g* mp2
 -------------

 ------------------------------------------------------
 Input file generated by CHIRIPA (05-May-2021 14:55:20)
 ------------------------------------------------------
 Symbolic Z-matrix:
 Charge =  0 Multiplicity = 1

                         Standard orientation:
 ---------------------------------------------------------------------
 Center     Atomic      Atomic             Coordinates (Angstroms)
 Number     Number       Type             X           Y           Z
 ---------------------------------------------------------------------
      1          6           0        4.589279   -1.667543   -0.920995
      2          6           0        3.661755   -0.973464   -1.704879
      3          6           0        2.768240   -0.072979   -1.117251
      4          6           0        2.830248    0.109953    0.263322
      5          6           0        3.742846   -0.566634    1.071211
      6          6           0        4.626798   -1.462275    0.462110
      7          1           0        5.279669   -2.365180   -1.385819
      8          1           0        3.630340   -1.130882   -2.779252
      9          1           0        2.040020    0.477538   -1.700384
     10          1           0        3.750162   -0.388679    2.139713
     11          1           0        5.346060   -1.999924    1.073371
     12          7           0        1.889385    1.060692    0.896783
     13          8           0        1.964276    1.204098    2.115169
     14          8           0        1.094861    1.644472    0.162910
     15          6           0       -3.971338   -0.689061   -0.195880
     16          6           0       -5.308463   -1.032841    0.461310
     17          6           0       -5.594659   -2.534783    0.468738
     18          1           0       -3.968025   -1.069506   -1.226509
     19          1           0       -3.164580   -1.214379    0.333815
     20          1           0       -6.112316   -0.505939   -0.068607
     21          1           0       -5.308667   -0.651364    1.490432
     22          1           0       -4.813270   -3.073149    1.014808
     23          1           0       -5.621485   -2.926897   -0.553088
     24          1           0       -6.555364   -2.758067    0.943132
     25          6           0       -3.671064    0.808716   -0.210954
     26          6           0       -2.333939    1.152495   -0.868144
     27          6           0       -2.047742    2.654438   -0.875572
     28          1           0       -4.477822    1.334033   -0.740649
     29          1           0       -3.674377    1.189161    0.819675
     30          1           0       -2.333735    0.771020   -1.897266
     31          1           0       -1.530086    0.625594   -0.338227
     32          1           0       -2.020917    3.046552    0.146254
     33          1           0       -2.829132    3.192804   -1.421642
     34          1           0       -1.087037    2.877722   -1.349966
 ---------------------------------------------------------------------

 SCF Done:  E(RHF) =  -669.535874938     A.U. after   15 cycles
 E2 =    -0.2091639537D+01 EUMP2 =    -0.67162751447553D+03

 The electronic state is 1-A.
 Alpha  occ. eigenvalues --  -20.60981 -20.60974 -15.86001 -11.31307 -11.27869
 Alpha  occ. eigenvalues --  -11.27865 -11.27604 -11.26873 -11.26863 -11.21065
 Alpha  occ. eigenvalues --  -11.20719 -11.20669 -11.20453 -11.20340 -11.19567
 Alpha  occ. eigenvalues --   -1.60039  -1.39597  -1.19475  -1.08884  -1.07602
 Alpha  occ. eigenvalues --   -1.04868  -1.02614  -0.95735  -0.95063  -0.86271
 Alpha  occ. eigenvalues --   -0.86094  -0.82563  -0.78739  -0.77630  -0.77371
 Alpha  occ. eigenvalues --   -0.72242  -0.71352  -0.70584  -0.65136  -0.64872
 Alpha  occ. eigenvalues --   -0.64229  -0.62216  -0.59997  -0.58492  -0.56650
 Alpha  occ. eigenvalues --   -0.55374  -0.54361  -0.53200  -0.52959  -0.51744
 Alpha  occ. eigenvalues --   -0.51505  -0.49116  -0.48979  -0.48891  -0.47048
 Alpha  occ. eigenvalues --   -0.45829  -0.45205  -0.44915  -0.44551  -0.42878
 Alpha  occ. eigenvalues --   -0.37453  -0.36468
 Alpha virt. eigenvalues --    0.04882   0.11185   0.16359   0.21237   0.23640
 Alpha virt. eigenvalues --    0.25122   0.27139   0.27429   0.27802   0.28413
 Alpha virt. eigenvalues --    0.29071   0.30822   0.31969   0.32297   0.32595

 Mulliken charges:
               1
     1  C   -0.170538
     2  C   -0.218510
     3  C   -0.170549
     4  C    0.157476
     5  C   -0.170721
     6  C   -0.218583
     7  H    0.226081
     8  H    0.224014
     9  H    0.276009
    10  H    0.275797
    11  H    0.223850
    12  N    0.492531
    13  O   -0.458970
    14  O   -0.462458
    15  C   -0.297226
    16  C   -0.299013
    17  C   -0.475159
    18  H    0.146072
    19  H    0.148324
    20  H    0.150866
    21  H    0.152532
    22  H    0.154173
    23  H    0.153368
    24  H    0.158749
    25  C   -0.298136
    26  C   -0.301311
    27  C   -0.468821
    28  H    0.145847
    29  H    0.151532
    30  H    0.140903
    31  H    0.161832
    32  H    0.160555
    33  H    0.143272
    34  H    0.166211
 Sum of Mulliken charges =  -0.00000

 Dipole moment (field-independent basis, Debye):
    X=              3.6496    Y=             -3.2809    Z=             -2.1175  Tot=              5.3449
 Quadrupole moment (field-independent basis, Debye-Ang):
   XX=            -76.7145   YY=            -97.2693   ZZ=            -91.3974
   XY=            -10.3452   XZ=             -3.4238   YZ=             -1.8936

 Normal termination of Gaussian 16 at Thu May  6 17:24:45 2021.
