 Gaussian 16, Revision A.03,
 Gaussian 16:  EM64L-G16RevA.03 25-Dec-2016

 -------------
 #p 6-31g* mp2
 -------------

 ------------------------------------------------------
 Input file generated by CHIRIPA (05-May-2021 14:51:12)
 ------------------------------------------------------
 Symbolic Z-matrix:
 Charge =  0 Multiplicity = 1

                         Standard orientation:
 ---------------------------------------------------------------------
 Center     Atomic      Atomic             Coordinates (Angstroms)
 Number     Number       Type             X           Y           Z
 ---------------------------------------------------------------------
      1          6           0       -2.727328    0.754019   -0.659829
      2          6           0       -3.047641    2.029483    0.120284
      3          6           0       -2.355456    3.264786   -0.456517
      4          1           0       -1.639855    0.598053   -0.664572
      5          1           0       -3.028414    0.888274   -1.708027
      6          1           0       -2.747309    1.892357    1.166999
      7          1           0       -4.134492    2.182327    0.123333
      8          1           0       -2.663160    3.429499   -1.494201
      9          1           0       -1.268095    3.137883   -0.444605
     10          1           0       -2.598228    4.165211    0.116333
     11          6           0       -3.411995   -0.489469   -0.095296
     12          6           0       -3.091682   -1.764933   -0.875409
     13          6           0       -3.783867   -3.000236   -0.298608
     14          1           0       -3.110909   -0.623724    0.952902
     15          1           0       -4.499468   -0.333503   -0.090553
     16          1           0       -2.004831   -1.917777   -0.878458
     17          1           0       -3.392014   -1.627807   -1.922125
     18          1           0       -4.871228   -2.873333   -0.310521
     19          1           0       -3.476163   -3.164949    0.739076
     20          1           0       -3.541095   -3.900661   -0.871459
     21          6           0        3.786092   -0.372094    0.265106
     22          6           0        4.422290    0.192925   -1.005324
     23          6           0        5.855521   -0.295985   -1.216530
     24          1           0        4.401636   -0.092922    1.131196
     25          1           0        3.796439   -1.469721    0.215072
     26          1           0        4.409492    1.289178   -0.953528
     27          1           0        3.805055   -0.087463   -1.868469
     28          1           0        5.882634   -1.387694   -1.294239
     29          1           0        6.490504   -0.003232   -0.374099
     30          1           0        6.291084    0.120099   -2.130325
     31          6           0        2.353231    0.107544    0.490019
     32          6           0        1.717033   -0.457475    1.760449
     33          6           0        0.283802    0.031435    1.971656
     34          1           0        2.342883    1.205171    0.540053
     35          1           0        1.737686   -0.171628   -0.376071
     36          1           0        2.334268   -0.177087    2.623594
     37          1           0        1.729831   -1.553727    1.708653
     38          1           0       -0.351182   -0.261317    1.129224
     39          1           0        0.256689    1.123144    2.049364
     40          1           0       -0.151761   -0.384649    2.885450
 ---------------------------------------------------------------------

 SCF Done:  E(RHF) =  -470.733099251     A.U. after   11 cycles
 E2 =    -0.1583612403D+01 EUMP2 =    -0.47231671165415D+03

 The electronic state is 1-A.
 Alpha  occ. eigenvalues --  -11.21677 -11.21632 -11.21611 -11.21527 -11.21469
 Alpha  occ. eigenvalues --  -11.21404 -11.21351 -11.21286 -11.21148 -11.21094
 Alpha  occ. eigenvalues --  -11.21070 -11.21018  -1.08496  -1.08390  -1.03590
 Alpha  occ. eigenvalues --   -1.03493  -0.96055  -0.95934  -0.87065  -0.86958
 Alpha  occ. eigenvalues --   -0.79659  -0.79556  -0.78311  -0.78199  -0.65225
 Alpha  occ. eigenvalues --   -0.64972  -0.60989  -0.60890  -0.59408  -0.59312
 Alpha  occ. eigenvalues --   -0.57656  -0.57547  -0.55511  -0.55068  -0.52733
 Alpha  occ. eigenvalues --   -0.52641  -0.52472  -0.52354  -0.49984  -0.49882
 Alpha  occ. eigenvalues --   -0.48011  -0.47849  -0.46750  -0.46552  -0.45974
 Alpha  occ. eigenvalues --   -0.45783  -0.45685  -0.45483  -0.43839  -0.43747
 Alpha virt. eigenvalues --    0.20132   0.23025   0.23796   0.24510   0.25763
 Alpha virt. eigenvalues --    0.26281   0.26970   0.27804   0.28138   0.29583
 Alpha virt. eigenvalues --    0.30792   0.31391   0.31688   0.31911   0.32418

 Mulliken charges:
               1
     1  C   -0.301323
     2  C   -0.300498
     3  C   -0.476223
     4  H    0.151956
     5  H    0.149503
     6  H    0.154303
     7  H    0.151542
     8  H    0.154902
     9  H    0.155657
    10  H    0.159842
    11  C   -0.300806
    12  C   -0.300128
    13  C   -0.475638
    14  H    0.151894
    15  H    0.150016
    16  H    0.150719
    17  H    0.152137
    18  H    0.155324
    19  H    0.155417
    20  H    0.160053
    21  C   -0.298298
    22  C   -0.299768
    23  C   -0.475761
    24  H    0.149920
    25  H    0.149689
    26  H    0.152061
    27  H    0.152143
    28  H    0.155241
    29  H    0.155225
    30  H    0.160434
    31  C   -0.298897
    32  C   -0.299844
    33  C   -0.483736
    34  H    0.149573
    35  H    0.149358
    36  H    0.152349
    37  H    0.152102
    38  H    0.163423
    39  H    0.155826
    40  H    0.160311
 Sum of Mulliken charges =  -0.00000

 Dipole moment (field-independent basis, Debye):
    X=              0.0216    Y=             -0.0023    Z=              0.0195  Tot=              0.0292
 Quadrupole moment (field-independent basis, Debye-Ang):
   XX=            -85.2304   YY=            -85.2025   ZZ=            -84.3182
   XY=              0.0201   XZ=              1.0646   YZ=              0.5593

 Normal termination of Gaussian 16 at Thu May  6 02:19:32 2021.
