 Gaussian 16, Revision A.03,
 Gaussian 16:  EM64L-G16RevA.03 25-Dec-2016

 -------------
 #p 6-31g* mp2
 -------------

 ------------------------------------------------------
 Input file generated by CHIRIPA (05-May-2021 14:51:09)
 ------------------------------------------------------
 Symbolic Z-matrix:
 Charge =  0 Multiplicity = 1

                         Standard orientation:
 ---------------------------------------------------------------------
 Center     Atomic      Atomic             Coordinates (Angstroms)
 Number     Number       Type             X           Y           Z
 ---------------------------------------------------------------------
      1          6           0        2.766223    0.718303   -0.113106
      2          6           0        3.941261    1.323657    0.655540
      3          6           0        3.838163    2.842998    0.792538
      4          1           0        2.714637    1.175196   -1.110870
      5          1           0        1.829314    0.978506    0.398645
      6          1           0        4.875773    1.061225    0.143257
      7          1           0        3.990172    0.865131    1.651521
      8          1           0        2.921718    3.120639    1.323240
      9          1           0        3.812351    3.317846   -0.193593
     10          1           0        4.688299    3.254861    1.345256
     11          6           0        2.855016   -0.799837   -0.258347
     12          6           0        1.679979   -1.405192   -1.026993
     13          6           0        1.783076   -2.924533   -1.163991
     14          1           0        3.791926   -1.060041   -0.770099
     15          1           0        2.906602   -1.256730    0.739417
     16          1           0        1.631068   -0.946666   -2.022974
     17          1           0        0.745467   -1.142759   -0.514711
     18          1           0        1.808888   -3.399381   -0.177861
     19          1           0        2.699521   -3.202174   -1.694694
     20          1           0        0.932940   -3.336395   -1.716710
     21          6           0       -3.270717    0.648143    0.238983
     22          6           0       -2.960064    1.736197   -0.789423
     23          6           0       -3.888955    2.944812   -0.670233
     24          1           0       -4.313459    0.324402    0.117222
     25          1           0       -3.191636    1.074378    1.248668
     26          1           0       -3.038354    1.307687   -1.796828
     27          1           0       -1.917883    2.057251   -0.665326
     28          1           0       -3.804999    3.398791    0.322467
     29          1           0       -4.931837    2.644970   -0.815464
     30          1           0       -3.649227    3.710362   -1.414763
     31          6           0       -2.350522   -0.566609    0.132471
     32          6           0       -2.661176   -1.654663    1.160876
     33          6           0       -1.732285   -2.863277    1.041687
     34          1           0       -2.429603   -0.992843   -0.877215
     35          1           0       -1.307780   -0.242867    0.254231
     36          1           0       -3.703357   -1.975716    1.036778
     37          1           0       -2.582885   -1.226152    2.168281
     38          1           0       -0.689403   -2.563434    1.186917
     39          1           0       -1.816240   -3.317256    0.048986
     40          1           0       -1.972013   -3.628828    1.786216
 ---------------------------------------------------------------------

 SCF Done:  E(RHF) =  -470.732844100     A.U. after   11 cycles
 E2 =    -0.1583946507D+01 EUMP2 =    -0.47231679060638D+03

 The electronic state is 1-A.
 Alpha  occ. eigenvalues --  -11.21634 -11.21616 -11.21606 -11.21492 -11.21430
 Alpha  occ. eigenvalues --  -11.21411 -11.21370 -11.21338 -11.21088 -11.21087
 Alpha  occ. eigenvalues --  -11.21075 -11.20996  -1.08474  -1.08405  -1.03576
 Alpha  occ. eigenvalues --   -1.03480  -0.96017  -0.95942  -0.87040  -0.86950
 Alpha  occ. eigenvalues --   -0.79651  -0.79544  -0.78386  -0.78123  -0.65216
 Alpha  occ. eigenvalues --   -0.64948  -0.61087  -0.60793  -0.59424  -0.59264
 Alpha  occ. eigenvalues --   -0.57637  -0.57540  -0.55348  -0.55197  -0.52692
 Alpha  occ. eigenvalues --   -0.52650  -0.52455  -0.52351  -0.49976  -0.49867
 Alpha  occ. eigenvalues --   -0.48067  -0.47810  -0.46831  -0.46543  -0.46134
 Alpha  occ. eigenvalues --   -0.45763  -0.45738  -0.45135  -0.43806  -0.43759
 Alpha virt. eigenvalues --    0.20532   0.22957   0.23483   0.24640   0.25171
 Alpha virt. eigenvalues --    0.26635   0.26781   0.27543   0.29159   0.29644
 Alpha virt. eigenvalues --    0.29847   0.31271   0.31451   0.31987   0.32348

 Mulliken charges:
               1
     1  C   -0.298566
     2  C   -0.299612
     3  C   -0.475680
     4  H    0.150020
     5  H    0.148151
     6  H    0.152237
     7  H    0.151871
     8  H    0.154870
     9  H    0.155283
    10  H    0.160347
    11  C   -0.297884
    12  C   -0.310653
    13  C   -0.474726
    14  H    0.149627
    15  H    0.148755
    16  H    0.151590
    17  H    0.163022
    18  H    0.155360
    19  H    0.154397
    20  H    0.160421
    21  C   -0.297584
    22  C   -0.299794
    23  C   -0.475722
    24  H    0.149787
    25  H    0.149253
    26  H    0.152082
    27  H    0.152319
    28  H    0.155113
    29  H    0.155151
    30  H    0.160399
    31  C   -0.303565
    32  C   -0.299980
    33  C   -0.478503
    34  H    0.149946
    35  H    0.154091
    36  H    0.152173
    37  H    0.151490
    38  H    0.158235
    39  H    0.156047
    40  H    0.160232
 Sum of Mulliken charges =  -0.00000

 Dipole moment (field-independent basis, Debye):
    X=             -0.0286    Y=             -0.0071    Z=             -0.0072  Tot=              0.0303
 Quadrupole moment (field-independent basis, Debye-Ang):
   XX=            -84.4881   YY=            -86.6793   ZZ=            -83.6204
   XY=              0.8872   XZ=             -0.0277   YZ=              0.0054

 Normal termination of Gaussian 16 at Wed May  5 15:06:52 2021.
