 Gaussian 16, Revision A.03,
 Gaussian 16:  EM64L-G16RevA.03 25-Dec-2016

 -------------
 #p 6-31g* mp2
 -------------

 ------------------------------------------------------
 Input file generated by CHIRIPA (05-May-2021 14:51:08)
 ------------------------------------------------------
 Symbolic Z-matrix:
 Charge =  0 Multiplicity = 1

                         Standard orientation:
 ---------------------------------------------------------------------
 Center     Atomic      Atomic             Coordinates (Angstroms)
 Number     Number       Type             X           Y           Z
 ---------------------------------------------------------------------
      1          6           0        2.257735   -0.468035    0.644559
      2          6           0        1.871710   -1.726268    1.422904
      3          6           0        0.637894   -1.521978    2.302539
      4          1           0        2.442154    0.351356    1.352749
      5          1           0        1.408765   -0.156554    0.020361
      6          1           0        2.721636   -2.036077    2.044402
      7          1           0        1.688375   -2.542810    0.712789
      8          1           0       -0.225891   -1.235340    1.694003
      9          1           0        0.813240   -0.725727    3.033182
     10          1           0        0.379654   -2.433864    2.849929
     11          6           0        3.489342   -0.656497   -0.239384
     12          6           0        3.875367    0.601736   -1.017729
     13          6           0        5.109184    0.397446   -1.897363
     14          1           0        4.338312   -0.967978    0.384814
     15          1           0        3.304923   -1.475888   -0.947573
     16          1           0        4.058702    1.418278   -0.307614
     17          1           0        3.025441    0.911545   -1.639227
     18          1           0        4.933837   -0.398805   -2.628007
     19          1           0        5.972968    0.110808   -1.288828
     20          1           0        5.367423    1.309332   -2.444753
     21          6           0       -2.722902    1.081062    0.337403
     22          6           0       -1.415373    1.838266    0.102885
     23          6           0       -1.127825    2.872642    1.191543
     24          1           0       -3.551532    1.800496    0.389678
     25          1           0       -2.679479    0.582683    1.315732
     26          1           0       -1.460703    2.333934   -0.875315
     27          1           0       -0.589785    1.116930    0.050970
     28          1           0       -1.055797    2.390392    2.171772
     29          1           0       -1.931663    3.614311    1.240224
     30          1           0       -0.188512    3.402197    1.004135
     31          6           0       -3.024175    0.043469   -0.742579
     32          6           0       -4.331704   -0.713733   -0.508060
     33          6           0       -4.619252   -1.748109   -1.596718
     34          1           0       -3.067599    0.541849   -1.720908
     35          1           0       -2.195545   -0.675964   -0.794854
     36          1           0       -5.157293    0.007602   -0.456146
     37          1           0       -4.286374   -1.209402    0.470140
     38          1           0       -3.815413   -2.489780   -1.645399
     39          1           0       -4.691280   -1.265861   -2.576948
     40          1           0       -5.558565   -2.277665   -1.409310
 ---------------------------------------------------------------------

 SCF Done:  E(RHF) =  -470.733238148     A.U. after   11 cycles
 E2 =    -0.1583682466D+01 EUMP2 =    -0.47231692061424D+03

 The electronic state is 1-A.
 Alpha  occ. eigenvalues --  -11.21665 -11.21617 -11.21608 -11.21536 -11.21440
 Alpha  occ. eigenvalues --  -11.21413 -11.21380 -11.21340 -11.21158 -11.21082
 Alpha  occ. eigenvalues --  -11.21080 -11.21020  -1.08485  -1.08415  -1.03581
 Alpha  occ. eigenvalues --   -1.03504  -0.96027  -0.95962  -0.87042  -0.86980
 Alpha  occ. eigenvalues --   -0.79658  -0.79566  -0.78360  -0.78171  -0.65233
 Alpha  occ. eigenvalues --   -0.64950  -0.61036  -0.60852  -0.59397  -0.59320
 Alpha  occ. eigenvalues --   -0.57655  -0.57555  -0.55374  -0.55196  -0.52719
 Alpha  occ. eigenvalues --   -0.52654  -0.52457  -0.52384  -0.49973  -0.49918
 Alpha  occ. eigenvalues --   -0.48057  -0.47842  -0.46836  -0.46579  -0.46077
 Alpha  occ. eigenvalues --   -0.45790  -0.45728  -0.45228  -0.43827  -0.43768
 Alpha virt. eigenvalues --    0.19657   0.23073   0.23877   0.24943   0.25248
 Alpha virt. eigenvalues --    0.26334   0.26806   0.27894   0.28405   0.29283
 Alpha virt. eigenvalues --    0.31114   0.31344   0.31873   0.31895   0.32033

 Mulliken charges:
               1
     1  C   -0.305758
     2  C   -0.299408
     3  C   -0.479423
     4  H    0.150078
     5  H    0.156347
     6  H    0.152414
     7  H    0.151779
     8  H    0.157496
     9  H    0.155643
    10  H    0.160685
    11  C   -0.297517
    12  C   -0.299854
    13  C   -0.475733
    14  H    0.149676
    15  H    0.149593
    16  H    0.151964
    17  H    0.152268
    18  H    0.155229
    19  H    0.155193
    20  H    0.160362
    21  C   -0.298935
    22  C   -0.309066
    23  C   -0.475257
    24  H    0.149801
    25  H    0.150781
    26  H    0.151286
    27  H    0.161045
    28  H    0.155601
    29  H    0.154786
    30  H    0.160212
    31  C   -0.299169
    32  C   -0.299617
    33  C   -0.475716
    34  H    0.149672
    35  H    0.148613
    36  H    0.152148
    37  H    0.152247
    38  H    0.155040
    39  H    0.155126
    40  H    0.160369
 Sum of Mulliken charges =  -0.00000

 Dipole moment (field-independent basis, Debye):
    X=              0.0251    Y=             -0.0048    Z=              0.0092  Tot=              0.0272
 Quadrupole moment (field-independent basis, Debye-Ang):
   XX=            -85.0200   YY=            -84.8484   ZZ=            -84.8453
   XY=             -0.4490   XZ=              1.1026   YZ=             -0.7107

 Normal termination of Gaussian 16 at Wed May  5 21:16:59 2021.
