 Gaussian 16, Revision A.03,
 Gaussian 16:  EM64L-G16RevA.03 25-Dec-2016

 -------------
 #p 6-31g* mp2
 -------------

 ------------------------------------------------------
 Input file generated by CHIRIPA (05-May-2021 14:57:24)
 ------------------------------------------------------
 Symbolic Z-matrix:
 Charge =  0 Multiplicity = 1

                         Standard orientation:
 ---------------------------------------------------------------------
 Center     Atomic      Atomic             Coordinates (Angstroms)
 Number     Number       Type             X           Y           Z
 ---------------------------------------------------------------------
      1          6           0       -0.652451    0.180335    1.762555
      2          6           0       -1.542332    1.241163    1.564372
      3          6           0       -2.703161    1.061931    0.806150
      4          6           0       -2.943946   -0.197090    0.258264
      5          6           0       -2.076664   -1.273604    0.437786
      6          6           0       -0.921982   -1.071456    1.199622
      7          1           0        0.246921    0.328467    2.352963
      8          1           0       -1.335578    2.214414    2.000353
      9          1           0       -3.409132    1.865907    0.636901
     10          1           0       -2.309817   -2.232260   -0.009468
     11          1           0       -0.232677   -1.897121    1.351875
     12          7           0       -4.169610   -0.398965   -0.546345
     13          8           0       -4.358904   -1.517897   -1.018356
     14          8           0       -4.917783    0.565561   -0.689750
     15          6           0        1.364890    2.210156   -0.922057
     16          6           0        0.903342    0.941479   -1.288050
     17          6           0        1.657985   -0.199312   -0.998816
     18          6           0        2.875070   -0.034014   -0.339520
     19          6           0        3.361898    1.216467    0.038087
     20          6           0        2.590535    2.343366   -0.261321
     21          1           0        0.772171    3.090953   -1.150692
     22          1           0       -0.048135    0.835013   -1.801278
     23          1           0        1.324471   -1.193422   -1.270722
     24          1           0        4.314329    1.290847    0.548734
     25          1           0        2.951475    3.327386    0.024113
     26          7           0        3.682827   -1.234365   -0.027935
     27          8           0        4.751744   -1.061932    0.553719
     28          8           0        3.231737   -2.324904   -0.371270
 ---------------------------------------------------------------------

 SCF Done:  E(RHF) =  -868.336540022     A.U. after   16 cycles
 E2 =    -0.2604486849D+01 EUMP2 =    -0.87094102687055D+03

 The electronic state is 1-A.
 Alpha  occ. eigenvalues --  -20.61488 -20.61472 -20.61274 -20.61262 -15.86528
 Alpha  occ. eigenvalues --  -15.86327 -11.31832 -11.31726 -11.28378 -11.28318
 Alpha  occ. eigenvalues --  -11.28305 -11.28244 -11.28031 -11.27898 -11.27393
 Alpha  occ. eigenvalues --  -11.27256 -11.27238 -11.27135  -1.60563  -1.60353
 Alpha  occ. eigenvalues --   -1.40116  -1.39903  -1.20025  -1.19849  -1.09395
 Alpha  occ. eigenvalues --   -1.09233  -1.05382  -1.05247  -0.96232  -0.96077
 Alpha  occ. eigenvalues --   -0.86783  -0.86621  -0.83048  -0.82906  -0.78123
 Alpha  occ. eigenvalues --   -0.77969  -0.72734  -0.72531  -0.71906  -0.71693
 Alpha  occ. eigenvalues --   -0.71067  -0.70921  -0.65611  -0.65501  -0.65361
 Alpha  occ. eigenvalues --   -0.65200  -0.62727  -0.62574  -0.55842  -0.55708
 Alpha  occ. eigenvalues --   -0.54491  -0.53450  -0.53303  -0.52883  -0.49504
 Alpha  occ. eigenvalues --   -0.49487  -0.49296  -0.49292  -0.45530  -0.45302
 Alpha  occ. eigenvalues --   -0.38407  -0.38106  -0.36846  -0.36175
 Alpha virt. eigenvalues --    0.04324   0.04546   0.10029   0.11431   0.15907
 Alpha virt. eigenvalues --    0.16029   0.20555   0.21275   0.26211   0.26953
 Alpha virt. eigenvalues --    0.27806   0.28118   0.29898   0.30876   0.31902

 Mulliken charges:
               1
     1  C   -0.162558
     2  C   -0.219706
     3  C   -0.176072
     4  C    0.155405
     5  C   -0.177579
     6  C   -0.223996
     7  H    0.229553
     8  H    0.221903
     9  H    0.275049
    10  H    0.278131
    11  H    0.233058
    12  N    0.487683
    13  O   -0.458539
    14  O   -0.460658
    15  C   -0.173746
    16  C   -0.209492
    17  C   -0.171858
    18  C    0.153587
    19  C   -0.175306
    20  C   -0.221433
    21  H    0.226659
    22  H    0.229011
    23  H    0.273915
    24  H    0.275989
    25  H    0.224072
    26  N    0.487464
    27  O   -0.458533
    28  O   -0.462002
 Sum of Mulliken charges =  -0.00000

 Dipole moment (field-independent basis, Debye):
    X=              1.4702    Y=              4.9100    Z=              1.7576  Tot=              5.4184
 Quadrupole moment (field-independent basis, Debye-Ang):
   XX=           -145.4797   YY=            -99.6009   ZZ=           -102.7840
   XY=             10.3878   XZ=             -8.0221   YZ=              0.3186

 Normal termination of Gaussian 16 at Thu May  6 00:17:32 2021.
