 Gaussian 16, Revision A.03,
 Gaussian 16:  EM64L-G16RevA.03 25-Dec-2016

 -------------
 #p 6-31g* mp2
 -------------

 ------------------------------------------------------
 Input file generated by CHIRIPA (05-May-2021 14:53:17)
 ------------------------------------------------------
 Symbolic Z-matrix:
 Charge =  0 Multiplicity = 1

                         Standard orientation:
 ---------------------------------------------------------------------
 Center     Atomic      Atomic             Coordinates (Angstroms)
 Number     Number       Type             X           Y           Z
 ---------------------------------------------------------------------
      1          6           0        3.879642    0.486420    0.141450
      2          6           0        3.614095    1.877048   -0.436152
      3          6           0        2.297678    2.479796    0.055310
      4          1           0        3.047595   -0.179492   -0.125390
      5          1           0        3.890734    0.548650    1.238446
      6          1           0        3.604883    1.812462   -1.531761
      7          1           0        4.446964    2.539676   -0.168068
      8          1           0        2.300233    2.573185    1.146123
      9          1           0        1.453368    1.841839   -0.225318
     10          1           0        2.127801    3.473876   -0.369902
     11          6           0        5.191990   -0.129307   -0.340578
     12          6           0        5.457537   -1.519934    0.237024
     13          6           0        6.773955   -2.122682   -0.254438
     14          1           0        5.180899   -0.191537   -1.437574
     15          1           0        6.024038    0.536605   -0.073738
     16          1           0        4.624669   -2.182563   -0.031060
     17          1           0        5.466750   -1.455349    1.332633
     18          1           0        7.618265   -1.484726    0.026191
     19          1           0        6.771400   -2.216072   -1.345251
     20          1           0        6.943832   -3.116763    0.170774
     21          6           0       -5.832545   -0.751593   -0.789411
     22          6           0       -5.558785   -0.830092    0.580047
     23          6           0       -4.294099   -0.493401    1.071733
     24          6           0       -3.322320   -0.080322    0.161621
     25          6           0       -3.564376    0.008159   -1.208367
     26          6           0       -4.836223   -0.333454   -1.677681
     27          1           0       -6.817765   -1.015055   -1.162675
     28          1           0       -6.330610   -1.154498    1.272211
     29          1           0       -4.055077   -0.545111    2.127011
     30          1           0       -2.774632    0.334976   -1.873885
     31          1           0       -5.045989   -0.271541   -2.741735
     32          7           0       -1.979664    0.278723    0.670305
     33          8           0       -1.140707    0.639747   -0.152161
     34          8           0       -1.791669    0.192321    1.881845
 ---------------------------------------------------------------------

 SCF Done:  E(RHF) =  -669.536190713     A.U. after   15 cycles
 E2 =    -0.2090812025D+01 EUMP2 =    -0.67162700273854D+03

 The electronic state is 1-A.
 Alpha  occ. eigenvalues --  -20.60966 -20.60955 -15.85998 -11.31310 -11.27871
 Alpha  occ. eigenvalues --  -11.27867 -11.27607 -11.26876 -11.26867 -11.20870
 Alpha  occ. eigenvalues --  -11.20515 -11.20490 -11.20363 -11.20215 -11.19327
 Alpha  occ. eigenvalues --   -1.60020  -1.39578  -1.19476  -1.08881  -1.07428
 Alpha  occ. eigenvalues --   -1.04871  -1.02478  -0.95726  -0.94903  -0.86272
 Alpha  occ. eigenvalues --   -0.85912  -0.82560  -0.78575  -0.77613  -0.77192
 Alpha  occ. eigenvalues --   -0.72221  -0.71334  -0.70585  -0.65133  -0.64874
 Alpha  occ. eigenvalues --   -0.64067  -0.62218  -0.59877  -0.58343  -0.56510
 Alpha  occ. eigenvalues --   -0.55376  -0.54179  -0.53203  -0.52963  -0.51621
 Alpha  occ. eigenvalues --   -0.51314  -0.49128  -0.48965  -0.48669  -0.46840
 Alpha  occ. eigenvalues --   -0.45608  -0.44991  -0.44726  -0.44628  -0.42747
 Alpha  occ. eigenvalues --   -0.37455  -0.36472
 Alpha virt. eigenvalues --    0.04921   0.11184   0.16423   0.21315   0.23805
 Alpha virt. eigenvalues --    0.25417   0.27237   0.27633   0.28169   0.28487
 Alpha virt. eigenvalues --    0.29178   0.30884   0.32326   0.32551   0.32682

 Mulliken charges:
               1
     1  C   -0.298032
     2  C   -0.298816
     3  C   -0.485936
     4  H    0.155006
     5  H    0.149634
     6  H    0.146915
     7  H    0.145946
     8  H    0.153438
     9  H    0.184343
    10  H    0.151119
    11  C   -0.297545
    12  C   -0.298897
    13  C   -0.475094
    14  H    0.146934
    15  H    0.147190
    16  H    0.151786
    17  H    0.151799
    18  H    0.154039
    19  H    0.153655
    20  H    0.158133
    21  C   -0.170567
    22  C   -0.218606
    23  C   -0.170412
    24  C    0.157521
    25  C   -0.170800
    26  C   -0.218538
    27  H    0.226038
    28  H    0.223876
    29  H    0.275964
    30  H    0.275659
    31  H    0.223853
    32  N    0.491869
    33  O   -0.463078
    34  O   -0.458392
 Sum of Mulliken charges =  -0.00000

 Dipole moment (field-independent basis, Debye):
    X=             -5.1269    Y=             -1.3328    Z=             -1.7438  Tot=              5.5770
 Quadrupole moment (field-independent basis, Debye-Ang):
   XX=            -65.4304   YY=            -95.9431   ZZ=            -90.5127
   XY=              5.6036   XZ=              4.5224   YZ=             -0.9294

 Normal termination of Gaussian 16 at Wed May  5 22:00:02 2021.
