 Gaussian 16, Revision A.03,
 Gaussian 16:  EM64L-G16RevA.03 25-Dec-2016

 -------------
 #p 6-31g* mp2
 -------------

 ------------------------------------------------------
 Input file generated by CHIRIPA (05-May-2021 14:53:17)
 ------------------------------------------------------
 Symbolic Z-matrix:
 Charge =  0 Multiplicity = 1

                         Standard orientation:
 ---------------------------------------------------------------------
 Center     Atomic      Atomic             Coordinates (Angstroms)
 Number     Number       Type             X           Y           Z
 ---------------------------------------------------------------------
      1          6           0        4.530013   -0.520499   -0.074081
      2          6           0        6.054672   -0.602116   -0.156174
      3          6           0        6.545903   -1.937462   -0.715940
      4          1           0        4.158488   -1.341857    0.553841
      5          1           0        4.106927   -0.677027   -1.076025
      6          1           0        6.474816   -0.444106    0.845389
      7          1           0        6.422624    0.219645   -0.783817
      8          1           0        6.154369   -2.099424   -1.725431
      9          1           0        6.206857   -2.766945   -0.086968
     10          1           0        7.638611   -1.974220   -0.765921
     11          6           0        4.023628    0.808523    0.483595
     12          6           0        2.498970    0.890140    0.565688
     13          6           0        2.007739    2.225485    1.125455
     14          1           0        4.446714    0.965050    1.485539
     15          1           0        4.395153    1.629881   -0.144327
     16          1           0        2.131017    0.068379    1.193332
     17          1           0        2.078826    0.732129   -0.435874
     18          1           0        2.346785    3.054969    0.496482
     19          1           0        2.399273    2.387447    2.134945
     20          1           0        0.915031    2.262244    1.175435
     21          6           0       -2.030574    1.935930   -0.832207
     22          6           0       -3.415981    2.017510   -0.657531
     23          6           0       -4.152342    0.888941   -0.285169
     24          6           0       -3.467979   -0.310545   -0.094977
     25          6           0       -2.088551   -0.423733   -0.261278
     26          6           0       -1.372441    0.717715   -0.633874
     27          1           0       -1.466418    2.817632   -1.121559
     28          1           0       -3.929746    2.962273   -0.810874
     29          1           0       -5.225660    0.923943   -0.143114
     30          1           0       -1.604324   -1.379408   -0.101193
     31          1           0       -0.296597    0.651408   -0.768815
     32          7           0       -4.236811   -1.512128    0.299350
     33          8           0       -3.610316   -2.557151    0.460809
     34          8           0       -5.451359   -1.386155    0.439498
 ---------------------------------------------------------------------

 SCF Done:  E(RHF) =  -669.535568180     A.U. after   15 cycles
 E2 =    -0.2091668350D+01 EUMP2 =    -0.67162723652985D+03

 The electronic state is 1-A.
 Alpha  occ. eigenvalues --  -20.60738 -20.60733 -15.85790 -11.31153 -11.27722
 Alpha  occ. eigenvalues --  -11.27705 -11.27455 -11.26736 -11.26673 -11.22641
 Alpha  occ. eigenvalues --  -11.22125 -11.22060 -11.21997 -11.21953 -11.21426
 Alpha  occ. eigenvalues --   -1.59813  -1.39367  -1.19322  -1.09132  -1.08717
 Alpha  occ. eigenvalues --   -1.04725  -1.04228  -0.96651  -0.95553  -0.87665
 Alpha  occ. eigenvalues --   -0.86121  -0.82385  -0.80334  -0.78919  -0.77428
 Alpha  occ. eigenvalues --   -0.72009  -0.71136  -0.70428  -0.65781  -0.64971
 Alpha  occ. eigenvalues --   -0.64744  -0.62140  -0.61585  -0.60015  -0.58254
 Alpha  occ. eigenvalues --   -0.55918  -0.55218  -0.53390  -0.53147  -0.52958
 Alpha  occ. eigenvalues --   -0.52779  -0.50585  -0.48779  -0.48764  -0.48611
 Alpha  occ. eigenvalues --   -0.47357  -0.46450  -0.46353  -0.44773  -0.44469
 Alpha  occ. eigenvalues --   -0.37299  -0.36316
 Alpha virt. eigenvalues --    0.05093   0.11215   0.16582   0.19989   0.22533
 Alpha virt. eigenvalues --    0.23921   0.25390   0.26248   0.26938   0.28216
 Alpha virt. eigenvalues --    0.28916   0.29928   0.30930   0.31255   0.32110

 Mulliken charges:
               1
     1  C   -0.299278
     2  C   -0.300212
     3  C   -0.476201
     4  H    0.151536
     5  H    0.148586
     6  H    0.153267
     7  H    0.152254
     8  H    0.155485
     9  H    0.156560
    10  H    0.161816
    11  C   -0.297364
    12  C   -0.305082
    13  C   -0.481011
    14  H    0.153110
    15  H    0.150670
    16  H    0.156062
    17  H    0.142877
    18  H    0.154891
    19  H    0.161635
    20  H    0.159842
    21  C   -0.174251
    22  C   -0.218454
    23  C   -0.171205
    24  C    0.158828
    25  C   -0.174230
    26  C   -0.225002
    27  H    0.226469
    28  H    0.223291
    29  H    0.275464
    30  H    0.276029
    31  H    0.236574
    32  N    0.488086
    33  O   -0.460440
    34  O   -0.460607
 Sum of Mulliken charges =  -0.00000

 Dipole moment (field-independent basis, Debye):
    X=              2.9045    Y=              4.2207    Z=             -1.3216  Tot=              5.2912
 Quadrupole moment (field-independent basis, Debye-Ang):
   XX=           -109.6031   YY=            -97.0624   ZZ=            -94.4987
   XY=            -17.8858   XZ=              5.0979   YZ=             -0.6890

 Normal termination of Gaussian 16 at Thu May  6 10:39:56 2021.
