 Gaussian 16, Revision A.03,
 Gaussian 16:  EM64L-G16RevA.03 25-Dec-2016

 -------------
 #p 6-31g* mp2
 -------------

 ------------------------------------------------------
 Input file generated by CHIRIPA (05-May-2021 14:55:21)
 ------------------------------------------------------
 Symbolic Z-matrix:
 Charge =  0 Multiplicity = 1

                         Standard orientation:
 ---------------------------------------------------------------------
 Center     Atomic      Atomic             Coordinates (Angstroms)
 Number     Number       Type             X           Y           Z
 ---------------------------------------------------------------------
      1          6           0        0.443232   -1.188769    1.394179
      2          6           0        1.590003   -0.758945    2.069966
      3          6           0        2.726809   -0.363323    1.358837
      4          6           0        2.681878   -0.410300   -0.033666
      5          6           0        1.554436   -0.833711   -0.735726
      6          6           0        0.429133   -1.224717   -0.004045
      7          1           0       -0.435398   -1.494305    1.954583
      8          1           0        1.603809   -0.729995    3.155791
      9          1           0        3.627937   -0.026302    1.856635
     10          1           0        1.570772   -0.851692   -1.818698
     11          1           0       -0.460066   -1.558077   -0.531530
     12          7           0        3.879274    0.006083   -0.797385
     13          8           0        3.814279   -0.044487   -2.023703
     14          8           0        4.860116    0.375131   -0.155209
     15          6           0       -2.677020    0.997344    0.309226
     16          6           0       -2.189652    2.290921   -0.344314
     17          6           0       -1.183506    3.048558    0.522548
     18          1           0       -3.132580    1.233798    1.280565
     19          1           0       -1.812558    0.352036    0.518225
     20          1           0       -3.054912    2.933008   -0.553279
     21          1           0       -1.735371    2.051380   -1.314295
     22          1           0       -0.302518    2.429485    0.720561
     23          1           0       -1.629555    3.316123    1.485902
     24          1           0       -0.848313    3.969994    0.036274
     25          6           0       -3.683383    0.228706   -0.545268
     26          6           0       -4.170750   -1.064872    0.108270
     27          6           0       -5.176897   -1.822510   -0.758590
     28          1           0       -4.547844    0.874012   -0.754267
     29          1           0       -3.227823   -0.007748   -1.516607
     30          1           0       -4.625031   -0.825331    1.078253
     31          1           0       -3.305491   -1.706960    0.317236
     32          1           0       -4.730848   -2.090074   -1.721944
     33          1           0       -6.057885   -1.203436   -0.956604
     34          1           0       -5.512090   -2.743944   -0.272316
 ---------------------------------------------------------------------

 SCF Done:  E(RHF) =  -669.534558986     A.U. after   15 cycles
 E2 =    -0.2094013098D+01 EUMP2 =    -0.67162857208429D+03

 The electronic state is 1-A.
 Alpha  occ. eigenvalues --  -20.60825 -20.60819 -15.85880 -11.31280 -11.27852
 Alpha  occ. eigenvalues --  -11.27848 -11.27589 -11.26869 -11.26859 -11.22557
 Alpha  occ. eigenvalues --  -11.22140 -11.22037 -11.21928 -11.21823 -11.21345
 Alpha  occ. eigenvalues --   -1.59899  -1.39452  -1.19466  -1.09141  -1.08840
 Alpha  occ. eigenvalues --   -1.04871  -1.04146  -0.96576  -0.95678  -0.87592
 Alpha  occ. eigenvalues --   -0.86273  -0.82504  -0.80242  -0.78943  -0.77546
 Alpha  occ. eigenvalues --   -0.72099  -0.71223  -0.70564  -0.65906  -0.65105
 Alpha  occ. eigenvalues --   -0.64778  -0.62202  -0.61561  -0.59957  -0.58187
 Alpha  occ. eigenvalues --   -0.55864  -0.55358  -0.53281  -0.53241  -0.52974
 Alpha  occ. eigenvalues --   -0.52945  -0.50531  -0.48860  -0.48850  -0.48539
 Alpha  occ. eigenvalues --   -0.47303  -0.46452  -0.46389  -0.44850  -0.44405
 Alpha  occ. eigenvalues --   -0.37352  -0.36442
 Alpha virt. eigenvalues --    0.04964   0.11056   0.16408   0.18869   0.22901
 Alpha virt. eigenvalues --    0.23687   0.25347   0.26033   0.27099   0.28113
 Alpha virt. eigenvalues --    0.29906   0.30500   0.31096   0.31438   0.31522

 Mulliken charges:
               1
     1  C   -0.170352
     2  C   -0.219371
     3  C   -0.170940
     4  C    0.158449
     5  C   -0.172429
     6  C   -0.220408
     7  H    0.228314
     8  H    0.224384
     9  H    0.276217
    10  H    0.276065
    11  H    0.227456
    12  N    0.488108
    13  O   -0.460153
    14  O   -0.460035
    15  C   -0.307369
    16  C   -0.298290
    17  C   -0.478310
    18  H    0.148816
    19  H    0.152075
    20  H    0.153254
    21  H    0.152016
    22  H    0.158838
    23  H    0.153506
    24  H    0.163252
    25  C   -0.299176
    26  C   -0.299779
    27  C   -0.475648
    28  H    0.153959
    29  H    0.147295
    30  H    0.154508
    31  H    0.139773
    32  H    0.155441
    33  H    0.158911
    34  H    0.161623
 Sum of Mulliken charges =  -0.00000

 Dipole moment (field-independent basis, Debye):
    X=             -4.2210    Y=             -1.4183    Z=              2.6924  Tot=              5.2036
 Quadrupole moment (field-independent basis, Debye-Ang):
   XX=           -116.2727   YY=            -94.2480   ZZ=            -91.4240
   XY=             -2.6040   XZ=              9.2241   YZ=             -0.2908

 Normal termination of Gaussian 16 at Wed May  5 23:51:04 2021.
