 Gaussian 16, Revision A.03,
 Gaussian 16:  EM64L-G16RevA.03 25-Dec-2016

 -------------
 #p 6-31g* mp2
 -------------

 ------------------------------------------------------
 Input file generated by CHIRIPA (05-May-2021 14:57:24)
 ------------------------------------------------------
 Symbolic Z-matrix:
 Charge =  0 Multiplicity = 1

                         Standard orientation:
 ---------------------------------------------------------------------
 Center     Atomic      Atomic             Coordinates (Angstroms)
 Number     Number       Type             X           Y           Z
 ---------------------------------------------------------------------
      1          6           0        4.501644    1.885440   -0.842563
      2          6           0        4.543009    0.618826   -1.434593
      3          6           0        3.852898   -0.454649   -0.863675
      4          6           0        3.128112   -0.224871    0.304733
      5          6           0        3.067506    1.025361    0.918359
      6          6           0        3.765322    2.084314    0.329956
      7          1           0        5.040731    2.713701   -1.292857
      8          1           0        5.114029    0.461452   -2.345205
      9          1           0        3.867809   -1.445567   -1.301029
     10          1           0        2.489680    1.151410    1.825909
     11          1           0        3.731404    3.066899    0.791932
     12          7           0        2.393444   -1.353624    0.918393
     13          8           0        1.762171   -1.125160    1.947925
     14          8           0        2.462795   -2.445431    0.358228
     15          6           0       -2.184739   -2.188637   -0.724374
     16          6           0       -3.556987   -2.112306   -0.464317
     17          6           0       -4.157458   -0.883462   -0.174615
     18          6           0       -3.352102    0.254183   -0.153246
     19          6           0       -1.982261    0.210587   -0.408050
     20          6           0       -1.403134   -1.028991   -0.695463
     21          1           0       -1.726570   -3.147402   -0.948532
     22          1           0       -4.166455   -3.011261   -0.486082
     23          1           0       -5.217480   -0.795731    0.030505
     24          1           0       -1.400659    1.123997   -0.379106
     25          1           0       -0.337184   -1.085269   -0.897029
     26          7           0       -3.976496    1.560786    0.152235
     27          8           0       -3.245071    2.548458    0.164940
     28          8           0       -5.185495    1.572491    0.373181
 ---------------------------------------------------------------------

 SCF Done:  E(RHF) =  -868.338915034     A.U. after   16 cycles
 E2 =    -0.2599097250D+01 EUMP2 =    -0.87093801228379D+03

 The electronic state is 1-A.
 Alpha  occ. eigenvalues --  -20.61622 -20.61575 -20.60397 -20.60385 -15.86631
 Alpha  occ. eigenvalues --  -15.85443 -11.31841 -11.30642 -11.28395 -11.28341
 Alpha  occ. eigenvalues --  -11.28046 -11.27340 -11.27294 -11.27207 -11.27201
 Alpha  occ. eigenvalues --  -11.26835 -11.26164 -11.26140  -1.60688  -1.59471
 Alpha  occ. eigenvalues --   -1.40237  -1.39031  -1.19988  -1.18789  -1.09408
 Alpha  occ. eigenvalues --   -1.08198  -1.05346  -1.04181  -0.96267  -0.95067
 Alpha  occ. eigenvalues --   -0.86751  -0.85577  -0.83089  -0.81920  -0.78169
 Alpha  occ. eigenvalues --   -0.77006  -0.72837  -0.72042  -0.71667  -0.71061
 Alpha  occ. eigenvalues --   -0.70789  -0.69869  -0.65623  -0.65324  -0.64443
 Alpha  occ. eigenvalues --   -0.64179  -0.62685  -0.61548  -0.55829  -0.54631
 Alpha  occ. eigenvalues --   -0.53706  -0.53418  -0.52494  -0.52280  -0.49617
 Alpha  occ. eigenvalues --   -0.49587  -0.48431  -0.48407  -0.45664  -0.44474
 Alpha  occ. eigenvalues --   -0.37958  -0.36948  -0.36718  -0.35770
 Alpha virt. eigenvalues --    0.04323   0.05543   0.10698   0.11889   0.15854
 Alpha virt. eigenvalues --    0.17088   0.20934   0.21894   0.26873   0.27289
 Alpha virt. eigenvalues --    0.27931   0.28944   0.30506   0.31315   0.32041

 Mulliken charges:
               1
     1  C   -0.169919
     2  C   -0.218270
     3  C   -0.173417
     4  C    0.152379
     5  C   -0.172628
     6  C   -0.218144
     7  H    0.228829
     8  H    0.225400
     9  H    0.274885
    10  H    0.278693
    11  H    0.227956
    12  N    0.485726
    13  O   -0.454876
    14  O   -0.464911
    15  C   -0.168613
    16  C   -0.218835
    17  C   -0.171438
    18  C    0.158113
    19  C   -0.170071
    20  C   -0.212958
    21  H    0.230607
    22  H    0.222363
    23  H    0.273703
    24  H    0.270653
    25  H    0.221835
    26  N    0.488454
    27  O   -0.463978
    28  O   -0.461537
 Sum of Mulliken charges =  -0.00000

 Dipole moment (field-independent basis, Debye):
    X=              5.0433    Y=             -0.6278    Z=             -3.1868  Tot=              5.9987
 Quadrupole moment (field-independent basis, Debye-Ang):
   XX=            -99.5145   YY=           -106.7238   ZZ=           -104.1708
   XY=             30.2178   XZ=             -4.7224   YZ=              4.4573

 Normal termination of Gaussian 16 at Thu May  6 18:02:13 2021.
