 Gaussian 16, Revision A.03,
 Gaussian 16:  EM64L-G16RevA.03 25-Dec-2016

 -------------
 #p 6-31g* mp2
 -------------

 ------------------------------------------------------
 Input file generated by CHIRIPA (05-May-2021 14:51:14)
 ------------------------------------------------------
 Symbolic Z-matrix:
 Charge =  0 Multiplicity = 1

                         Standard orientation:
 ---------------------------------------------------------------------
 Center     Atomic      Atomic             Coordinates (Angstroms)
 Number     Number       Type             X           Y           Z
 ---------------------------------------------------------------------
      1          6           0       -2.053564    1.460335    0.128394
      2          6           0       -2.546747    0.338310   -0.785835
      3          6           0       -3.947070   -0.152383   -0.416906
      4          1           0       -2.057277    1.105765    1.168207
      5          1           0       -2.761289    2.299590    0.081804
      6          1           0       -1.837578   -0.498030   -0.738598
      7          1           0       -2.541677    0.695530   -1.823614
      8          1           0       -4.671617    0.665760   -0.482292
      9          1           0       -3.963517   -0.534581    0.608889
     10          1           0       -4.279916   -0.954382   -1.083142
     11          6           0       -0.655104    1.961476   -0.227833
     12          6           0       -0.161921    3.083501    0.686397
     13          6           0        1.238402    3.574194    0.317467
     14          1           0        0.052621    1.122221   -0.181243
     15          1           0       -0.651391    2.316046   -1.267646
     16          1           0       -0.166991    2.726282    1.724175
     17          1           0       -0.871090    3.919841    0.639159
     18          1           0        1.254849    3.956393   -0.708328
     19          1           0        1.962949    2.756052    0.382854
     20          1           0        1.571248    4.376193    0.983703
     21          6           0        1.923011   -1.485268   -0.407584
     22          6           0        2.854944   -0.462513    0.243151
     23          6           0        3.987572   -0.020791   -0.684120
     24          1           0        2.509139   -2.361742   -0.716119
     25          1           0        1.499710   -1.053572   -1.325107
     26          1           0        3.275288   -0.895502    1.159910
     27          1           0        2.266498    0.411546    0.550345
     28          1           0        3.584673    0.435570   -1.594069
     29          1           0        4.599194   -0.878904   -0.981041
     30          1           0        4.641658    0.710345   -0.198867
     31          6           0        0.785657   -1.936543    0.507022
     32          6           0       -0.146276   -2.959299   -0.143712
     33          6           0       -1.278904   -3.401020    0.783559
     34          1           0        1.208958   -2.368240    1.424547
     35          1           0        0.199529   -1.060070    0.815557
     36          1           0        0.442169   -3.833358   -0.450906
     37          1           0       -0.566620   -2.526311   -1.060472
     38          1           0       -1.890527   -2.542908    1.080479
     39          1           0       -0.876005   -3.857382    1.693508
     40          1           0       -1.932991   -4.132156    0.298306
 ---------------------------------------------------------------------

 SCF Done:  E(RHF) =  -470.731232316     A.U. after   11 cycles
 E2 =    -0.1587427337D+01 EUMP2 =    -0.47231865965254D+03

 The electronic state is 1-A.
 Alpha  occ. eigenvalues --  -11.21648 -11.21638 -11.21638 -11.21610 -11.21460
 Alpha  occ. eigenvalues --  -11.21444 -11.21400 -11.21377 -11.21107 -11.21102
 Alpha  occ. eigenvalues --  -11.21099 -11.21078  -1.08608  -1.08384  -1.03680
 Alpha  occ. eigenvalues --   -1.03485  -0.96105  -0.95948  -0.87088  -0.86995
 Alpha  occ. eigenvalues --   -0.79661  -0.79645  -0.78413  -0.78224  -0.65870
 Alpha  occ. eigenvalues --   -0.64453  -0.61624  -0.60452  -0.59407  -0.59323
 Alpha  occ. eigenvalues --   -0.57721  -0.57590  -0.55719  -0.54913  -0.52727
 Alpha  occ. eigenvalues --   -0.52693  -0.52469  -0.52414  -0.50123  -0.49859
 Alpha  occ. eigenvalues --   -0.48176  -0.47761  -0.46843  -0.46685  -0.46307
 Alpha  occ. eigenvalues --   -0.45818  -0.45704  -0.45046  -0.43848  -0.43798
 Alpha virt. eigenvalues --    0.19349   0.21239   0.23282   0.25061   0.26062
 Alpha virt. eigenvalues --    0.26205   0.26400   0.28206   0.29191   0.29951
 Alpha virt. eigenvalues --    0.30605   0.31493   0.31846   0.32100   0.32185

 Mulliken charges:
               1
     1  C   -0.297821
     2  C   -0.310588
     3  C   -0.475757
     4  H    0.149000
     5  H    0.150255
     6  H    0.162562
     7  H    0.151974
     8  H    0.155345
     9  H    0.155504
    10  H    0.160696
    11  C   -0.309571
    12  C   -0.299160
    13  C   -0.482066
    14  H    0.159730
    15  H    0.149739
    16  H    0.151707
    17  H    0.152413
    18  H    0.155297
    19  H    0.161205
    20  H    0.160619
    21  C   -0.299524
    22  C   -0.308752
    23  C   -0.475727
    24  H    0.150902
    25  H    0.150638
    26  H    0.152479
    27  H    0.158272
    28  H    0.156084
    29  H    0.155479
    30  H    0.160547
    31  C   -0.304325
    32  C   -0.303431
    33  C   -0.478498
    34  H    0.150482
    35  H    0.153003
    36  H    0.153604
    37  H    0.153633
    38  H    0.157874
    39  H    0.155366
    40  H    0.160815
 Sum of Mulliken charges =  -0.00000

 Dipole moment (field-independent basis, Debye):
    X=              0.0163    Y=             -0.0212    Z=             -0.0124  Tot=              0.0294
 Quadrupole moment (field-independent basis, Debye-Ang):
   XX=            -85.9841   YY=            -84.1022   ZZ=            -84.5825
   XY=             -1.5222   XZ=              1.0716   YZ=             -0.3960

 Normal termination of Gaussian 16 at Wed May  5 16:53:12 2021.
