 Gaussian 16, Revision A.03,
 Gaussian 16:  EM64L-G16RevA.03 25-Dec-2016

 -------------
 #p 6-31g* mp2
 -------------

 ------------------------------------------------------
 Input file generated by CHIRIPA (05-May-2021 14:55:23)
 ------------------------------------------------------
 Symbolic Z-matrix:
 Charge =  0 Multiplicity = 1

                         Standard orientation:
 ---------------------------------------------------------------------
 Center     Atomic      Atomic             Coordinates (Angstroms)
 Number     Number       Type             X           Y           Z
 ---------------------------------------------------------------------
      1          6           0        1.664478    2.068549    0.615051
      2          6           0        2.236862    1.878403   -0.646988
      3          6           0        2.921943    0.696751   -0.945169
      4          6           0        3.015907   -0.278156    0.046807
      5          6           0        2.456379   -0.118300    1.313561
      6          6           0        1.775867    1.071349    1.589579
      7          1           0        1.134065    2.989591    0.838077
      8          1           0        2.151930    2.651119   -1.405764
      9          1           0        3.374552    0.523436   -1.913944
     10          1           0        2.557626   -0.906735    2.049452
     11          1           0        1.332340    1.216283    2.570560
     12          7           0        3.738753   -1.533351   -0.257132
     13          8           0        3.807535   -2.376919    0.634102
     14          8           0        4.222850   -1.649838   -1.380839
     15          6           0       -3.326856    0.664102    0.207774
     16          6           0       -2.781064    1.687001   -0.789109
     17          6           0       -2.021280    2.826966   -0.110138
     18          1           0       -3.988643    1.173927    0.921259
     19          1           0       -2.493308    0.252615    0.793667
     20          1           0       -3.615229    2.095424   -1.373896
     21          1           0       -2.120650    1.174648   -1.500421
     22          1           0       -1.170657    2.437883    0.458770
     23          1           0       -2.673728    3.363889    0.586013
     24          1           0       -1.639812    3.546612   -0.841201
     25          6           0       -4.088883   -0.481613   -0.455838
     26          6           0       -4.634674   -1.504511    0.541045
     27          6           0       -5.394459   -2.644477   -0.137926
     28          1           0       -4.922430   -0.070125   -1.041731
     29          1           0       -3.427096   -0.991438   -1.169323
     30          1           0       -5.295088   -0.992159    1.252356
     31          1           0       -3.800509   -1.912934    1.125832
     32          1           0       -4.742011   -3.181400   -0.834077
     33          1           0       -6.245082   -2.255393   -0.706834
     34          1           0       -5.775926   -3.364122    0.593136
 ---------------------------------------------------------------------

 SCF Done:  E(RHF) =  -669.535091969     A.U. after   15 cycles
 E2 =    -0.2091833483D+01 EUMP2 =    -0.67162692545274D+03

 The electronic state is 1-A.
 Alpha  occ. eigenvalues --  -20.60798 -20.60793 -15.85853 -11.31226 -11.27807
 Alpha  occ. eigenvalues --  -11.27801 -11.27509 -11.26815 -11.26797 -11.22167
 Alpha  occ. eigenvalues --  -11.21878 -11.21845 -11.21832 -11.21676 -11.21229
 Alpha  occ. eigenvalues --   -1.59875  -1.39428  -1.19408  -1.08846  -1.08787
 Alpha  occ. eigenvalues --   -1.04808  -1.03963  -0.96442  -0.95627  -0.87462
 Alpha  occ. eigenvalues --   -0.86203  -0.82463  -0.80041  -0.78623  -0.77505
 Alpha  occ. eigenvalues --   -0.72070  -0.71199  -0.70533  -0.65458  -0.65055
 Alpha  occ. eigenvalues --   -0.64805  -0.62152  -0.61365  -0.59818  -0.58037
 Alpha  occ. eigenvalues --   -0.55906  -0.55176  -0.53202  -0.53110  -0.52895
 Alpha  occ. eigenvalues --   -0.52804  -0.50343  -0.48830  -0.48825  -0.48349
 Alpha  occ. eigenvalues --   -0.47048  -0.46174  -0.46073  -0.44832  -0.44211
 Alpha  occ. eigenvalues --   -0.37332  -0.36418
 Alpha virt. eigenvalues --    0.04997   0.11191   0.16408   0.20939   0.22596
 Alpha virt. eigenvalues --    0.24068   0.26197   0.26727   0.26911   0.27488
 Alpha virt. eigenvalues --    0.28915   0.30581   0.31125   0.31234   0.31985

 Mulliken charges:
               1
     1  C   -0.169212
     2  C   -0.220040
     3  C   -0.171091
     4  C    0.158415
     5  C   -0.170694
     6  C   -0.220809
     7  H    0.229440
     8  H    0.224033
     9  H    0.275766
    10  H    0.275752
    11  H    0.224080
    12  N    0.488073
    13  O   -0.460407
    14  O   -0.460341
    15  C   -0.298874
    16  C   -0.298502
    17  C   -0.481404
    18  H    0.149253
    19  H    0.149422
    20  H    0.153777
    21  H    0.154367
    22  H    0.152206
    23  H    0.156417
    24  H    0.156449
    25  C   -0.298932
    26  C   -0.299995
    27  C   -0.476078
    28  H    0.150003
    29  H    0.151794
    30  H    0.151445
    31  H    0.152430
    32  H    0.156843
    33  H    0.155225
    34  H    0.161192
 Sum of Mulliken charges =  -0.00000

 Dipole moment (field-independent basis, Debye):
    X=             -2.5972    Y=              4.3627    Z=              1.0401  Tot=              5.1827
 Quadrupole moment (field-independent basis, Debye-Ang):
   XX=           -110.0838   YY=            -97.9123   ZZ=            -90.6006
   XY=             13.7570   XZ=              1.9218   YZ=             -2.1341

 Normal termination of Gaussian 16 at Wed May  5 22:20:53 2021.
