 Gaussian 16, Revision A.03,
 Gaussian 16:  EM64L-G16RevA.03 25-Dec-2016

 -------------
 #p 6-31g* mp2
 -------------

 ------------------------------------------------------
 Input file generated by CHIRIPA (05-May-2021 14:57:21)
 ------------------------------------------------------
 Symbolic Z-matrix:
 Charge =  0 Multiplicity = 1

                         Standard orientation:
 ---------------------------------------------------------------------
 Center     Atomic      Atomic             Coordinates (Angstroms)
 Number     Number       Type             X           Y           Z
 ---------------------------------------------------------------------
      1          6           0       -4.580432    0.717981   -0.441663
      2          6           0       -4.070323    0.852816    0.853764
      3          6           0       -2.922373    0.155096    1.240995
      4          6           0       -2.307071   -0.672528    0.303055
      5          6           0       -2.791067   -0.827763   -0.994997
      6          6           0       -3.940304   -0.120400   -1.360289
      7          1           0       -5.472687    1.263732   -0.733951
      8          1           0       -4.565376    1.503204    1.569280
      9          1           0       -2.506076    0.241043    2.237352
     10          1           0       -2.275672   -1.483583   -1.686147
     11          1           0       -4.334220   -0.227047   -2.367017
     12          7           0       -1.091107   -1.416277    0.701387
     13          8           0       -0.567515   -2.139100   -0.143608
     14          8           0       -0.684650   -1.262322    1.851051
     15          6           0        0.667603    2.266955   -0.418185
     16          6           0        1.675383    2.419092    0.539810
     17          6           0        2.699758    1.473952    0.648973
     18          6           0        2.685349    0.383955   -0.219928
     19          6           0        1.695247    0.204496   -1.184699
     20          6           0        0.680728    1.162090   -1.275870
     21          1           0       -0.124327    3.006000   -0.495997
     22          1           0        1.667733    3.276144    1.207228
     23          1           0        3.492278    1.567128    1.381536
     24          1           0        1.729660   -0.660390   -1.836010
     25          1           0       -0.100634    1.041360   -2.020813
     26          7           0        3.764592   -0.623214   -0.113885
     27          8           0        3.729282   -1.574610   -0.891212
     28          8           0        4.625375   -0.442167    0.744549
 ---------------------------------------------------------------------

 SCF Done:  E(RHF) =  -868.337298491     A.U. after   16 cycles
 E2 =    -0.2603088261D+01 EUMP2 =    -0.87094038675252D+03

 The electronic state is 1-A.
 Alpha  occ. eigenvalues --  -20.61203 -20.61172 -20.59882 -20.59850 -15.86223
 Alpha  occ. eigenvalues --  -15.84932 -11.31782 -11.30409 -11.28378 -11.28332
 Alpha  occ. eigenvalues --  -11.28110 -11.27428 -11.27398 -11.27091 -11.27028
 Alpha  occ. eigenvalues --  -11.26965 -11.26144 -11.26135  -1.60238  -1.58932
 Alpha  occ. eigenvalues --   -1.39798  -1.38485  -1.19968  -1.18659  -1.09316
 Alpha  occ. eigenvalues --   -1.08048  -1.05398  -1.04103  -0.96123  -0.94848
 Alpha  occ. eigenvalues --   -0.86776  -0.85496  -0.82958  -0.81693  -0.77985
 Alpha  occ. eigenvalues --   -0.76683  -0.72454  -0.71583  -0.71165  -0.71053
 Alpha  occ. eigenvalues --   -0.70228  -0.69809  -0.65609  -0.65383  -0.64332
 Alpha  occ. eigenvalues --   -0.64145  -0.62733  -0.61439  -0.55865  -0.54667
 Alpha  occ. eigenvalues --   -0.53742  -0.53474  -0.52396  -0.52201  -0.49213
 Alpha  occ. eigenvalues --   -0.49204  -0.47935  -0.47895  -0.45191  -0.43866
 Alpha  occ. eigenvalues --   -0.38033  -0.37031  -0.36599  -0.35635
 Alpha virt. eigenvalues --    0.04503   0.05891   0.10544   0.12017   0.16008
 Alpha virt. eigenvalues --    0.17297   0.20745   0.21928   0.26522   0.27349
 Alpha virt. eigenvalues --    0.28175   0.28874   0.30472   0.31240   0.32122

 Mulliken charges:
               1
     1  C   -0.172370
     2  C   -0.219844
     3  C   -0.172167
     4  C    0.162922
     5  C   -0.177915
     6  C   -0.220217
     7  H    0.226904
     8  H    0.224631
     9  H    0.277245
    10  H    0.274922
    11  H    0.224619
    12  N    0.490639
    13  O   -0.460509
    14  O   -0.456166
    15  C   -0.171590
    16  C   -0.218905
    17  C   -0.166640
    18  C    0.161100
    19  C   -0.157270
    20  C   -0.230559
    21  H    0.220167
    22  H    0.219475
    23  H    0.274856
    24  H    0.280173
    25  H    0.217423
    26  N    0.489612
    27  O   -0.457130
    28  O   -0.463404
 Sum of Mulliken charges =  -0.00000

 Dipole moment (field-independent basis, Debye):
    X=             -8.0418    Y=              5.8983    Z=             -1.6509  Tot=             10.1087
 Quadrupole moment (field-independent basis, Debye-Ang):
   XX=           -105.7051   YY=           -104.9780   ZZ=            -98.9705
   XY=              5.6150   XZ=              3.1298   YZ=              5.3394

 Normal termination of Gaussian 16 at Thu May  6 21:08:14 2021.
