 Gaussian 16, Revision A.03,
 Gaussian 16:  EM64L-G16RevA.03 25-Dec-2016

 -------------
 #p 6-31g* mp2
 -------------

 ------------------------------------------------------
 Input file generated by CHIRIPA (05-May-2021 14:55:19)
 ------------------------------------------------------
 Symbolic Z-matrix:
 Charge =  0 Multiplicity = 1

                         Standard orientation:
 ---------------------------------------------------------------------
 Center     Atomic      Atomic             Coordinates (Angstroms)
 Number     Number       Type             X           Y           Z
 ---------------------------------------------------------------------
      1          6           0        1.643328   -2.383123   -1.346801
      2          6           0        1.078076   -2.342505   -0.067988
      3          6           0        1.243968   -1.218195    0.746232
      4          6           0        1.984449   -0.147530    0.247580
      5          6           0        2.559979   -0.157900   -1.022045
      6          6           0        2.381175   -1.292614   -1.818915
      7          1           0        1.509444   -3.260555   -1.972568
      8          1           0        0.504560   -3.187944    0.301277
      9          1           0        0.817271   -1.160192    1.740206
     10          1           0        3.126478    0.700309   -1.362593
     11          1           0        2.821300   -1.321375   -2.811643
     12          7           0        2.166906    1.048233    1.100375
     13          8           0        2.823670    1.978460    0.637799
     14          8           0        1.649698    1.032604    2.215224
     15          6           0       -3.027765   -0.107149   -0.059458
     16          6           0       -2.486831   -1.378437    0.595678
     17          6           0       -3.551282   -2.465987    0.743902
     18          1           0       -3.866063    0.277219    0.537587
     19          1           0       -3.437100   -0.358012   -1.047845
     20          1           0       -2.077388   -1.125015    1.581959
     21          1           0       -1.649600   -1.759717   -0.002892
     22          1           0       -3.953374   -2.747418   -0.234730
     23          1           0       -4.383592   -2.109109    1.359126
     24          1           0       -3.143033   -3.365850    1.214476
     25          6           0       -1.975442    0.989343   -0.214537
     26          6           0       -2.516377    2.260630   -0.869673
     27          6           0       -1.451925    3.348181   -1.017897
     28          1           0       -1.566108    1.240205    0.773850
     29          1           0       -1.137145    0.604974   -0.811582
     30          1           0       -3.353607    2.641909   -0.271103
     31          1           0       -2.925820    2.007207   -1.855954
     32          1           0       -0.619616    2.991302   -1.633121
     33          1           0       -1.049833    3.629611   -0.039265
     34          1           0       -1.860176    4.248043   -1.488471
 ---------------------------------------------------------------------

 SCF Done:  E(RHF) =  -669.534562214     A.U. after   15 cycles
 E2 =    -0.2094825593D+01 EUMP2 =    -0.67162938780697D+03

 The electronic state is 1-A.
 Alpha  occ. eigenvalues --  -20.60813 -20.60807 -15.85855 -11.31208 -11.27790
 Alpha  occ. eigenvalues --  -11.27759 -11.27538 -11.26809 -11.26771 -11.21837
 Alpha  occ. eigenvalues --  -11.21463 -11.21446 -11.21394 -11.21216 -11.20692
 Alpha  occ. eigenvalues --   -1.59877  -1.39432  -1.19402  -1.08795  -1.08445
 Alpha  occ. eigenvalues --   -1.04810  -1.03549  -0.95982  -0.95626  -0.86999
 Alpha  occ. eigenvalues --   -0.86198  -0.82471  -0.79665  -0.78268  -0.77474
 Alpha  occ. eigenvalues --   -0.72077  -0.71187  -0.70500  -0.65146  -0.65036
 Alpha  occ. eigenvalues --   -0.64761  -0.62160  -0.60946  -0.59402  -0.57597
 Alpha  occ. eigenvalues --   -0.55304  -0.55252  -0.53246  -0.52896  -0.52651
 Alpha  occ. eigenvalues --   -0.52407  -0.49915  -0.48836  -0.48832  -0.47960
 Alpha  occ. eigenvalues --   -0.46691  -0.45767  -0.45649  -0.44803  -0.43788
 Alpha  occ. eigenvalues --   -0.37366  -0.36274
 Alpha virt. eigenvalues --    0.05024   0.11114   0.16440   0.20741   0.23007
 Alpha virt. eigenvalues --    0.24102   0.25687   0.26689   0.27410   0.28233
 Alpha virt. eigenvalues --    0.29041   0.30430   0.31453   0.31783   0.32214

 Mulliken charges:
               1
     1  C   -0.172578
     2  C   -0.220516
     3  C   -0.164983
     4  C    0.160098
     5  C   -0.172323
     6  C   -0.218769
     7  H    0.225833
     8  H    0.225488
     9  H    0.276709
    10  H    0.275749
    11  H    0.223537
    12  N    0.488585
    13  O   -0.459884
    14  O   -0.461150
    15  C   -0.296250
    16  C   -0.309067
    17  C   -0.475059
    18  H    0.151145
    19  H    0.147932
    20  H    0.150490
    21  H    0.154441
    22  H    0.155000
    23  H    0.158557
    24  H    0.154342
    25  C   -0.306080
    26  C   -0.299388
    27  C   -0.477092
    28  H    0.157687
    29  H    0.149778
    30  H    0.152299
    31  H    0.148947
    32  H    0.153157
    33  H    0.164068
    34  H    0.159296
 Sum of Mulliken charges =  -0.00000

 Dipole moment (field-independent basis, Debye):
    X=             -0.5658    Y=             -4.1069    Z=             -2.9576  Tot=              5.0926
 Quadrupole moment (field-independent basis, Debye-Ang):
   XX=            -96.9929   YY=            -93.7302   ZZ=            -93.2712
   XY=             -7.8605   XZ=             -8.6502   YZ=             -1.6607

 Normal termination of Gaussian 16 at Thu May  6 19:03:12 2021.
