 Gaussian 16, Revision A.03,
 Gaussian 16:  EM64L-G16RevA.03 25-Dec-2016

 -------------
 #p 6-31g* mp2
 -------------

 ------------------------------------------------------
 Input file generated by CHIRIPA (05-May-2021 14:57:27)
 ------------------------------------------------------
 Symbolic Z-matrix:
 Charge =  0 Multiplicity = 1

                         Standard orientation:
 ---------------------------------------------------------------------
 Center     Atomic      Atomic             Coordinates (Angstroms)
 Number     Number       Type             X           Y           Z
 ---------------------------------------------------------------------
      1          6           0       -1.695151    1.718064    0.404375
      2          6           0       -3.047836    2.061691    0.497565
      3          6           0       -4.040653    1.098094    0.296705
      4          6           0       -3.643325   -0.205425    0.003004
      5          6           0       -2.303946   -0.578828   -0.096612
      6          6           0       -1.328170    0.401223    0.108106
      7          1           0       -0.930526    2.473000    0.561906
      8          1           0       -3.335770    3.083583    0.727514
      9          1           0       -5.095210    1.336730    0.362877
     10          1           0       -2.047809   -1.605768   -0.327278
     11          1           0       -0.278428    0.131487    0.035108
     12          7           0       -4.685356   -1.234251   -0.211679
     13          8           0       -4.309231   -2.375672   -0.469214
     14          8           0       -5.858493   -0.879743   -0.118348
     15          6           0        4.590193   -2.165651    0.479287
     16          6           0        4.022431   -1.409515    1.510029
     17          6           0        3.400077   -0.188250    1.234831
     18          6           0        3.363444    0.248695   -0.088433
     19          6           0        3.920013   -0.481831   -1.137172
     20          6           0        4.537264   -1.700215   -0.838700
     21          1           0        5.071671   -3.113240    0.702108
     22          1           0        4.062047   -1.768502    2.534530
     23          1           0        2.952500    0.417268    2.013573
     24          1           0        3.864830   -0.097878   -2.148584
     25          1           0        4.977354   -2.285328   -1.641202
     26          7           0        2.707285    1.540070   -0.392093
     27          8           0        2.688258    1.902986   -1.566216
     28          8           0        2.224440    2.164880    0.549772
 ---------------------------------------------------------------------

 SCF Done:  E(RHF) =  -868.340164729     A.U. after   16 cycles
 E2 =    -0.2599149943D+01 EUMP2 =    -0.87093931467220D+03

 The electronic state is 1-A.
 Alpha  occ. eigenvalues --  -20.62054 -20.62002 -20.60324 -20.60316 -15.87041
 Alpha  occ. eigenvalues --  -15.85374 -11.32135 -11.30555 -11.28664 -11.28626
 Alpha  occ. eigenvalues --  -11.28300 -11.27573 -11.27555 -11.27151 -11.27128
 Alpha  occ. eigenvalues --  -11.26606 -11.26042 -11.26013  -1.61101  -1.59404
 Alpha  occ. eigenvalues --   -1.40654  -1.38963  -1.20266  -1.18703  -1.09708
 Alpha  occ. eigenvalues --   -1.08082  -1.05607  -1.04100  -0.96586  -0.94951
 Alpha  occ. eigenvalues --   -0.87017  -0.85479  -0.83416  -0.81815  -0.78507
 Alpha  occ. eigenvalues --   -0.76933  -0.73256  -0.72440  -0.71592  -0.71336
 Alpha  occ. eigenvalues --   -0.70727  -0.69668  -0.65904  -0.65584  -0.64334
 Alpha  occ. eigenvalues --   -0.64086  -0.62947  -0.61471  -0.56093  -0.54422
 Alpha  occ. eigenvalues --   -0.53962  -0.53677  -0.52419  -0.52184  -0.50035
 Alpha  occ. eigenvalues --   -0.49988  -0.48361  -0.48333  -0.46098  -0.44411
 Alpha  occ. eigenvalues --   -0.38224  -0.37199  -0.36597  -0.35730
 Alpha virt. eigenvalues --    0.03956   0.05630   0.10432   0.11947   0.15491
 Alpha virt. eigenvalues --    0.17190   0.20677   0.22079   0.26623   0.27197
 Alpha virt. eigenvalues --    0.27690   0.29198   0.30464   0.31582   0.31784

 Mulliken charges:
               1
     1  C   -0.173600
     2  C   -0.220057
     3  C   -0.171328
     4  C    0.157134
     5  C   -0.172547
     6  C   -0.218752
     7  H    0.246278
     8  H    0.223011
     9  H    0.273346
    10  H    0.271358
    11  H    0.217377
    12  N    0.488375
    13  O   -0.463630
    14  O   -0.462029
    15  C   -0.169395
    16  C   -0.218178
    17  C   -0.173749
    18  C    0.152265
    19  C   -0.170926
    20  C   -0.218385
    21  H    0.229740
    22  H    0.227041
    23  H    0.275876
    24  H    0.277834
    25  H    0.227330
    26  N    0.487308
    27  O   -0.453649
    28  O   -0.468046
 Sum of Mulliken charges =  -0.00000

 Dipole moment (field-independent basis, Debye):
    X=              6.4807    Y=             -0.8790    Z=              1.7999  Tot=              6.7832
 Quadrupole moment (field-independent basis, Debye-Ang):
   XX=           -114.0016   YY=           -106.6921   ZZ=           -100.8015
   XY=            -32.8679   XZ=             -1.3282   YZ=              1.7060

 Normal termination of Gaussian 16 at Thu May  6 13:11:50 2021.
