 Gaussian 16, Revision A.03,
 Gaussian 16:  EM64L-G16RevA.03 25-Dec-2016

 -------------
 #p 6-31g* mp2
 -------------

 ------------------------------------------------------
 Input file generated by CHIRIPA (05-May-2021 14:53:17)
 ------------------------------------------------------
 Symbolic Z-matrix:
 Charge =  0 Multiplicity = 1

                         Standard orientation:
 ---------------------------------------------------------------------
 Center     Atomic      Atomic             Coordinates (Angstroms)
 Number     Number       Type             X           Y           Z
 ---------------------------------------------------------------------
      1          6           0       -2.892041    0.753914   -0.115363
      2          6           0       -2.783323    1.850317    0.944857
      3          6           0       -1.833950    2.976687    0.535252
      4          1           0       -1.892927    0.340643   -0.310106
      5          1           0       -3.235568    1.199156   -1.059366
      6          1           0       -2.441428    1.402907    1.886954
      7          1           0       -3.782839    2.260894    1.137237
      8          1           0       -2.174602    3.449753   -0.391444
      9          1           0       -0.825570    2.586891    0.362533
     10          1           0       -1.771214    3.749632    1.307574
     11          6           0       -3.837511   -0.379140    0.279610
     12          6           0       -3.946229   -1.475543   -0.780610
     13          6           0       -4.895602   -2.601913   -0.371005
     14          1           0       -3.493983   -0.824383    1.223613
     15          1           0       -4.836624    0.034131    0.474353
     16          1           0       -2.946713   -1.886120   -0.972990
     17          1           0       -4.288123   -1.028133   -1.722707
     18          1           0       -5.903981   -2.212118   -0.198287
     19          1           0       -4.554949   -3.074980    0.555690
     20          1           0       -4.958337   -3.374858   -1.143327
     21          6           0        3.145492   -2.442431    0.845293
     22          6           0        3.167407   -2.214873   -0.534656
     23          6           0        2.882715   -0.946731   -1.049743
     24          6           0        2.578772    0.075577   -0.152082
     25          6           0        2.548871   -0.119714    1.227867
     26          6           0        2.836839   -1.395971    1.720607
     27          1           0        3.367920   -3.430707    1.236745
     28          1           0        3.406780   -3.025689   -1.216801
     29          1           0        2.892562   -0.742828   -2.113578
     30          1           0        2.306765    0.708339    1.882948
     31          1           0        2.819073   -1.569790    2.792762
     32          7           0        2.275648    1.422396   -0.685552
     33          8           0        2.010817    2.306342    0.126324
     34          8           0        2.308629    1.568587   -1.905461
 ---------------------------------------------------------------------

 SCF Done:  E(RHF) =  -669.536164330     A.U. after   15 cycles
 E2 =    -0.2091193718D+01 EUMP2 =    -0.67162735804773D+03

 The electronic state is 1-A.
 Alpha  occ. eigenvalues --  -20.60970 -20.60965 -15.85988 -11.31314 -11.27875
 Alpha  occ. eigenvalues --  -11.27871 -11.27611 -11.26881 -11.26871 -11.21441
 Alpha  occ. eigenvalues --  -11.21124 -11.21000 -11.20996 -11.20924 -11.19977
 Alpha  occ. eigenvalues --   -1.60024  -1.39581  -1.19481  -1.08885  -1.08058
 Alpha  occ. eigenvalues --   -1.04876  -1.03083  -0.95727  -0.95502  -0.86512
 Alpha  occ. eigenvalues --   -0.86276  -0.82558  -0.79164  -0.77848  -0.77611
 Alpha  occ. eigenvalues --   -0.72208  -0.71339  -0.70587  -0.65135  -0.64877
 Alpha  occ. eigenvalues --   -0.64698  -0.62222  -0.60483  -0.58928  -0.57116
 Alpha  occ. eigenvalues --   -0.55379  -0.54787  -0.53209  -0.52966  -0.52189
 Alpha  occ. eigenvalues --   -0.51916  -0.49456  -0.48978  -0.48956  -0.47468
 Alpha  occ. eigenvalues --   -0.46245  -0.45429  -0.45342  -0.44815  -0.43350
 Alpha  occ. eigenvalues --   -0.37460  -0.36477
 Alpha virt. eigenvalues --    0.04879   0.11174   0.16348   0.21301   0.23166
 Alpha virt. eigenvalues --    0.24750   0.26930   0.27244   0.27782   0.28099
 Alpha virt. eigenvalues --    0.28678   0.30793   0.31846   0.32111   0.32378

 Mulliken charges:
               1
     1  C   -0.296713
     2  C   -0.299713
     3  C   -0.482054
     4  H    0.146954
     5  H    0.151150
     6  H    0.146504
     7  H    0.149076
     8  H    0.154322
     9  H    0.172572
    10  H    0.157503
    11  C   -0.297521
    12  C   -0.299050
    13  C   -0.475296
    14  H    0.146602
    15  H    0.149471
    16  H    0.149973
    17  H    0.152932
    18  H    0.155545
    19  H    0.153310
    20  H    0.158978
    21  C   -0.170588
    22  C   -0.218598
    23  C   -0.170800
    24  C    0.157967
    25  C   -0.171238
    26  C   -0.218582
    27  H    0.226124
    28  H    0.223975
    29  H    0.276044
    30  H    0.276108
    31  H    0.223955
    32  N    0.487457
    33  O   -0.458446
    34  O   -0.457921
 Sum of Mulliken charges =  -0.00000

 Dipole moment (field-independent basis, Debye):
    X=              1.2823    Y=             -4.7012    Z=              1.8118  Tot=              5.1989
 Quadrupole moment (field-independent basis, Debye-Ang):
   XX=            -90.1970   YY=            -95.9838   ZZ=            -90.9356
   XY=            -13.6372   XZ=              4.6241   YZ=              2.4152

 Normal termination of Gaussian 16 at Thu May  6 07:32:33 2021.
