 Gaussian 16, Revision A.03,
 Gaussian 16:  EM64L-G16RevA.03 25-Dec-2016

 -------------
 #p 6-31g* mp2
 -------------

 ------------------------------------------------------
 Input file generated by CHIRIPA (05-May-2021 14:57:21)
 ------------------------------------------------------
 Symbolic Z-matrix:
 Charge =  0 Multiplicity = 1

                         Standard orientation:
 ---------------------------------------------------------------------
 Center     Atomic      Atomic             Coordinates (Angstroms)
 Number     Number       Type             X           Y           Z
 ---------------------------------------------------------------------
      1          6           0       -3.589866    2.019053    1.027345
      2          6           0       -3.293835    0.914254    1.832519
      3          6           0       -2.808100   -0.267745    1.265521
      4          6           0       -2.629513   -0.310316   -0.116357
      5          6           0       -2.915311    0.773495   -0.945190
      6          6           0       -3.399993    1.945278   -0.356500
      7          1           0       -3.966788    2.933291    1.476228
      8          1           0       -3.440313    0.968688    2.907519
      9          1           0       -2.570854   -1.137981    1.865372
     10          1           0       -2.758976    0.689085   -2.013765
     11          1           0       -3.629049    2.801714   -0.984271
     12          7           0       -2.115844   -1.556238   -0.728094
     13          8           0       -1.967220   -1.568290   -1.948095
     14          8           0       -1.871581   -2.497147    0.024010
     15          6           0        3.069371    2.542289   -0.531498
     16          6           0        4.065298    1.822501    0.136749
     17          6           0        3.879333    0.471588    0.444969
     18          6           0        2.679833   -0.130658    0.068420
     19          6           0        1.668696    0.559616   -0.598223
     20          6           0        1.876352    1.909666   -0.896208
     21          1           0        3.222258    3.591376   -0.766955
     22          1           0        4.992817    2.311210    0.421207
     23          1           0        4.633696   -0.109357    0.961551
     24          1           0        0.754688    0.045107   -0.868941
     25          1           0        1.101156    2.466178   -1.415256
     26          7           0        2.471479   -1.560352    0.389301
     27          8           0        1.405777   -2.067849    0.046716
     28          8           0        3.377817   -2.146377    0.977316
 ---------------------------------------------------------------------

 SCF Done:  E(RHF) =  -868.335873915     A.U. after   16 cycles
 E2 =    -0.2602074576D+01 EUMP2 =    -0.87093794849102D+03

 The electronic state is 1-A.
 Alpha  occ. eigenvalues --  -20.60516 -20.60376 -20.60207 -20.60118 -15.85487
 Alpha  occ. eigenvalues --  -15.85209 -11.31236 -11.30854 -11.27887 -11.27760
 Alpha  occ. eigenvalues --  -11.27615 -11.27467 -11.27451 -11.27277 -11.26953
 Alpha  occ. eigenvalues --  -11.26861 -11.26554 -11.26540  -1.59495  -1.59243
 Alpha  occ. eigenvalues --   -1.39043  -1.38784  -1.19432  -1.19062  -1.08753
 Alpha  occ. eigenvalues --   -1.08411  -1.04875  -1.04504  -0.95523  -0.95193
 Alpha  occ. eigenvalues --   -0.86252  -0.85894  -0.82347  -0.82015  -0.77340
 Alpha  occ. eigenvalues --   -0.77029  -0.71722  -0.71487  -0.70742  -0.70567
 Alpha  occ. eigenvalues --   -0.70508  -0.70172  -0.65062  -0.64864  -0.64703
 Alpha  occ. eigenvalues --   -0.64517  -0.62206  -0.61848  -0.55346  -0.55015
 Alpha  occ. eigenvalues --   -0.53207  -0.52956  -0.52816  -0.52603  -0.48496
 Alpha  occ. eigenvalues --   -0.48438  -0.48207  -0.48169  -0.44430  -0.44018
 Alpha  occ. eigenvalues --   -0.37436  -0.37066  -0.36505  -0.36113
 Alpha virt. eigenvalues --    0.05190   0.05519   0.11110   0.11528   0.16605
 Alpha virt. eigenvalues --    0.16963   0.21218   0.21578   0.26928   0.27360
 Alpha virt. eigenvalues --    0.28167   0.28378   0.30570   0.31188   0.32296

 Mulliken charges:
               1
     1  C   -0.171851
     2  C   -0.218337
     3  C   -0.169756
     4  C    0.154887
     5  C   -0.179572
     6  C   -0.219385
     7  H    0.224951
     8  H    0.224626
     9  H    0.280871
    10  H    0.273810
    11  H    0.221319
    12  N    0.489456
    13  O   -0.465958
    14  O   -0.441747
    15  C   -0.171710
    16  C   -0.218873
    17  C   -0.171067
    18  C    0.158145
    19  C   -0.171028
    20  C   -0.218901
    21  H    0.223034
    22  H    0.221955
    23  H    0.275316
    24  H    0.277052
    25  H    0.219602
    26  N    0.486987
    27  O   -0.449674
    28  O   -0.464152
 Sum of Mulliken charges =  -0.00000

 Dipole moment (field-independent basis, Debye):
    X=             -1.1794    Y=              9.0285    Z=              1.1762  Tot=              9.1808
 Quadrupole moment (field-independent basis, Debye-Ang):
   XX=            -88.7537   YY=           -108.8646   ZZ=           -101.4280
   XY=              2.3908   XZ=             -6.5311   YZ=             -2.9967

 Normal termination of Gaussian 16 at Thu May  6 06:31:55 2021.
