 Gaussian 16, Revision A.03,
 Gaussian 16:  EM64L-G16RevA.03 25-Dec-2016

 -------------
 #p 6-31g* mp2
 -------------

 ------------------------------------------------------
 Input file generated by CHIRIPA (05-May-2021 14:53:16)
 ------------------------------------------------------
 Symbolic Z-matrix:
 Charge =  0 Multiplicity = 1

                         Standard orientation:
 ---------------------------------------------------------------------
 Center     Atomic      Atomic             Coordinates (Angstroms)
 Number     Number       Type             X           Y           Z
 ---------------------------------------------------------------------
      1          6           0        4.307283   -0.240875   -0.048784
      2          6           0        4.482392    1.248780   -0.345853
      3          6           0        5.950770    1.662634   -0.447759
      4          1           0        4.824317   -0.484402    0.889468
      5          1           0        4.800025   -0.825424   -0.838026
      6          1           0        3.988278    1.830337    0.442980
      7          1           0        3.964720    1.488827   -1.283408
      8          1           0        6.452755    1.107987   -1.247120
      9          1           0        6.476447    1.451438    0.489077
     10          1           0        6.052824    2.731353   -0.660563
     11          6           0        2.844860   -0.669896    0.056040
     12          6           0        2.669752   -2.159551    0.353110
     13          6           0        1.201374   -2.573405    0.455015
     14          1           0        2.352119   -0.085347    0.845283
     15          1           0        2.327827   -0.426369   -0.882211
     16          1           0        3.187424   -2.399598    1.290664
     17          1           0        3.163865   -2.741108   -0.435724
     18          1           0        0.675696   -2.362209   -0.481820
     19          1           0        0.699388   -2.018758    1.254377
     20          1           0        1.099319   -3.642124    0.667819
     21          6           0       -2.257560    2.788346    0.398339
     22          6           0       -3.540220    2.413162   -0.014630
     23          6           0       -3.848581    1.068278   -0.239903
     24          6           0       -2.845649    0.120597   -0.041618
     25          6           0       -1.558342    0.462923    0.369410
     26          6           0       -1.272452    1.813746    0.588705
     27          1           0       -2.026746    3.835390    0.571014
     28          1           0       -4.307251    3.167890   -0.163269
     29          1           0       -4.833314    0.750048   -0.559983
     30          1           0       -0.814627   -0.312170    0.509182
     31          1           0       -0.275456    2.102207    0.909383
     32          7           0       -3.160202   -1.306315   -0.276940
     33          8           0       -2.258973   -2.122022   -0.095160
     34          8           0       -4.302024   -1.582003   -0.638711
 ---------------------------------------------------------------------

 SCF Done:  E(RHF) =  -669.535312399     A.U. after   15 cycles
 E2 =    -0.2092472524D+01 EUMP2 =    -0.67162778492270D+03

 The electronic state is 1-A.
 Alpha  occ. eigenvalues --  -20.60732 -20.60723 -15.85773 -11.31106 -11.27694
 Alpha  occ. eigenvalues --  -11.27610 -11.27436 -11.26707 -11.26677 -11.21981
 Alpha  occ. eigenvalues --  -11.21755 -11.21658 -11.21555 -11.21375 -11.20733
 Alpha  occ. eigenvalues --   -1.59805  -1.39358  -1.19286  -1.08692  -1.08678
 Alpha  occ. eigenvalues --   -1.04684  -1.03670  -0.96102  -0.95522  -0.87107
 Alpha  occ. eigenvalues --   -0.86084  -0.82358  -0.79748  -0.78545  -0.77373
 Alpha  occ. eigenvalues --   -0.71993  -0.71126  -0.70404  -0.65310  -0.64938
 Alpha  occ. eigenvalues --   -0.64699  -0.62061  -0.61054  -0.59487  -0.57719
 Alpha  occ. eigenvalues --   -0.55391  -0.55189  -0.53022  -0.52911  -0.52722
 Alpha  occ. eigenvalues --   -0.52392  -0.50045  -0.48789  -0.48754  -0.47964
 Alpha  occ. eigenvalues --   -0.46782  -0.46026  -0.45967  -0.44751  -0.43933
 Alpha  occ. eigenvalues --   -0.37278  -0.36286
 Alpha virt. eigenvalues --    0.05093   0.11342   0.16592   0.20254   0.22790
 Alpha virt. eigenvalues --    0.23899   0.25399   0.26703   0.26894   0.28354
 Alpha virt. eigenvalues --    0.29887   0.31142   0.31342   0.31651   0.32121

 Mulliken charges:
               1
     1  C   -0.297692
     2  C   -0.299408
     3  C   -0.475727
     4  H    0.150901
     5  H    0.152376
     6  H    0.146999
     7  H    0.151852
     8  H    0.156938
     9  H    0.155969
    10  H    0.159839
    11  C   -0.299571
    12  C   -0.301744
    13  C   -0.477620
    14  H    0.138902
    15  H    0.149959
    16  H    0.151182
    17  H    0.153797
    18  H    0.167442
    19  H    0.148188
    20  H    0.168049
    21  C   -0.170349
    22  C   -0.219309
    23  C   -0.169957
    24  C    0.154566
    25  C   -0.177842
    26  C   -0.223586
    27  H    0.225307
    28  H    0.223072
    29  H    0.275257
    30  H    0.291880
    31  H    0.224498
    32  N    0.488822
    33  O   -0.462448
    34  O   -0.460544
 Sum of Mulliken charges =  -0.00000

 Dipole moment (field-independent basis, Debye):
    X=              1.1426    Y=              4.8331    Z=              0.7551  Tot=              5.0234
 Quadrupole moment (field-independent basis, Debye-Ang):
   XX=            -97.7423   YY=            -93.4388   ZZ=            -94.4242
   XY=            -16.2535   XZ=             -1.1227   YZ=             -0.1515

 Normal termination of Gaussian 16 at Thu May  6 20:26:53 2021.
