 Gaussian 16, Revision A.03,
 Gaussian 16:  EM64L-G16RevA.03 25-Dec-2016

 -------------
 #p 6-31g* mp2
 -------------

 ------------------------------------------------------
 Input file generated by CHIRIPA (05-May-2021 14:55:22)
 ------------------------------------------------------
 Symbolic Z-matrix:
 Charge =  0 Multiplicity = 1

                         Standard orientation:
 ---------------------------------------------------------------------
 Center     Atomic      Atomic             Coordinates (Angstroms)
 Number     Number       Type             X           Y           Z
 ---------------------------------------------------------------------
      1          6           0       -0.371752   -1.747816    0.542488
      2          6           0       -0.846048   -0.839451    1.494558
      3          6           0       -2.028114   -0.127628    1.269666
      4          6           0       -2.713680   -0.349814    0.076384
      5          6           0       -2.266792   -1.248013   -0.891511
      6          6           0       -1.082384   -1.948844   -0.645413
      7          1           0        0.547415   -2.296508    0.725426
      8          1           0       -0.296239   -0.681306    2.418000
      9          1           0       -2.417945    0.581622    1.989676
     10          1           0       -2.836753   -1.384319   -1.802545
     11          1           0       -0.716413   -2.653660   -1.386591
     12          7           0       -3.966319    0.397943   -0.172924
     13          8           0       -4.551827    0.184179   -1.232227
     14          8           0       -4.338910    1.183640    0.695692
     15          6           0        2.731652    1.122931   -0.446343
     16          6           0        2.836968    2.495717    0.218752
     17          6           0        1.875290    3.520089   -0.384268
     18          1           0        2.931662    1.227165   -1.521552
     19          1           0        1.699680    0.756897   -0.354424
     20          1           0        3.868760    2.858438    0.126818
     21          1           0        2.636871    2.388171    1.292536
     22          1           0        0.838715    3.183836   -0.279160
     23          1           0        2.077604    3.656775   -1.451502
     24          1           0        1.967301    4.494287    0.105970
     25          6           0        3.686856    0.088086    0.145613
     26          6           0        3.581540   -1.284700   -0.519482
     27          6           0        4.543217   -2.309072    0.083538
     28          1           0        4.718827    0.454119    0.053693
     29          1           0        3.486846   -0.016148    1.220822
     30          1           0        3.781637   -1.177155   -1.593266
     31          1           0        2.549747   -1.647421   -0.427548
     32          1           0        4.340903   -2.445758    1.150771
     33          1           0        5.579792   -1.972819   -0.021570
     34          1           0        4.451208   -3.283270   -0.406700
 ---------------------------------------------------------------------

 SCF Done:  E(RHF) =  -669.535444529     A.U. after   15 cycles
 E2 =    -0.2092519089D+01 EUMP2 =    -0.67162796361835D+03

 The electronic state is 1-A.
 Alpha  occ. eigenvalues --  -20.60822 -20.60817 -15.85877 -11.31275 -11.27848
 Alpha  occ. eigenvalues --  -11.27835 -11.27590 -11.26885 -11.26861 -11.22492
 Alpha  occ. eigenvalues --  -11.22084 -11.21987 -11.21928 -11.21811 -11.21298
 Alpha  occ. eigenvalues --   -1.59897  -1.39450  -1.19455  -1.09052  -1.08838
 Alpha  occ. eigenvalues --   -1.04857  -1.04129  -0.96549  -0.95675  -0.87564
 Alpha  occ. eigenvalues --   -0.86253  -0.82504  -0.80219  -0.78820  -0.77539
 Alpha  occ. eigenvalues --   -0.72094  -0.71221  -0.70591  -0.65700  -0.65106
 Alpha  occ. eigenvalues --   -0.64846  -0.62199  -0.61545  -0.59945  -0.58156
 Alpha  occ. eigenvalues --   -0.55853  -0.55365  -0.53275  -0.53173  -0.52954
 Alpha  occ. eigenvalues --   -0.52945  -0.50491  -0.48858  -0.48847  -0.48510
 Alpha  occ. eigenvalues --   -0.47271  -0.46359  -0.46262  -0.44848  -0.44364
 Alpha  occ. eigenvalues --   -0.37391  -0.36457
 Alpha virt. eigenvalues --    0.04952   0.11155   0.16311   0.19809   0.22912
 Alpha virt. eigenvalues --    0.23668   0.25925   0.26258   0.27350   0.27691
 Alpha virt. eigenvalues --    0.28770   0.30450   0.31113   0.31250   0.32344

 Mulliken charges:
               1
     1  C   -0.170307
     2  C   -0.220054
     3  C   -0.171385
     4  C    0.158792
     5  C   -0.170630
     6  C   -0.219329
     7  H    0.229192
     8  H    0.224013
     9  H    0.276042
    10  H    0.276117
    11  H    0.224487
    12  N    0.488051
    13  O   -0.460018
    14  O   -0.460154
    15  C   -0.303407
    16  C   -0.299331
    17  C   -0.476307
    18  H    0.150853
    19  H    0.154015
    20  H    0.152598
    21  H    0.149125
    22  H    0.157395
    23  H    0.156354
    24  H    0.161717
    25  C   -0.297363
    26  C   -0.303005
    27  C   -0.476302
    28  H    0.152768
    29  H    0.145010
    30  H    0.155950
    31  H    0.142553
    32  H    0.152565
    33  H    0.159934
    34  H    0.160060
 Sum of Mulliken charges =  -0.00000

 Dipole moment (field-independent basis, Debye):
    X=              4.4144    Y=             -2.5743    Z=              0.8222  Tot=              5.1759
 Quadrupole moment (field-independent basis, Debye-Ang):
   XX=           -119.0218   YY=            -92.9994   ZZ=            -90.5095
   XY=              6.7456   XZ=             -2.4251   YZ=              1.9148

 Normal termination of Gaussian 16 at Wed May  5 16:00:52 2021.
