 Gaussian 16, Revision A.03,
 Gaussian 16:  EM64L-G16RevA.03 25-Dec-2016

 -------------
 #p 6-31g* mp2
 -------------

 ------------------------------------------------------
 Input file generated by CHIRIPA (05-May-2021 14:55:23)
 ------------------------------------------------------
 Symbolic Z-matrix:
 Charge =  0 Multiplicity = 1

                         Standard orientation:
 ---------------------------------------------------------------------
 Center     Atomic      Atomic             Coordinates (Angstroms)
 Number     Number       Type             X           Y           Z
 ---------------------------------------------------------------------
      1          6           0        3.819376   -2.522975    0.368298
      2          6           0        4.448390   -1.749573   -0.612881
      3          6           0        4.061841   -0.423263   -0.827425
      4          6           0        3.038083    0.099978   -0.039117
      5          6           0        2.392124   -0.645126    0.946198
      6          6           0        2.795056   -1.969259    1.143340
      7          1           0        4.126020   -3.552439    0.528201
      8          1           0        5.244186   -2.176966   -1.216279
      9          1           0        4.531811    0.197940   -1.580189
     10          1           0        1.601957   -0.191364    1.531991
     11          1           0        2.304775   -2.567539    1.906052
     12          7           0        2.620189    1.502931   -0.257033
     13          8           0        1.715622    1.940507    0.450725
     14          8           0        3.205123    2.138424   -1.131469
     15          6           0       -3.375126    0.502621    0.334734
     16          6           0       -3.270671    1.997796    0.032204
     17          6           0       -2.061746    2.653136    0.700655
     18          1           0       -3.432641    0.358200    1.422290
     19          1           0       -2.455017    0.003003    0.001301
     20          1           0       -4.191277    2.494230    0.364853
     21          1           0       -3.213592    2.138686   -1.054767
     22          1           0       -1.132535    2.184464    0.360782
     23          1           0       -2.115775    2.542027    1.788468
     24          1           0       -2.006399    3.721830    0.471118
     25          6           0       -4.578684   -0.166632   -0.326536
     26          6           0       -4.683139   -1.661808   -0.024007
     27          6           0       -5.892064   -2.317147   -0.692458
     28          1           0       -5.498793    0.332985    0.006897
     29          1           0       -4.521169   -0.022211   -1.414093
     30          1           0       -4.740218   -1.802698    1.062965
     31          1           0       -3.762533   -2.158242   -0.356655
     32          1           0       -5.838035   -2.206039   -1.780271
     33          1           0       -6.821275   -1.848475   -0.352584
     34          1           0       -5.947411   -3.385842   -0.462920
 ---------------------------------------------------------------------

 SCF Done:  E(RHF) =  -669.536017848     A.U. after   15 cycles
 E2 =    -0.2090810156D+01 EUMP2 =    -0.67162682800400D+03

 The electronic state is 1-A.
 Alpha  occ. eigenvalues --  -20.60916 -20.60904 -15.85945 -11.31273 -11.27838
 Alpha  occ. eigenvalues --  -11.27832 -11.27577 -11.26847 -11.26837 -11.21462
 Alpha  occ. eigenvalues --  -11.21091 -11.20970 -11.20963 -11.20866 -11.19889
 Alpha  occ. eigenvalues --   -1.59976  -1.39531  -1.19443  -1.08847  -1.08033
 Alpha  occ. eigenvalues --   -1.04840  -1.03037  -0.95690  -0.95455  -0.86470
 Alpha  occ. eigenvalues --   -0.86239  -0.82520  -0.79127  -0.77831  -0.77566
 Alpha  occ. eigenvalues --   -0.72168  -0.71291  -0.70551  -0.65099  -0.64842
 Alpha  occ. eigenvalues --   -0.64669  -0.62186  -0.60431  -0.58892  -0.57070
 Alpha  occ. eigenvalues --   -0.55344  -0.54735  -0.53173  -0.52931  -0.52132
 Alpha  occ. eigenvalues --   -0.51879  -0.49416  -0.48928  -0.48909  -0.47424
 Alpha  occ. eigenvalues --   -0.46190  -0.45378  -0.45312  -0.44836  -0.43306
 Alpha  occ. eigenvalues --   -0.37424  -0.36442
 Alpha virt. eigenvalues --    0.04921   0.11211   0.16390   0.21290   0.23216
 Alpha virt. eigenvalues --    0.24796   0.26849   0.27283   0.27710   0.28123
 Alpha virt. eigenvalues --    0.28859   0.30817   0.31823   0.32096   0.32546

 Mulliken charges:
               1
     1  C   -0.170659
     2  C   -0.218582
     3  C   -0.170868
     4  C    0.157831
     5  C   -0.171217
     6  C   -0.218561
     7  H    0.225951
     8  H    0.223734
     9  H    0.275774
    10  H    0.276421
    11  H    0.224018
    12  N    0.490309
    13  O   -0.461526
    14  O   -0.458995
    15  C   -0.297074
    16  C   -0.300063
    17  C   -0.481842
    18  H    0.146835
    19  H    0.146846
    20  H    0.148504
    21  H    0.151316
    22  H    0.175867
    23  H    0.148737
    24  H    0.160921
    25  C   -0.297696
    26  C   -0.298978
    27  C   -0.475352
    28  H    0.149391
    29  H    0.149810
    30  H    0.150407
    31  H    0.149540
    32  H    0.155305
    33  H    0.155468
    34  H    0.158427
 Sum of Mulliken charges =  -0.00000

 Dipole moment (field-independent basis, Debye):
    X=              1.7027    Y=             -4.8912    Z=              0.7370  Tot=              5.2313
 Quadrupole moment (field-independent basis, Debye-Ang):
   XX=            -84.8803   YY=            -96.6535   ZZ=            -92.1728
   XY=            -15.4172   XZ=             -1.3416   YZ=             -0.3336

 Normal termination of Gaussian 16 at Thu May  6 20:48:54 2021.
