 Gaussian 16, Revision A.03,
 Gaussian 16:  EM64L-G16RevA.03 25-Dec-2016

 -------------
 #p 6-31g* mp2
 -------------

 ------------------------------------------------------
 Input file generated by CHIRIPA (05-May-2021 14:53:14)
 ------------------------------------------------------
 Symbolic Z-matrix:
 Charge =  0 Multiplicity = 1

                         Standard orientation:
 ---------------------------------------------------------------------
 Center     Atomic      Atomic             Coordinates (Angstroms)
 Number     Number       Type             X           Y           Z
 ---------------------------------------------------------------------
      1          6           0        4.311534   -0.302603   -0.188242
      2          6           0        3.201949   -0.212551    0.859945
      3          6           0        1.811726   -0.454954    0.271459
      4          1           0        4.115882    0.429278   -0.983865
      5          1           0        4.280225   -1.294045   -0.660956
      6          1           0        3.236221    0.777937    1.331511
      7          1           0        3.400369   -0.944599    1.653261
      8          1           0        1.753602   -1.449528   -0.182462
      9          1           0        1.588521    0.282796   -0.506040
     10          1           0        1.033645   -0.385908    1.038064
     11          6           0        5.707157   -0.062575    0.384777
     12          6           0        6.816743   -0.152627   -0.663411
     13          6           0        8.206965    0.089776   -0.074925
     14          1           0        5.738467    0.928867    0.857490
     15          1           0        5.902810   -0.794456    1.180399
     16          1           0        6.618323    0.579422   -1.456727
     17          1           0        6.782471   -1.143115   -1.134977
     18          1           0        8.430171   -0.647973    0.702574
     19          1           0        8.265090    1.084350    0.378996
     20          1           0        8.985047    0.020730   -0.841530
     21          6           0       -6.021059   -1.237266    0.065281
     22          6           0       -4.787112   -1.863094   -0.140235
     23          6           0       -3.612941   -1.108500   -0.220590
     24          6           0       -3.709806    0.276053   -0.090505
     25          6           0       -4.924291    0.928830    0.114913
     26          6           0       -6.085596    0.154247    0.191976
     27          1           0       -6.928185   -1.831217    0.126424
     28          1           0       -4.733980   -2.943589   -0.238984
     29          1           0       -2.644491   -1.567187   -0.379115
     30          1           0       -4.945520    2.007721    0.209593
     31          1           0       -7.042514    0.642978    0.351644
     32          7           0       -2.473573    1.085489   -0.173830
     33          8           0       -2.585705    2.303762   -0.056051
     34          8           0       -1.415891    0.486324   -0.355342
 ---------------------------------------------------------------------

 SCF Done:  E(RHF) =  -669.535527926     A.U. after   15 cycles
 E2 =    -0.2090871211D+01 EUMP2 =    -0.67162639913667D+03

 The electronic state is 1-A.
 Alpha  occ. eigenvalues --  -20.60846 -20.60838 -15.85881 -11.31237 -11.27807
 Alpha  occ. eigenvalues --  -11.27801 -11.27551 -11.26822 -11.26812 -11.21050
 Alpha  occ. eigenvalues --  -11.20707 -11.20615 -11.20540 -11.20476 -11.19509
 Alpha  occ. eigenvalues --   -1.59915  -1.39469  -1.19411  -1.08810  -1.07636
 Alpha  occ. eigenvalues --   -1.04812  -1.02652  -0.95653  -0.95065  -0.86214
 Alpha  occ. eigenvalues --   -0.86077  -0.82477  -0.78743  -0.77538  -0.77409
 Alpha  occ. eigenvalues --   -0.72101  -0.71234  -0.70519  -0.65066  -0.64816
 Alpha  occ. eigenvalues --   -0.64276  -0.62158  -0.60053  -0.58493  -0.56683
 Alpha  occ. eigenvalues --   -0.55317  -0.54363  -0.53144  -0.52904  -0.51727
 Alpha  occ. eigenvalues --   -0.51500  -0.49131  -0.48861  -0.48745  -0.47042
 Alpha  occ. eigenvalues --   -0.45790  -0.44959  -0.44888  -0.44867  -0.42872
 Alpha  occ. eigenvalues --   -0.37393  -0.36416
 Alpha virt. eigenvalues --    0.04990   0.11239   0.16471   0.21354   0.23606
 Alpha virt. eigenvalues --    0.25211   0.27253   0.27415   0.28056   0.28245
 Alpha virt. eigenvalues --    0.29068   0.30912   0.32221   0.32307   0.32621

 Mulliken charges:
               1
     1  C   -0.297517
     2  C   -0.301591
     3  C   -0.469578
     4  H    0.150565
     5  H    0.146410
     6  H    0.151663
     7  H    0.145468
     8  H    0.143498
     9  H    0.168416
    10  H    0.164655
    11  C   -0.297481
    12  C   -0.299041
    13  C   -0.475258
    14  H    0.149264
    15  H    0.147548
    16  H    0.151936
    17  H    0.150466
    18  H    0.154031
    19  H    0.154919
    20  H    0.158576
    21  C   -0.170724
    22  C   -0.218560
    23  C   -0.171029
    24  C    0.157546
    25  C   -0.170744
    26  C   -0.218594
    27  H    0.225765
    28  H    0.223674
    29  H    0.276313
    30  H    0.275695
    31  H    0.223584
    32  N    0.492292
    33  O   -0.460176
    34  O   -0.461989
 Sum of Mulliken charges =  -0.00000

 Dipole moment (field-independent basis, Debye):
    X=             -4.6559    Y=             -2.7622    Z=              0.2503  Tot=              5.4195
 Quadrupole moment (field-independent basis, Debye-Ang):
   XX=            -63.9020   YY=            -92.1747   ZZ=            -95.7876
   XY=              7.0402   XZ=             -1.5628   YZ=              0.7899

 Normal termination of Gaussian 16 at Thu May  6 20:19:51 2021.
