 Gaussian 16, Revision A.03,
 Gaussian 16:  EM64L-G16RevA.03 25-Dec-2016

 -------------
 #p 6-31g* mp2
 -------------

 ------------------------------------------------------
 Input file generated by CHIRIPA (05-May-2021 14:55:18)
 ------------------------------------------------------
 Symbolic Z-matrix:
 Charge =  0 Multiplicity = 1

                         Standard orientation:
 ---------------------------------------------------------------------
 Center     Atomic      Atomic             Coordinates (Angstroms)
 Number     Number       Type             X           Y           Z
 ---------------------------------------------------------------------
      1          6           0       -0.734663   -1.097950   -0.409267
      2          6           0       -1.060159    0.245940   -0.620294
      3          6           0       -2.371267    0.695930   -0.438489
      4          6           0       -3.336205   -0.229352   -0.043476
      5          6           0       -3.043152   -1.574651    0.174657
      6          6           0       -1.725452   -2.002362   -0.013164
      7          1           0        0.286398   -1.438860   -0.552834
      8          1           0       -0.292753    0.950556   -0.927947
      9          1           0       -2.650825    1.730725   -0.594904
     10          1           0       -3.829784   -2.253468    0.480984
     11          1           0       -1.475557   -3.046632    0.151451
     12          7           0       -4.727706    0.235239    0.152177
     13          8           0       -5.559545   -0.599843    0.500486
     14          8           0       -4.960177    1.425671   -0.046483
     15          6           0        4.021975    1.153942    0.082921
     16          6           0        2.661219    1.843973    0.183853
     17          6           0        2.768080    3.368937    0.154509
     18          1           0        4.660695    1.494150    0.909506
     19          1           0        4.517548    1.469909   -0.845499
     20          1           0        2.167768    1.525728    1.111129
     21          1           0        2.025599    1.501938   -0.642958
     22          1           0        3.237251    3.704406   -0.776050
     23          1           0        3.380227    3.728331    0.988003
     24          1           0        1.783786    3.841846    0.227872
     25          6           0        3.931611   -0.370780    0.110925
     26          6           0        5.292366   -1.060811    0.009994
     27          6           0        5.185505   -2.585775    0.039339
     28          1           0        3.436037   -0.686748    1.039347
     29          1           0        3.292890   -0.710988   -0.715659
     30          1           0        5.927986   -0.718776    0.836804
     31          1           0        5.785817   -0.742566   -0.917282
     32          1           0        4.573358   -2.945169   -0.794156
     33          1           0        4.716335   -2.921244    0.969897
     34          1           0        6.169798   -3.058684   -0.034025
 ---------------------------------------------------------------------

 SCF Done:  E(RHF) =  -669.535590123     A.U. after   15 cycles
 E2 =    -0.2091501466D+01 EUMP2 =    -0.67162709158925D+03

 The electronic state is 1-A.
 Alpha  occ. eigenvalues --  -20.60704 -20.60699 -15.85757 -11.31103 -11.27673
 Alpha  occ. eigenvalues --  -11.27660 -11.27387 -11.26683 -11.26631 -11.22718
 Alpha  occ. eigenvalues --  -11.22472 -11.22414 -11.22325 -11.21935 -11.21867
 Alpha  occ. eigenvalues --   -1.59780  -1.39334  -1.19271  -1.09411  -1.08666
 Alpha  occ. eigenvalues --   -1.04674  -1.04454  -0.96882  -0.95505  -0.87895
 Alpha  occ. eigenvalues --   -0.86073  -0.82340  -0.80540  -0.79257  -0.77390
 Alpha  occ. eigenvalues --   -0.71975  -0.71103  -0.70371  -0.66048  -0.64920
 Alpha  occ. eigenvalues --   -0.64685  -0.62092  -0.61788  -0.60248  -0.58509
 Alpha  occ. eigenvalues --   -0.56159  -0.55158  -0.53561  -0.53307  -0.53002
 Alpha  occ. eigenvalues --   -0.52777  -0.50812  -0.48868  -0.48732  -0.48693
 Alpha  occ. eigenvalues --   -0.47559  -0.46779  -0.46683  -0.44744  -0.44719
 Alpha  occ. eigenvalues --   -0.37245  -0.36275
 Alpha virt. eigenvalues --    0.05140   0.11354   0.16634   0.19229   0.22434
 Alpha virt. eigenvalues --    0.23058   0.24939   0.25834   0.26167   0.27897
 Alpha virt. eigenvalues --    0.29442   0.30373   0.30738   0.31181   0.31773

 Mulliken charges:
               1
     1  C   -0.174844
     2  C   -0.222906
     3  C   -0.172486
     4  C    0.158752
     5  C   -0.171295
     6  C   -0.218999
     7  H    0.228414
     8  H    0.231033
     9  H    0.275467
    10  H    0.275200
    11  H    0.223207
    12  N    0.487991
    13  O   -0.460728
    14  O   -0.460670
    15  C   -0.297904
    16  C   -0.305016
    17  C   -0.476375
    18  H    0.154294
    19  H    0.152250
    20  H    0.156075
    21  H    0.142291
    22  H    0.157536
    23  H    0.159863
    24  H    0.160959
    25  C   -0.300518
    26  C   -0.300047
    27  C   -0.476483
    28  H    0.150407
    29  H    0.142640
    30  H    0.155263
    31  H    0.154244
    32  H    0.153075
    33  H    0.155372
    34  H    0.163937
 Sum of Mulliken charges =  -0.00000

 Dipole moment (field-independent basis, Debye):
    X=              5.1928    Y=             -1.5621    Z=             -0.6094  Tot=              5.4568
 Quadrupole moment (field-independent basis, Debye-Ang):
   XX=           -126.6782   YY=            -90.6348   ZZ=            -94.1678
   XY=              6.1331   XZ=              2.0068   YZ=             -1.0293

 Normal termination of Gaussian 16 at Thu May  6 09:12:23 2021.
