 Gaussian 16, Revision A.03,
 Gaussian 16:  EM64L-G16RevA.03 25-Dec-2016

 -------------
 #p 6-31g* mp2
 -------------

 ------------------------------------------------------
 Input file generated by CHIRIPA (05-May-2021 14:53:17)
 ------------------------------------------------------
 Symbolic Z-matrix:
 Charge =  0 Multiplicity = 1

                         Standard orientation:
 ---------------------------------------------------------------------
 Center     Atomic      Atomic             Coordinates (Angstroms)
 Number     Number       Type             X           Y           Z
 ---------------------------------------------------------------------
      1          6           0       -2.483020    1.167053    0.280541
      2          6           0       -1.719918    2.285060   -0.430598
      3          6           0       -1.494579    3.506728    0.460775
      4          1           0       -3.451373    1.554639    0.625524
      5          1           0       -1.927501    0.868187    1.180248
      6          1           0       -2.276014    2.580775   -1.329445
      7          1           0       -0.753349    1.894716   -0.774097
      8          1           0       -0.919830    3.232980    1.351463
      9          1           0       -2.451148    3.922937    0.792960
     10          1           0       -0.947331    4.293689   -0.067497
     11          6           0       -2.716055   -0.061032   -0.597657
     12          6           0       -3.479157   -1.179039    0.113482
     13          6           0       -3.704495   -2.400707   -0.777891
     14          1           0       -3.271574    0.237834   -1.497364
     15          1           0       -1.747701   -0.448618   -0.942640
     16          1           0       -4.445726   -0.788694    0.456981
     17          1           0       -2.923060   -1.474754    1.012329
     18          1           0       -2.747927   -2.816916   -1.110076
     19          1           0       -4.279244   -2.126959   -1.668579
     20          1           0       -4.251744   -3.187668   -0.249619
     21          6           0        1.122965   -0.928120    2.425069
     22          6           0        2.307003   -0.197237    2.282290
     23          6           0        2.819307    0.083512    1.012144
     24          6           0        2.118663   -0.384080   -0.098597
     25          6           0        0.936544   -1.114746    0.010996
     26          6           0        0.442714   -1.383739    1.290966
     27          1           0        0.732171   -1.141646    3.415565
     28          1           0        2.837412    0.157864    3.161275
     29          1           0        3.733801    0.647158    0.872790
     30          1           0        0.430116   -1.455429   -0.883925
     31          1           0       -0.477051   -1.951580    1.398829
     32          7           0        2.651237   -0.093087   -1.448445
     33          8           0        2.015134   -0.516266   -2.411217
     34          8           0        3.694688    0.552663   -1.518124
 ---------------------------------------------------------------------

 SCF Done:  E(RHF) =  -669.534656662     A.U. after   15 cycles
 E2 =    -0.2094713959D+01 EUMP2 =    -0.67162937062088D+03

 The electronic state is 1-A.
 Alpha  occ. eigenvalues --  -20.60846 -20.60841 -15.85901 -11.31300 -11.27865
 Alpha  occ. eigenvalues --  -11.27855 -11.27606 -11.26876 -11.26865 -11.22291
 Alpha  occ. eigenvalues --  -11.21814 -11.21694 -11.21683 -11.21618 -11.21153
 Alpha  occ. eigenvalues --   -1.59921  -1.39473  -1.19476  -1.08875  -1.08805
 Alpha  occ. eigenvalues --   -1.04881  -1.03899  -0.96339  -0.95690  -0.87358
 Alpha  occ. eigenvalues --   -0.86278  -0.82522  -0.79983  -0.78597  -0.77572
 Alpha  occ. eigenvalues --   -0.72116  -0.71248  -0.70587  -0.65589  -0.65098
 Alpha  occ. eigenvalues --   -0.64865  -0.62248  -0.61241  -0.59720  -0.57933
 Alpha  occ. eigenvalues --   -0.55671  -0.55363  -0.53182  -0.53089  -0.52958
 Alpha  occ. eigenvalues --   -0.52711  -0.50300  -0.48881  -0.48872  -0.48280
 Alpha  occ. eigenvalues --   -0.47033  -0.46122  -0.46040  -0.44865  -0.44137
 Alpha  occ. eigenvalues --   -0.37433  -0.36424
 Alpha virt. eigenvalues --    0.04940   0.11034   0.16342   0.19088   0.23171
 Alpha virt. eigenvalues --    0.23701   0.25192   0.25761   0.27725   0.28515
 Alpha virt. eigenvalues --    0.29199   0.30099   0.31337   0.31387   0.32157

 Mulliken charges:
               1
     1  C   -0.299002
     2  C   -0.300288
     3  C   -0.476171
     4  H    0.149428
     5  H    0.147606
     6  H    0.154111
     7  H    0.155068
     8  H    0.153262
     9  H    0.154190
    10  H    0.163144
    11  C   -0.301663
    12  C   -0.302738
    13  C   -0.475570
    14  H    0.154924
    15  H    0.147811
    16  H    0.156378
    17  H    0.141237
    18  H    0.150674
    19  H    0.161028
    20  H    0.161263
    21  C   -0.172836
    22  C   -0.218201
    23  C   -0.170953
    24  C    0.158411
    25  C   -0.173679
    26  C   -0.219250
    27  H    0.226479
    28  H    0.224051
    29  H    0.276128
    30  H    0.277303
    31  H    0.230062
    32  N    0.487811
    33  O   -0.460084
    34  O   -0.459934
 Sum of Mulliken charges =  -0.00000

 Dipole moment (field-independent basis, Debye):
    X=             -1.8698    Y=             -0.9643    Z=              4.6898  Tot=              5.1401
 Quadrupole moment (field-independent basis, Debye-Ang):
   XX=            -98.9629   YY=            -94.1375   ZZ=            -95.4530
   XY=              0.1125   XZ=             12.6812   YZ=             -1.2937

 Normal termination of Gaussian 16 at Thu May  6 10:43:38 2021.
