 Gaussian 16, Revision A.03,
 Gaussian 16:  EM64L-G16RevA.03 25-Dec-2016

 -------------
 #p 6-31g* mp2
 -------------

 ------------------------------------------------------
 Input file generated by CHIRIPA (05-May-2021 14:57:26)
 ------------------------------------------------------
 Symbolic Z-matrix:
 Charge =  0 Multiplicity = 1

                         Standard orientation:
 ---------------------------------------------------------------------
 Center     Atomic      Atomic             Coordinates (Angstroms)
 Number     Number       Type             X           Y           Z
 ---------------------------------------------------------------------
      1          6           0       -4.732325    1.328383    1.462325
      2          6           0       -5.152816    0.022481    1.189689
      3          6           0       -4.390015   -0.811922    0.367222
      4          6           0       -3.206730   -0.305611   -0.168292
      5          6           0       -2.761156    0.990828    0.084689
      6          6           0       -3.539940    1.807544    0.909928
      7          1           0       -5.331096    1.969697    2.102314
      8          1           0       -6.078402   -0.352315    1.617314
      9          1           0       -4.692048   -1.827022    0.139698
     10          1           0       -1.833888    1.336268   -0.356064
     11          1           0       -3.210918    2.821293    1.119935
     12          7           0       -2.390727   -1.179594   -1.040469
     13          8           0       -1.352133   -0.709745   -1.500037
     14          8           0       -2.805187   -2.317922   -1.247998
     15          6           0        4.566552   -1.614241    1.332591
     16          6           0        5.115965   -0.334199    1.205486
     17          6           0        4.445839    0.657553    0.483055
     18          6           0        3.222756    0.333247   -0.101910
     19          6           0        2.649474   -0.932779    0.006787
     20          6           0        3.337226   -1.908927    0.733890
     21          1           0        5.093968   -2.378597    1.895608
     22          1           0        6.070516   -0.102502    1.669378
     23          1           0        4.848334    1.656736    0.368825
     24          1           0        1.696251   -1.133823   -0.466885
     25          1           0        2.908151   -2.902164    0.830943
     26          7           0        2.503994    1.374910   -0.869189
     27          8           0        1.427875    1.063933   -1.375054
     28          8           0        3.030356    2.482619   -0.950189
 ---------------------------------------------------------------------

 SCF Done:  E(RHF) =  -868.338843880     A.U. after   16 cycles
 E2 =    -0.2599740808D+01 EUMP2 =    -0.87093858468834D+03

 The electronic state is 1-A.
 Alpha  occ. eigenvalues --  -20.60445 -20.60393 -20.60278 -20.60227 -15.85442
 Alpha  occ. eigenvalues --  -15.85286 -11.30769 -11.30635 -11.27406 -11.27284
 Alpha  occ. eigenvalues --  -11.27224 -11.27131 -11.27078 -11.27016 -11.26410
 Alpha  occ. eigenvalues --  -11.26314 -11.26296 -11.26190  -1.59504  -1.59341
 Alpha  occ. eigenvalues --   -1.39045  -1.38878  -1.18958  -1.18829  -1.08374
 Alpha  occ. eigenvalues --   -1.08243  -1.04343  -1.04218  -0.95209  -0.95056
 Alpha  occ. eigenvalues --   -0.85744  -0.85618  -0.82047  -0.81849  -0.77110
 Alpha  occ. eigenvalues --   -0.76855  -0.71764  -0.71364  -0.70830  -0.70670
 Alpha  occ. eigenvalues --   -0.70056  -0.69929  -0.64610  -0.64467  -0.64344
 Alpha  occ. eigenvalues --   -0.64219  -0.61662  -0.61532  -0.54873  -0.54751
 Alpha  occ. eigenvalues --   -0.52700  -0.52577  -0.52423  -0.52296  -0.48485
 Alpha  occ. eigenvalues --   -0.48432  -0.48285  -0.48193  -0.44467  -0.44272
 Alpha  occ. eigenvalues --   -0.36969  -0.36847  -0.35952  -0.35830
 Alpha virt. eigenvalues --    0.05393   0.05578   0.11698   0.11820   0.16862
 Alpha virt. eigenvalues --    0.17027   0.21782   0.22056   0.27782   0.27901
 Alpha virt. eigenvalues --    0.28522   0.29116   0.31234   0.31595   0.32738

 Mulliken charges:
               1
     1  C   -0.170831
     2  C   -0.219400
     3  C   -0.171773
     4  C    0.155086
     5  C   -0.175556
     6  C   -0.220060
     7  H    0.224224
     8  H    0.221396
     9  H    0.273370
    10  H    0.291681
    11  H    0.225167
    12  N    0.487123
    13  O   -0.453374
    14  O   -0.465918
    15  C   -0.170916
    16  C   -0.219536
    17  C   -0.171781
    18  C    0.154905
    19  C   -0.176921
    20  C   -0.220532
    21  H    0.223699
    22  H    0.220942
    23  H    0.273152
    24  H    0.293638
    25  H    0.225023
    26  N    0.487112
    27  O   -0.453489
    28  O   -0.466432
 Sum of Mulliken charges =  -0.00000

 Dipole moment (field-independent basis, Debye):
    X=             -0.4006    Y=             -0.5650    Z=              5.6209  Tot=              5.6634
 Quadrupole moment (field-independent basis, Debye-Ang):
   XX=            -67.5908   YY=           -105.3210   ZZ=           -107.7391
   XY=            -15.3283   XZ=             -0.6420   YZ=              0.0525

 Normal termination of Gaussian 16 at Wed May  5 21:12:15 2021.
