 Gaussian 16, Revision A.03,
 Gaussian 16:  EM64L-G16RevA.03 25-Dec-2016

 -------------
 #p 6-31g* mp2
 -------------

 ------------------------------------------------------
 Input file generated by CHIRIPA (05-May-2021 14:51:07)
 ------------------------------------------------------
 Symbolic Z-matrix:
 Charge =  0 Multiplicity = 1

                         Standard orientation:
 ---------------------------------------------------------------------
 Center     Atomic      Atomic             Coordinates (Angstroms)
 Number     Number       Type             X           Y           Z
 ---------------------------------------------------------------------
      1          6           0       -3.647953    0.512640    0.278504
      2          6           0       -3.485487    1.774754   -0.569232
      3          6           0       -4.350862    2.934326   -0.074952
      4          1           0       -4.704233    0.210624    0.276348
      5          1           0       -3.391235    0.744339    1.321484
      6          1           0       -3.741104    1.540400   -1.610556
      7          1           0       -2.429439    2.073691   -0.565215
      8          1           0       -4.091467    3.196473    0.955871
      9          1           0       -5.410584    2.660152   -0.095410
     10          1           0       -4.219186    3.826369   -0.695258
     11          6           0       -2.789195   -0.655373   -0.203168
     12          6           0       -2.951661   -1.917488    0.644568
     13          6           0       -2.086287   -3.077060    0.150287
     14          1           0       -3.045913   -0.887073   -1.246148
     15          1           0       -1.732915   -0.353358   -0.201012
     16          1           0       -4.007709   -2.216425    0.640550
     17          1           0       -2.696044   -1.683134    1.685892
     18          1           0       -1.026564   -2.802886    0.170746
     19          1           0       -2.345681   -3.339207   -0.880535
     20          1           0       -2.217962   -3.969103    0.770594
     21          6           0        2.786240   -0.489378   -0.324170
     22          6           0        3.235537   -1.884432    0.111653
     23          6           0        2.360845   -2.995662   -0.469615
     24          1           0        1.742660   -0.334767   -0.017601
     25          1           0        2.801296   -0.433048   -1.421436
     26          1           0        3.220963   -1.937674    1.207814
     27          1           0        4.278229   -2.035667   -0.195820
     28          1           0        2.383551   -2.971186   -1.563913
     29          1           0        1.320279   -2.872635   -0.152304
     30          1           0        2.699781   -3.984496   -0.145283
     31          6           0        3.650909    0.632112    0.248834
     32          6           0        3.201611    2.027165   -0.186989
     33          6           0        4.076303    3.138396    0.394280
     34          1           0        3.635852    0.575782    1.346101
     35          1           0        4.694488    0.477501   -0.057734
     36          1           0        2.158919    2.178401    0.120484
     37          1           0        3.216184    2.080407   -1.283150
     38          1           0        5.116869    3.015369    0.076968
     39          1           0        4.053596    3.113919    1.488577
     40          1           0        3.737368    4.127230    0.069947
 ---------------------------------------------------------------------

 SCF Done:  E(RHF) =  -470.733352160     A.U. after   11 cycles
 E2 =    -0.1582660208D+01 EUMP2 =    -0.47231601236834D+03

 The electronic state is 1-A.
 Alpha  occ. eigenvalues --  -11.21629 -11.21617 -11.21615 -11.21610 -11.21437
 Alpha  occ. eigenvalues --  -11.21422 -11.21377 -11.21362 -11.21092 -11.21078
 Alpha  occ. eigenvalues --  -11.21070 -11.21052  -1.08457  -1.08443  -1.03558
 Alpha  occ. eigenvalues --   -1.03531  -0.96020  -0.95968  -0.87051  -0.86969
 Alpha  occ. eigenvalues --   -0.79652  -0.79561  -0.78287  -0.78236  -0.65128
 Alpha  occ. eigenvalues --   -0.65039  -0.61050  -0.60852  -0.59375  -0.59344
 Alpha  occ. eigenvalues --   -0.57683  -0.57538  -0.55459  -0.55129  -0.52697
 Alpha  occ. eigenvalues --   -0.52674  -0.52547  -0.52292  -0.50126  -0.49747
 Alpha  occ. eigenvalues --   -0.48046  -0.47807  -0.46772  -0.46500  -0.45926
 Alpha  occ. eigenvalues --   -0.45763  -0.45753  -0.45569  -0.43805  -0.43795
 Alpha virt. eigenvalues --    0.20811   0.23256   0.23405   0.24845   0.25443
 Alpha virt. eigenvalues --    0.26546   0.27010   0.27159   0.28559   0.29048
 Alpha virt. eigenvalues --    0.30118   0.31713   0.31734   0.31903   0.31985

 Mulliken charges:
               1
     1  C   -0.298326
     2  C   -0.299648
     3  C   -0.475717
     4  H    0.149801
     5  H    0.149332
     6  H    0.152086
     7  H    0.151949
     8  H    0.155101
     9  H    0.155206
    10  H    0.160343
    11  C   -0.298822
    12  C   -0.299325
    13  C   -0.482820
    14  H    0.149941
    15  H    0.149514
    16  H    0.152138
    17  H    0.151570
    18  H    0.161344
    19  H    0.155834
    20  H    0.160578
    21  C   -0.298637
    22  C   -0.299352
    23  C   -0.483172
    24  H    0.148661
    25  H    0.150005
    26  H    0.151751
    27  H    0.152125
    28  H    0.155548
    29  H    0.162121
    30  H    0.160655
    31  C   -0.298337
    32  C   -0.299533
    33  C   -0.475732
    34  H    0.149498
    35  H    0.149931
    36  H    0.151421
    37  H    0.152156
    38  H    0.155298
    39  H    0.155168
    40  H    0.160345
 Sum of Mulliken charges =  -0.00000

 Dipole moment (field-independent basis, Debye):
    X=              0.0011    Y=             -0.0100    Z=             -0.0143  Tot=              0.0175
 Quadrupole moment (field-independent basis, Debye-Ang):
   XX=            -84.3564   YY=            -86.3541   ZZ=            -83.9085
   XY=              0.2543   XZ=             -0.0829   YZ=             -0.2796

 Normal termination of Gaussian 16 at Wed May  5 18:04:49 2021.
