 Gaussian 16, Revision A.03,
 Gaussian 16:  EM64L-G16RevA.03 25-Dec-2016

 -------------
 #p 6-31g* mp2
 -------------

 ------------------------------------------------------
 Input file generated by CHIRIPA (05-May-2021 14:53:12)
 ------------------------------------------------------
 Symbolic Z-matrix:
 Charge =  0 Multiplicity = 1

                         Standard orientation:
 ---------------------------------------------------------------------
 Center     Atomic      Atomic             Coordinates (Angstroms)
 Number     Number       Type             X           Y           Z
 ---------------------------------------------------------------------
      1          6           0       -3.639803   -0.608208   -0.255452
      2          6           0       -4.959019   -0.914922    0.454182
      3          6           0       -5.297248   -2.406027    0.454688
      4          1           0       -3.693703   -0.973773   -1.290055
      5          1           0       -2.830205   -1.168613    0.232289
      6          1           0       -5.765670   -0.353031   -0.033885
      7          1           0       -4.902042   -0.548413    1.487159
      8          1           0       -4.512742   -2.978829    0.959712
      9          1           0       -5.381277   -2.782336   -0.569974
     10          1           0       -6.244159   -2.602728    0.967064
     11          6           0       -3.287988    0.878358   -0.264254
     12          6           0       -1.968772    1.185072   -0.973889
     13          6           0       -1.630543    2.676177   -0.974394
     14          1           0       -4.097587    1.438763   -0.751995
     15          1           0       -3.234088    1.243922    0.770348
     16          1           0       -2.025749    0.818563   -2.006866
     17          1           0       -1.162121    0.623181   -0.485822
     18          1           0       -1.546514    3.052486    0.050267
     19          1           0       -2.415049    3.248979   -1.479418
     20          1           0       -0.683632    2.872878   -1.486770
     21          6           0        1.636420    1.780078    1.493767
     22          6           0        1.796773    1.882969    0.108046
     23          6           0        2.388153    0.844386   -0.617325
     24          6           0        2.809588   -0.287821    0.078224
     25          6           0        2.663730   -0.420082    1.458270
     26          6           0        2.069647    0.630907    2.163276
     27          1           0        1.175972    2.591693    2.049343
     28          1           0        1.461267    2.774252   -0.414539
     29          1           0        2.524563    0.897791   -1.690619
     30          1           0        3.008120   -1.320974    1.951430
     31          1           0        1.946401    0.548250    3.239390
     32          7           0        3.437086   -1.393888   -0.678914
     33          8           0        3.799979   -2.380882   -0.042682
     34          8           0        3.554144   -1.252889   -1.894255
 ---------------------------------------------------------------------

 SCF Done:  E(RHF) =  -669.535000813     A.U. after   15 cycles
 E2 =    -0.2092475847D+01 EUMP2 =    -0.67162747665979D+03

 The electronic state is 1-A.
 Alpha  occ. eigenvalues --  -20.60785 -20.60780 -15.85838 -11.31222 -11.27780
 Alpha  occ. eigenvalues --  -11.27774 -11.27524 -11.26812 -11.26766 -11.22017
 Alpha  occ. eigenvalues --  -11.21870 -11.21825 -11.21768 -11.21620 -11.21218
 Alpha  occ. eigenvalues --   -1.59860  -1.39413  -1.19394  -1.08809  -1.08748
 Alpha  occ. eigenvalues --   -1.04803  -1.03909  -0.96396  -0.95615  -0.87424
 Alpha  occ. eigenvalues --   -0.86182  -0.82448  -0.79972  -0.78557  -0.77495
 Alpha  occ. eigenvalues --   -0.72056  -0.71183  -0.70494  -0.65417  -0.65042
 Alpha  occ. eigenvalues --   -0.64823  -0.62198  -0.61300  -0.59767  -0.57991
 Alpha  occ. eigenvalues --   -0.55695  -0.55292  -0.53299  -0.53088  -0.52879
 Alpha  occ. eigenvalues --   -0.52606  -0.50318  -0.48816  -0.48810  -0.48283
 Alpha  occ. eigenvalues --   -0.46978  -0.46110  -0.46010  -0.44815  -0.44163
 Alpha  occ. eigenvalues --   -0.37361  -0.36366
 Alpha virt. eigenvalues --    0.05025   0.11212   0.16468   0.20442   0.22729
 Alpha virt. eigenvalues --    0.24114   0.26011   0.26278   0.26891   0.27782
 Alpha virt. eigenvalues --    0.29072   0.29662   0.31131   0.31646   0.32423

 Mulliken charges:
               1
     1  C   -0.298878
     2  C   -0.299784
     3  C   -0.475943
     4  H    0.151768
     5  H    0.150820
     6  H    0.152117
     7  H    0.150642
     8  H    0.155903
     9  H    0.156530
    10  H    0.160531
    11  C   -0.298186
    12  C   -0.303296
    13  C   -0.474742
    14  H    0.149999
    15  H    0.147044
    16  H    0.154695
    17  H    0.158106
    18  H    0.148825
    19  H    0.158856
    20  H    0.151689
    21  C   -0.173176
    22  C   -0.214591
    23  C   -0.172800
    24  C    0.158673
    25  C   -0.171409
    26  C   -0.218678
    27  H    0.225986
    28  H    0.227042
    29  H    0.275662
    30  H    0.275628
    31  H    0.223442
    32  N    0.488115
    33  O   -0.460415
    34  O   -0.460177
 Sum of Mulliken charges =  -0.00000

 Dipole moment (field-independent basis, Debye):
    X=             -2.2555    Y=              3.8260    Z=              2.6538  Tot=              5.1738
 Quadrupole moment (field-independent basis, Debye-Ang):
   XX=           -107.7085   YY=            -97.4357   ZZ=            -90.1216
   XY=             11.0607   XZ=              8.5168   YZ=             -2.9334

 Normal termination of Gaussian 16 at Thu May  6 08:52:25 2021.
