 Gaussian 16, Revision A.03,
 Gaussian 16:  EM64L-G16RevA.03 25-Dec-2016

 -------------
 #p 6-31g* mp2
 -------------

 ------------------------------------------------------
 Input file generated by CHIRIPA (05-May-2021 14:57:27)
 ------------------------------------------------------
 Symbolic Z-matrix:
 Charge =  0 Multiplicity = 1

                         Standard orientation:
 ---------------------------------------------------------------------
 Center     Atomic      Atomic             Coordinates (Angstroms)
 Number     Number       Type             X           Y           Z
 ---------------------------------------------------------------------
      1          6           0       -2.408422    2.109376    0.884454
      2          6           0       -3.254784    2.058476   -0.228022
      3          6           0       -3.764184    0.836502   -0.677287
      4          6           0       -3.405000   -0.320280    0.012736
      5          6           0       -2.563915   -0.302187    1.124284
      6          6           0       -2.066292    0.930960    1.555872
      7          1           0       -2.017283    3.062975    1.226588
      8          1           0       -3.522181    2.972049   -0.751403
      9          1           0       -4.421320    0.768314   -1.535739
     10          1           0       -2.315206   -1.229745    1.625480
     11          1           0       -1.409197    0.967473    2.420128
     12          7           0       -3.938045   -1.619844   -0.453524
     13          8           0       -3.606537   -2.624733    0.171725
     14          8           0       -4.677260   -1.608944   -1.435400
     15          6           0        1.756670    2.067517   -0.378825
     16          6           0        2.694582    1.766798   -1.372007
     17          6           0        3.564222    0.682417   -1.222378
     18          6           0        3.468009   -0.083526   -0.061618
     19          6           0        2.544266    0.190680    0.945754
     20          6           0        1.684632    1.279887    0.774853
     21          1           0        1.084999    2.911765   -0.503323
     22          1           0        2.752787    2.376744   -2.269015
     23          1           0        4.299783    0.427193   -1.975524
     24          1           0        2.510064   -0.435658    1.828901
     25          1           0        0.957229    1.511079    1.547820
     26          7           0        4.383362   -1.234066    0.108047
     27          8           0        4.278487   -1.893402    1.139995
     28          8           0        5.188359   -1.454738   -0.794129
 ---------------------------------------------------------------------

 SCF Done:  E(RHF) =  -868.335995603     A.U. after   16 cycles
 E2 =    -0.2600944493D+01 EUMP2 =    -0.87093694009560D+03

 The electronic state is 1-A.
 Alpha  occ. eigenvalues --  -20.61255 -20.61247 -20.61014 -20.61008 -15.86315
 Alpha  occ. eigenvalues --  -15.86073 -11.31895 -11.31550 -11.28500 -11.28477
 Alpha  occ. eigenvalues --  -11.28376 -11.28169 -11.28110 -11.27952 -11.27659
 Alpha  occ. eigenvalues --  -11.27566 -11.27259 -11.27161  -1.60324  -1.60086
 Alpha  occ. eigenvalues --   -1.39871  -1.39637  -1.20108  -1.19743  -1.09491
 Alpha  occ. eigenvalues --   -1.09124  -1.05549  -1.05173  -0.96275  -0.95938
 Alpha  occ. eigenvalues --   -0.86974  -0.86559  -0.83105  -0.82775  -0.78105
 Alpha  occ. eigenvalues --   -0.77791  -0.72532  -0.72291  -0.71648  -0.71409
 Alpha  occ. eigenvalues --   -0.71259  -0.70871  -0.65792  -0.65709  -0.65407
 Alpha  occ. eigenvalues --   -0.65110  -0.62928  -0.62478  -0.56115  -0.55692
 Alpha  occ. eigenvalues --   -0.53933  -0.53698  -0.53448  -0.53193  -0.49309
 Alpha  occ. eigenvalues --   -0.49270  -0.49058  -0.49037  -0.45229  -0.45018
 Alpha  occ. eigenvalues --   -0.38212  -0.37687  -0.37192  -0.36655
 Alpha virt. eigenvalues --    0.04407   0.04782   0.10195   0.11068   0.15735
 Alpha virt. eigenvalues --    0.16306   0.18675   0.22042   0.24820   0.26434
 Alpha virt. eigenvalues --    0.28017   0.29028   0.29501   0.31160   0.31964

 Mulliken charges:
               1
     1  C   -0.175331
     2  C   -0.218532
     3  C   -0.169384
     4  C    0.159761
     5  C   -0.168543
     6  C   -0.219230
     7  H    0.221887
     8  H    0.224365
     9  H    0.278145
    10  H    0.279070
    11  H    0.218486
    12  N    0.487931
    13  O   -0.457138
    14  O   -0.458581
    15  C   -0.169386
    16  C   -0.218086
    17  C   -0.169887
    18  C    0.159592
    19  C   -0.171663
    20  C   -0.213071
    21  H    0.220718
    22  H    0.224259
    23  H    0.277351
    24  H    0.274651
    25  H    0.212914
    26  N    0.488180
    27  O   -0.459724
    28  O   -0.458754
 Sum of Mulliken charges =  -0.00000

 Dipole moment (field-independent basis, Debye):
    X=             -1.4454    Y=              8.4299    Z=              0.8740  Tot=              8.5974
 Quadrupole moment (field-independent basis, Debye-Ang):
   XX=           -138.1167   YY=           -108.5014   ZZ=            -98.6438
   XY=             -2.5832   XZ=             -7.5513   YZ=             -3.9873

 Normal termination of Gaussian 16 at Fri May  7 08:11:02 2021.
