 Gaussian 16, Revision A.03,
 Gaussian 16:  EM64L-G16RevA.03 25-Dec-2016

 -------------
 #p 6-31g* mp2
 -------------

 ------------------------------------------------------
 Input file generated by CHIRIPA (05-May-2021 14:51:14)
 ------------------------------------------------------
 Symbolic Z-matrix:
 Charge =  0 Multiplicity = 1

                         Standard orientation:
 ---------------------------------------------------------------------
 Center     Atomic      Atomic             Coordinates (Angstroms)
 Number     Number       Type             X           Y           Z
 ---------------------------------------------------------------------
      1          6           0       -3.842729    0.724022   -0.377823
      2          6           0       -4.907977    1.253902    0.582625
      3          6           0       -5.341289    2.683059    0.254687
      4          1           0       -2.968916    1.389293   -0.349343
      5          1           0       -4.232361    0.763577   -1.404476
      6          1           0       -4.516961    1.212067    1.607307
      7          1           0       -5.779279    0.587186    0.551997
      8          1           0       -5.756279    2.737245   -0.756969
      9          1           0       -4.486789    3.365676    0.304336
     10          1           0       -6.103246    3.041923    0.953614
     11          6           0       -3.399320   -0.703543   -0.062906
     12          6           0       -2.334072   -1.233422   -1.023353
     13          6           0       -1.900760   -2.662580   -0.695416
     14          1           0       -3.009687   -0.743097    0.963748
     15          1           0       -4.273132   -1.368814   -0.091386
     16          1           0       -1.462769   -0.566707   -0.992726
     17          1           0       -2.725087   -1.191588   -2.048035
     18          1           0       -2.755259   -3.345197   -0.745065
     19          1           0       -1.485769   -2.716765    0.316240
     20          1           0       -1.138803   -3.021444   -1.394343
     21          6           0        3.038144   -0.213890    0.670041
     22          6           0        2.407529   -1.550342    0.277350
     23          6           0        1.242794   -1.944158    1.186249
     24          1           0        3.386318   -0.271618    1.710419
     25          1           0        2.268161    0.569490    0.641129
     26          1           0        3.178779   -2.330717    0.305654
     27          1           0        2.060987   -1.489488   -0.762276
     28          1           0        0.453317   -1.186479    1.150904
     29          1           0        1.577460   -2.032489    2.224902
     30          1           0        0.806805   -2.902589    0.887620
     31          6           0        4.203905    0.193410   -0.229312
     32          6           0        4.834520    1.529863    0.163378
     33          6           0        5.999254    1.923678   -0.745521
     34          1           0        4.973888   -0.589970   -0.200400
     35          1           0        3.855731    0.251139   -1.269691
     36          1           0        5.181061    1.469008    1.203004
     37          1           0        4.063269    2.310239    0.135075
     38          1           0        5.664589    2.012009   -1.784172
     39          1           0        6.788732    1.166000   -0.710175
     40          1           0        6.435244    2.882111   -0.446891
 ---------------------------------------------------------------------

 SCF Done:  E(RHF) =  -470.732380399     A.U. after   11 cycles
 E2 =    -0.1583161114D+01 EUMP2 =    -0.47231554151376D+03

 The electronic state is 1-A.
 Alpha  occ. eigenvalues --  -11.21615 -11.21614 -11.21601 -11.21582 -11.21422
 Alpha  occ. eigenvalues --  -11.21402 -11.21362 -11.21342 -11.21081 -11.21073
 Alpha  occ. eigenvalues --  -11.21040 -11.20932  -1.08453  -1.08412  -1.03583
 Alpha  occ. eigenvalues --   -1.03468  -0.96073  -0.95879  -0.87109  -0.86883
 Alpha  occ. eigenvalues --   -0.79663  -0.79524  -0.78262  -0.78231  -0.65160
 Alpha  occ. eigenvalues --   -0.64987  -0.61182  -0.60718  -0.59415  -0.59278
 Alpha  occ. eigenvalues --   -0.57612  -0.57566  -0.55525  -0.55007  -0.52822
 Alpha  occ. eigenvalues --   -0.52602  -0.52394  -0.52311  -0.50055  -0.49712
 Alpha  occ. eigenvalues --   -0.47926  -0.47884  -0.46684  -0.46542  -0.45819
 Alpha  occ. eigenvalues --   -0.45766  -0.45720  -0.45686  -0.43804  -0.43711
 Alpha virt. eigenvalues --    0.20719   0.23127   0.23614   0.25312   0.26220
 Alpha virt. eigenvalues --    0.26686   0.26927   0.27587   0.27862   0.29337
 Alpha virt. eigenvalues --    0.30450   0.30619   0.31111   0.32365   0.32494

 Mulliken charges:
               1
     1  C   -0.298154
     2  C   -0.299663
     3  C   -0.475692
     4  H    0.149114
     5  H    0.149555
     6  H    0.151988
     7  H    0.152023
     8  H    0.155171
     9  H    0.155074
    10  H    0.160293
    11  C   -0.299033
    12  C   -0.300646
    13  C   -0.478759
    14  H    0.149812
    15  H    0.149921
    16  H    0.151453
    17  H    0.151832
    18  H    0.153862
    19  H    0.162151
    20  H    0.158907
    21  C   -0.298446
    22  C   -0.300197
    23  C   -0.479100
    24  H    0.149742
    25  H    0.149027
    26  H    0.152068
    27  H    0.152347
    28  H    0.155912
    29  H    0.154349
    30  H    0.164948
    31  C   -0.298332
    32  C   -0.299640
    33  C   -0.475716
    34  H    0.149621
    35  H    0.149699
    36  H    0.151950
    37  H    0.151837
    38  H    0.155223
    39  H    0.155221
    40  H    0.160281
 Sum of Mulliken charges =  -0.00000

 Dipole moment (field-independent basis, Debye):
    X=              0.0156    Y=             -0.0225    Z=              0.0177  Tot=              0.0326
 Quadrupole moment (field-independent basis, Debye-Ang):
   XX=            -84.7783   YY=            -85.6244   ZZ=            -84.4051
   XY=             -0.0317   XZ=              1.2516   YZ=              0.2071

 Normal termination of Gaussian 16 at Thu May  6 07:11:07 2021.
