 Gaussian 16, Revision A.03,
 Gaussian 16:  EM64L-G16RevA.03 25-Dec-2016

 -------------
 #p 6-31g* mp2
 -------------

 ------------------------------------------------------
 Input file generated by CHIRIPA (05-May-2021 14:53:17)
 ------------------------------------------------------
 Symbolic Z-matrix:
 Charge =  0 Multiplicity = 1

                         Standard orientation:
 ---------------------------------------------------------------------
 Center     Atomic      Atomic             Coordinates (Angstroms)
 Number     Number       Type             X           Y           Z
 ---------------------------------------------------------------------
      1          6           0       -3.055789    0.733581    0.358753
      2          6           0       -2.676335    2.198012    0.136393
      3          6           0       -1.471416    2.630016    0.972657
      4          1           0       -3.271357    0.574999    1.424271
      5          1           0       -2.193102    0.097647    0.116363
      6          1           0       -3.539921    2.830906    0.377807
      7          1           0       -2.461831    2.353170   -0.928750
      8          1           0       -0.594057    2.023255    0.726318
      9          1           0       -1.678272    2.503706    2.040298
     10          1           0       -1.217442    3.680219    0.798218
     11          6           0       -4.258579    0.286805   -0.470352
     12          6           0       -4.638033   -1.177625   -0.247992
     13          6           0       -5.842952   -1.609629   -1.084256
     14          1           0       -5.121266    0.922739   -0.227962
     15          1           0       -4.043011    0.445388   -1.535869
     16          1           0       -4.852537   -1.332783    0.817151
     17          1           0       -3.774447   -1.810520   -0.489406
     18          1           0       -5.636097   -1.483320   -2.151897
     19          1           0       -6.720312   -1.002869   -0.837916
     20          1           0       -6.096926   -2.659833   -0.909817
     21          6           0        1.439158   -2.182508    1.126545
     22          6           0        1.114744   -0.832355    1.294958
     23          6           0        1.893333    0.164563    0.699557
     24          6           0        2.994264   -0.226126   -0.061103
     25          6           0        3.343214   -1.562835   -0.247468
     26          6           0        2.550399   -2.542804    0.357226
     27          1           0        0.828806   -2.950353    1.592677
     28          1           0        0.252315   -0.549610    1.891883
     29          1           0        1.664884    1.217291    0.813551
     30          1           0        4.208992   -1.813778   -0.848196
     31          1           0        2.804723   -3.590566    0.224716
     32          7           0        3.826051    0.820294   -0.696346
     33          8           0        4.790851    0.450000   -1.361689
     34          8           0        3.497458    1.990959   -0.516878
 ---------------------------------------------------------------------

 SCF Done:  E(RHF) =  -669.535588008     A.U. after   15 cycles
 E2 =    -0.2091837061D+01 EUMP2 =    -0.67162742506917D+03

 The electronic state is 1-A.
 Alpha  occ. eigenvalues --  -20.60757 -20.60752 -15.85810 -11.31180 -11.27759
 Alpha  occ. eigenvalues --  -11.27729 -11.27495 -11.26775 -11.26744 -11.22096
 Alpha  occ. eigenvalues --  -11.22086 -11.21973 -11.21835 -11.21711 -11.21460
 Alpha  occ. eigenvalues --   -1.59832  -1.39385  -1.19358  -1.08946  -1.08749
 Alpha  occ. eigenvalues --   -1.04764  -1.04032  -0.96496  -0.95583  -0.87516
 Alpha  occ. eigenvalues --   -0.86153  -0.82417  -0.80105  -0.78777  -0.77456
 Alpha  occ. eigenvalues --   -0.72029  -0.71156  -0.70473  -0.65573  -0.65009
 Alpha  occ. eigenvalues --   -0.64758  -0.62184  -0.61374  -0.59844  -0.58100
 Alpha  occ. eigenvalues --   -0.55806  -0.55248  -0.53171  -0.53098  -0.52993
 Alpha  occ. eigenvalues --   -0.52762  -0.50428  -0.48789  -0.48783  -0.48416
 Alpha  occ. eigenvalues --   -0.47124  -0.46310  -0.46224  -0.44789  -0.44282
 Alpha  occ. eigenvalues --   -0.37337  -0.36350
 Alpha virt. eigenvalues --    0.05039   0.11236   0.16439   0.20278   0.22603
 Alpha virt. eigenvalues --    0.23799   0.25546   0.26372   0.26648   0.28056
 Alpha virt. eigenvalues --    0.29045   0.30263   0.31173   0.31486   0.31716

 Mulliken charges:
               1
     1  C   -0.301691
     2  C   -0.299310
     3  C   -0.481746
     4  H    0.146661
     5  H    0.148028
     6  H    0.154610
     7  H    0.156847
     8  H    0.149699
     9  H    0.153277
    10  H    0.168718
    11  C   -0.298419
    12  C   -0.299897
    13  C   -0.475934
    14  H    0.151367
    15  H    0.152439
    16  H    0.150653
    17  H    0.150141
    18  H    0.156738
    19  H    0.156426
    20  H    0.160346
    21  C   -0.171401
    22  C   -0.220643
    23  C   -0.177555
    24  C    0.159766
    25  C   -0.170859
    26  C   -0.218566
    27  H    0.225917
    28  H    0.227160
    29  H    0.280769
    30  H    0.275604
    31  H    0.223470
    32  N    0.488042
    33  O   -0.460542
    34  O   -0.460118
 Sum of Mulliken charges =  -0.00000

 Dipole moment (field-independent basis, Debye):
    X=             -3.0392    Y=             -3.6217    Z=              2.1713  Tot=              5.2027
 Quadrupole moment (field-independent basis, Debye-Ang):
   XX=           -111.0038   YY=            -90.6369   ZZ=            -94.7244
   XY=            -13.6733   XZ=              4.8718   YZ=              1.1535

 Normal termination of Gaussian 16 at Thu May  6 01:14:00 2021.
