 Gaussian 16, Revision A.03,
 Gaussian 16:  EM64L-G16RevA.03 25-Dec-2016

 -------------
 #p 6-31g* mp2
 -------------

 ------------------------------------------------------
 Input file generated by CHIRIPA (05-May-2021 14:57:24)
 ------------------------------------------------------
 Symbolic Z-matrix:
 Charge =  0 Multiplicity = 1

                         Standard orientation:
 ---------------------------------------------------------------------
 Center     Atomic      Atomic             Coordinates (Angstroms)
 Number     Number       Type             X           Y           Z
 ---------------------------------------------------------------------
      1          6           0        0.694060   -2.051765    0.425047
      2          6           0        0.839271   -1.392323   -0.799931
      3          6           0        1.917651   -0.529852   -1.018538
      4          6           0        2.836230   -0.349200    0.014354
      5          6           0        2.718950   -0.991834    1.245840
      6          6           0        1.632708   -1.849772    1.442230
      7          1           0       -0.146705   -2.719992    0.586237
      8          1           0        0.111842   -1.547288   -1.591687
      9          1           0        2.054243   -0.006641   -1.957161
     10          1           0        3.460284   -0.817282    2.016147
     11          1           0        1.522469   -2.360573    2.394582
     12          7           0        3.982025    0.561460   -0.205316
     13          8           0        4.777620    0.703666    0.720666
     14          8           0        4.062807    1.115785   -1.299315
     15          6           0       -1.646747    2.772433    0.393791
     16          6           0       -1.366780    2.106349   -0.803903
     17          6           0       -1.915696    0.846482   -1.060757
     18          6           0       -2.744128    0.279528   -0.093516
     19          6           0       -3.041915    0.918035    1.109365
     20          6           0       -2.481949    2.177200    1.344925
     21          1           0       -1.216044    3.750857    0.585050
     22          1           0       -0.718494    2.566202   -1.544380
     23          1           0       -1.715587    0.308647   -1.979511
     24          1           0       -3.691764    0.434202    1.828406
     25          1           0       -2.701117    2.692166    2.275957
     26          7           0       -3.331091   -1.053865   -0.354165
     27          8           0       -4.057896   -1.531882    0.514103
     28          8           0       -3.053231   -1.595713   -1.421794
 ---------------------------------------------------------------------

 SCF Done:  E(RHF) =  -868.338724911     A.U. after   16 cycles
 E2 =    -0.2601894721D+01 EUMP2 =    -0.87094061963133D+03

 The electronic state is 1-A.
 Alpha  occ. eigenvalues --  -20.61744 -20.61713 -20.60972 -20.60958 -15.86748
 Alpha  occ. eigenvalues --  -15.86015 -11.31805 -11.31265 -11.28405 -11.28337
 Alpha  occ. eigenvalues --  -11.27977 -11.27815 -11.27786 -11.27393 -11.27258
 Alpha  occ. eigenvalues --  -11.27248 -11.26759 -11.26696  -1.60802  -1.60047
 Alpha  occ. eigenvalues --   -1.40365  -1.39604  -1.19956  -1.19396  -1.09390
 Alpha  occ. eigenvalues --   -1.08793  -1.05329  -1.04781  -0.96283  -0.95657
 Alpha  occ. eigenvalues --   -0.86745  -0.86163  -0.83129  -0.82504  -0.78245
 Alpha  occ. eigenvalues --   -0.77580  -0.72967  -0.72242  -0.72131  -0.71372
 Alpha  occ. eigenvalues --   -0.71064  -0.70444  -0.65611  -0.65354  -0.65036
 Alpha  occ. eigenvalues --   -0.64730  -0.62738  -0.62084  -0.55796  -0.55201
 Alpha  occ. eigenvalues --   -0.53834  -0.53438  -0.52951  -0.52805  -0.49753
 Alpha  occ. eigenvalues --   -0.49691  -0.49001  -0.48975  -0.45822  -0.45037
 Alpha  occ. eigenvalues --   -0.38037  -0.37318  -0.37131  -0.35983
 Alpha virt. eigenvalues --    0.04158   0.05020   0.10266   0.11727   0.15761
 Alpha virt. eigenvalues --    0.16569   0.20050   0.21944   0.25604   0.27191
 Alpha virt. eigenvalues --    0.28257   0.28993   0.29813   0.31078   0.32148

 Mulliken charges:
               1
     1  C   -0.175646
     2  C   -0.223082
     3  C   -0.173897
     4  C    0.158557
     5  C   -0.172234
     6  C   -0.218253
     7  H    0.235273
     8  H    0.233538
     9  H    0.270339
    10  H    0.274639
    11  H    0.224410
    12  N    0.487826
    13  O   -0.460289
    14  O   -0.463342
    15  C   -0.169007
    16  C   -0.217328
    17  C   -0.169104
    18  C    0.157777
    19  C   -0.171248
    20  C   -0.218279
    21  H    0.230455
    22  H    0.227453
    23  H    0.268934
    24  H    0.275438
    25  H    0.225653
    26  N    0.486622
    27  O   -0.457410
    28  O   -0.467796
 Sum of Mulliken charges =  -0.00000

 Dipole moment (field-independent basis, Debye):
    X=             -2.1130    Y=              1.5804    Z=              1.8524  Tot=              3.2240
 Quadrupole moment (field-independent basis, Debye-Ang):
   XX=           -139.2826   YY=           -100.3652   ZZ=            -97.0813
   XY=            -20.8450   XZ=             -1.3520   YZ=             -1.3740

 Normal termination of Gaussian 16 at Thu May  6 18:01:21 2021.
