 Gaussian 16, Revision A.03,
 Gaussian 16:  EM64L-G16RevA.03 25-Dec-2016

 -------------
 #p 6-31g* mp2
 -------------

 ------------------------------------------------------
 Input file generated by CHIRIPA (05-May-2021 14:55:23)
 ------------------------------------------------------
 Symbolic Z-matrix:
 Charge =  0 Multiplicity = 1

                         Standard orientation:
 ---------------------------------------------------------------------
 Center     Atomic      Atomic             Coordinates (Angstroms)
 Number     Number       Type             X           Y           Z
 ---------------------------------------------------------------------
      1          6           0        5.489699   -1.006401    0.530584
      2          6           0        5.305197   -0.353288   -0.692495
      3          6           0        4.053972    0.165464   -1.038732
      4          6           0        3.004492    0.012589   -0.134016
      5          6           0        3.156749   -0.633025    1.092071
      6          6           0        4.416777   -1.143942    1.417401
      7          1           0        6.465100   -1.406338    0.791429
      8          1           0        6.136639   -0.245007   -1.383165
      9          1           0        3.883284    0.675581   -1.978979
     10          1           0        2.308924   -0.725528    1.759945
     11          1           0        4.557144   -1.650687    2.367954
     12          7           0        1.675216    0.557622   -0.489495
     13          8           0        0.766665    0.409907    0.324970
     14          8           0        1.567050    1.122214   -1.575853
     15          6           0       -4.175378   -0.557863   -0.290385
     16          6           0       -5.308453   -1.463355    0.193567
     17          6           0       -5.394078   -2.773363   -0.590234
     18          1           0       -4.319277   -0.339636   -1.357444
     19          1           0       -3.222441   -1.098667   -0.207685
     20          1           0       -6.258805   -0.920514    0.111277
     21          1           0       -5.161945   -1.679297    1.259645
     22          1           0       -4.461066   -3.338781   -0.498638
     23          1           0       -5.564158   -2.575688   -1.653529
     24          1           0       -6.210782   -3.405412   -0.227787
     25          6           0       -4.076968    0.755594    0.483484
     26          6           0       -2.943893    1.661086   -0.000469
     27          6           0       -2.858267    2.971093    0.783332
     28          1           0       -5.029904    1.296397    0.400784
     29          1           0       -3.933069    0.537367    1.550543
     30          1           0       -3.090401    1.877028   -1.066546
     31          1           0       -1.993541    1.118246    0.081821
     32          1           0       -2.688187    2.773419    1.846628
     33          1           0       -3.791280    3.536512    0.691736
     34          1           0       -2.041563    3.603143    0.420885
 ---------------------------------------------------------------------

 SCF Done:  E(RHF) =  -669.536435559     A.U. after   15 cycles
 E2 =    -0.2091066616D+01 EUMP2 =    -0.67162750217588D+03

 The electronic state is 1-A.
 Alpha  occ. eigenvalues --  -20.61045 -20.61026 -15.86059 -11.31352 -11.27909
 Alpha  occ. eigenvalues --  -11.27905 -11.27640 -11.26909 -11.26899 -11.20781
 Alpha  occ. eigenvalues --  -11.20406 -11.20295 -11.20118 -11.19796 -11.19656
 Alpha  occ. eigenvalues --   -1.60088  -1.39646  -1.19514  -1.08924  -1.07250
 Alpha  occ. eigenvalues --   -1.04906  -1.02340  -0.95771  -0.94856  -0.86308
 Alpha  occ. eigenvalues --   -0.85885  -0.82607  -0.78437  -0.77663  -0.76984
 Alpha  occ. eigenvalues --   -0.72278  -0.71398  -0.70623  -0.65171  -0.64909
 Alpha  occ. eigenvalues --   -0.63885  -0.62253  -0.59736  -0.58250  -0.56425
 Alpha  occ. eigenvalues --   -0.55410  -0.54168  -0.53239  -0.52997  -0.51572
 Alpha  occ. eigenvalues --   -0.51274  -0.49126  -0.49027  -0.48792  -0.46733
 Alpha  occ. eigenvalues --   -0.45450  -0.45067  -0.44565  -0.44326  -0.42606
 Alpha  occ. eigenvalues --   -0.37492  -0.36505
 Alpha virt. eigenvalues --    0.04870   0.11150   0.16377   0.21286   0.23966
 Alpha virt. eigenvalues --    0.25474   0.27208   0.27793   0.28170   0.28758
 Alpha virt. eigenvalues --    0.29089   0.30859   0.32354   0.32529   0.32895

 Mulliken charges:
               1
     1  C   -0.170473
     2  C   -0.218595
     3  C   -0.170458
     4  C    0.157580
     5  C   -0.170755
     6  C   -0.218528
     7  H    0.226206
     8  H    0.224033
     9  H    0.276039
    10  H    0.275666
    11  H    0.223999
    12  N    0.490207
    13  O   -0.461157
    14  O   -0.458043
    15  C   -0.297976
    16  C   -0.298628
    17  C   -0.474868
    18  H    0.148448
    19  H    0.153265
    20  H    0.149840
    21  H    0.149684
    22  H    0.154095
    23  H    0.154464
    24  H    0.156988
    25  C   -0.297056
    26  C   -0.312095
    27  C   -0.473662
    28  H    0.143685
    29  H    0.145821
    30  H    0.147992
    31  H    0.184187
    32  H    0.150716
    33  H    0.147437
    34  H    0.161941
 Sum of Mulliken charges =  -0.00000

 Dipole moment (field-independent basis, Debye):
    X=              5.1353    Y=             -1.9517    Z=              1.1928  Tot=              5.6217
 Quadrupole moment (field-independent basis, Debye-Ang):
   XX=            -67.6257   YY=            -96.4486   ZZ=            -91.3528
   XY=             -5.5257   XZ=              1.8667   YZ=             -2.3991

 Normal termination of Gaussian 16 at Thu May  6 12:38:06 2021.
