 Gaussian 16, Revision A.03,
 Gaussian 16:  EM64L-G16RevA.03 25-Dec-2016

 -------------
 #p 6-31g* mp2
 -------------

 ------------------------------------------------------
 Input file generated by CHIRIPA (05-May-2021 14:51:12)
 ------------------------------------------------------
 Symbolic Z-matrix:
 Charge =  0 Multiplicity = 1

                         Standard orientation:
 ---------------------------------------------------------------------
 Center     Atomic      Atomic             Coordinates (Angstroms)
 Number     Number       Type             X           Y           Z
 ---------------------------------------------------------------------
      1          6           0        2.071995   -1.292095   -0.022890
      2          6           0        1.462319   -1.753697    1.301196
      3          6           0        0.309596   -2.739706    1.109342
      4          1           0        1.288858   -0.827709   -0.637697
      5          1           0        2.427796   -2.169595   -0.580380
      6          1           0        1.109024   -0.875470    1.856638
      7          1           0        2.247039   -2.216866    1.913001
      8          1           0        0.651485   -3.633199    0.577005
      9          1           0       -0.492996   -2.284181    0.520322
     10          1           0       -0.111474   -3.056629    2.068571
     11          6           0        3.225566   -0.306061    0.152433
     12          6           0        3.835241    0.155540   -1.171654
     13          6           0        4.987965    1.141550   -0.979800
     14          1           0        2.869765    0.571439    0.709923
     15          1           0        4.008702   -0.770448    0.767240
     16          1           0        3.050522    0.618710   -1.783458
     17          1           0        4.188537   -0.722687   -1.727096
     18          1           0        5.790556    0.686025   -0.390780
     19          1           0        4.646075    2.035043   -0.447463
     20          1           0        5.409035    1.458472   -1.939028
     21          6           0       -2.866983    0.067891   -0.030348
     22          6           0       -3.924827   -0.298883   -1.071707
     23          6           0       -4.351184   -1.764958   -0.990238
     24          1           0       -1.989158   -0.578774   -0.165231
     25          1           0       -3.260928   -0.145149    0.973054
     26          1           0       -3.529521   -0.083919   -2.072777
     27          1           0       -4.800159    0.348859   -0.934452
     28          1           0       -4.770333   -1.990037   -0.004207
     29          1           0       -3.492475   -2.425273   -1.149000
     30          1           0       -5.107910   -2.005441   -1.743493
     31          6           0       -2.430578    1.530265   -0.099194
     32          6           0       -1.372734    1.897040    0.942164
     33          6           0       -0.946377    3.363115    0.860695
     34          1           0       -2.036633    1.743305   -1.102597
     35          1           0       -3.308402    2.176930    0.035688
     36          1           0       -0.497401    1.249298    0.804909
     37          1           0       -1.768039    1.682076    1.943233
     38          1           0       -1.805085    4.023430    1.019457
     39          1           0       -0.527228    3.588193   -0.125335
     40          1           0       -0.189650    3.603597    1.613950
 ---------------------------------------------------------------------

 SCF Done:  E(RHF) =  -470.733258861     A.U. after   11 cycles
 E2 =    -0.1583795211D+01 EUMP2 =    -0.47231705407250D+03

 The electronic state is 1-A.
 Alpha  occ. eigenvalues --  -11.21676 -11.21632 -11.21625 -11.21599 -11.21458
 Alpha  occ. eigenvalues --  -11.21438 -11.21396 -11.21377 -11.21136 -11.21084
 Alpha  occ. eigenvalues --  -11.21081 -11.21037  -1.08499  -1.08441  -1.03578
 Alpha  occ. eigenvalues --   -1.03540  -0.96032  -0.95982  -0.87055  -0.86992
 Alpha  occ. eigenvalues --   -0.79671  -0.79574  -0.78323  -0.78251  -0.65294
 Alpha  occ. eigenvalues --   -0.64930  -0.60979  -0.60938  -0.59401  -0.59351
 Alpha  occ. eigenvalues --   -0.57660  -0.57582  -0.55403  -0.55201  -0.52717
 Alpha  occ. eigenvalues --   -0.52675  -0.52490  -0.52382  -0.50086  -0.49837
 Alpha  occ. eigenvalues --   -0.47974  -0.47941  -0.46790  -0.46552  -0.46030
 Alpha  occ. eigenvalues --   -0.45795  -0.45721  -0.45444  -0.43833  -0.43797
 Alpha virt. eigenvalues --    0.19178   0.22719   0.23816   0.24301   0.25835
 Alpha virt. eigenvalues --    0.26660   0.27151   0.27492   0.28120   0.29458
 Alpha virt. eigenvalues --    0.31116   0.31513   0.31753   0.31833   0.32327

 Mulliken charges:
               1
     1  C   -0.299492
     2  C   -0.301752
     3  C   -0.481789
     4  H    0.149003
     5  H    0.149874
     6  H    0.154383
     7  H    0.152159
     8  H    0.154859
     9  H    0.160792
    10  H    0.160660
    11  C   -0.298925
    12  C   -0.299521
    13  C   -0.475781
    14  H    0.149927
    15  H    0.149997
    16  H    0.151603
    17  H    0.151981
    18  H    0.155244
    19  H    0.155416
    20  H    0.160290
    21  C   -0.306424
    22  C   -0.299171
    23  C   -0.476284
    24  H    0.156862
    25  H    0.150001
    26  H    0.151782
    27  H    0.152140
    28  H    0.155460
    29  H    0.155711
    30  H    0.160428
    31  C   -0.297559
    32  C   -0.304432
    33  C   -0.475646
    34  H    0.149223
    35  H    0.150163
    36  H    0.155421
    37  H    0.152400
    38  H    0.155672
    39  H    0.155120
    40  H    0.160206
 Sum of Mulliken charges =  -0.00000

 Dipole moment (field-independent basis, Debye):
    X=             -0.0202    Y=              0.0052    Z=              0.0110  Tot=              0.0236
 Quadrupole moment (field-independent basis, Debye-Ang):
   XX=            -84.5693   YY=            -85.6989   ZZ=            -84.3409
   XY=             -1.7438   XZ=             -0.4862   YZ=              0.1007

 Normal termination of Gaussian 16 at Thu May  6 03:55:55 2021.
