 Gaussian 16, Revision A.03,
 Gaussian 16:  EM64L-G16RevA.03 25-Dec-2016

 -------------
 #p 6-31g* mp2
 -------------

 ------------------------------------------------------
 Input file generated by CHIRIPA (05-May-2021 14:55:25)
 ------------------------------------------------------
 Symbolic Z-matrix:
 Charge =  0 Multiplicity = 1

                         Standard orientation:
 ---------------------------------------------------------------------
 Center     Atomic      Atomic             Coordinates (Angstroms)
 Number     Number       Type             X           Y           Z
 ---------------------------------------------------------------------
      1          6           0       -0.850016    1.831024    0.680531
      2          6           0       -1.080112    0.627420    1.355004
      3          6           0       -2.196458   -0.156260    1.048136
      4          6           0       -3.066032    0.295911    0.056838
      5          6           0       -2.864038    1.490395   -0.632870
      6          6           0       -1.741142    2.257917   -0.309508
      7          1           0        0.019732    2.433529    0.925319
      8          1           0       -0.389742    0.293405    2.124334
      9          1           0       -2.398641   -1.092194    1.554661
     10          1           0       -3.570045    1.797194   -1.395003
     11          1           0       -1.564968    3.192218   -0.834951
     12          7           0       -4.251324   -0.525182   -0.276760
     13          8           0       -5.002382   -0.104731   -1.154125
     14          8           0       -4.406855   -1.573660    0.345448
     15          6           0        3.118749   -0.942789   -0.492235
     16          6           0        1.931168   -1.253549    0.419394
     17          6           0        0.827596   -2.035788   -0.293365
     18          1           0        2.765704   -0.371797   -1.361874
     19          1           0        3.528945   -1.884598   -0.882271
     20          1           0        1.524197   -0.311511    0.808691
     21          1           0        2.287112   -1.823702    1.287061
     22          1           0        1.211968   -2.990223   -0.667414
     23          1           0        0.444718   -1.469440   -1.148500
     24          1           0       -0.011561   -2.247180    0.376701
     25          6           0        4.230196   -0.161180    0.205978
     26          6           0        5.417777    0.149581   -0.705649
     27          6           0        6.521348    0.931820    0.007110
     28          1           0        3.819999    0.780630    0.596016
     29          1           0        4.583241   -0.732170    1.075618
     30          1           0        5.061832    0.719734   -1.573317
     31          1           0        5.824748   -0.792458   -1.094948
     32          1           0        6.904227    0.365472    0.862244
     33          1           0        6.136977    1.886255    0.381157
     34          1           0        7.360506    1.143212   -0.662957
 ---------------------------------------------------------------------

 SCF Done:  E(RHF) =  -669.533876448     A.U. after   15 cycles
 E2 =    -0.2093857098D+01 EUMP2 =    -0.67162773354652D+03

 The electronic state is 1-A.
 Alpha  occ. eigenvalues --  -20.60782 -20.60776 -15.85835 -11.31221 -11.27778
 Alpha  occ. eigenvalues --  -11.27773 -11.27530 -11.26815 -11.26777 -11.22175
 Alpha  occ. eigenvalues --  -11.22095 -11.21975 -11.21893 -11.21532 -11.21433
 Alpha  occ. eigenvalues --   -1.59856  -1.39409  -1.19399  -1.08984  -1.08783
 Alpha  occ. eigenvalues --   -1.04823  -1.04020  -0.96460  -0.95623  -0.87472
 Alpha  occ. eigenvalues --   -0.86212  -0.82454  -0.80117  -0.78813  -0.77495
 Alpha  occ. eigenvalues --   -0.72055  -0.71178  -0.70511  -0.65659  -0.65051
 Alpha  occ. eigenvalues --   -0.64805  -0.62227  -0.61402  -0.59838  -0.58097
 Alpha  occ. eigenvalues --   -0.55776  -0.55301  -0.53330  -0.52952  -0.52906
 Alpha  occ. eigenvalues --   -0.52790  -0.50383  -0.48826  -0.48808  -0.48411
 Alpha  occ. eigenvalues --   -0.47146  -0.46332  -0.46271  -0.44811  -0.44297
 Alpha  occ. eigenvalues --   -0.37346  -0.36325
 Alpha virt. eigenvalues --    0.05011   0.11140   0.16450   0.20407   0.22560
 Alpha virt. eigenvalues --    0.24023   0.25672   0.26109   0.26603   0.28421
 Alpha virt. eigenvalues --    0.28675   0.30458   0.30937   0.31307   0.32179

 Mulliken charges:
               1
     1  C   -0.172017
     2  C   -0.213337
     3  C   -0.170989
     4  C    0.158082
     5  C   -0.171529
     6  C   -0.218598
     7  H    0.225417
     8  H    0.226129
     9  H    0.275182
    10  H    0.275679
    11  H    0.223481
    12  N    0.488138
    13  O   -0.460330
    14  O   -0.460233
    15  C   -0.298078
    16  C   -0.302968
    17  C   -0.472760
    18  H    0.150286
    19  H    0.152539
    20  H    0.143466
    21  H    0.150904
    22  H    0.157612
    23  H    0.158977
    24  H    0.156511
    25  C   -0.297343
    26  C   -0.299951
    27  C   -0.475765
    28  H    0.143343
    29  H    0.150618
    30  H    0.151954
    31  H    0.154091
    32  H    0.156012
    33  H    0.153537
    34  H    0.161940
 Sum of Mulliken charges =  -0.00000

 Dipole moment (field-independent basis, Debye):
    X=              4.1925    Y=              2.8507    Z=              1.1066  Tot=              5.1892
 Quadrupole moment (field-independent basis, Debye-Ang):
   XX=           -121.0744   YY=            -90.6652   ZZ=            -92.7678
   XY=             -9.7339   XZ=             -2.6882   YZ=             -2.5599

 Normal termination of Gaussian 16 at Thu May  6 09:33:46 2021.
