 Gaussian 16, Revision A.03,
 Gaussian 16:  EM64L-G16RevA.03 25-Dec-2016

 -------------
 #p 6-31g* mp2
 -------------

 ------------------------------------------------------
 Input file generated by CHIRIPA (05-May-2021 14:57:23)
 ------------------------------------------------------
 Symbolic Z-matrix:
 Charge =  0 Multiplicity = 1

                         Standard orientation:
 ---------------------------------------------------------------------
 Center     Atomic      Atomic             Coordinates (Angstroms)
 Number     Number       Type             X           Y           Z
 ---------------------------------------------------------------------
      1          6           0        4.564182    1.037136    0.520207
      2          6           0        3.661120    1.658787   -0.348441
      3          6           0        2.520026    0.982192   -0.789656
      4          6           0        2.312202   -0.320951   -0.340303
      5          6           0        3.193337   -0.967382    0.525156
      6          6           0        4.327824   -0.271658    0.953470
      7          1           0        5.448045    1.570161    0.857943
      8          1           0        3.842120    2.675136   -0.686554
      9          1           0        1.804488    1.439572   -1.462133
     10          1           0        2.985946   -1.981348    0.844969
     11          1           0        5.027432   -0.756944    1.628074
     12          7           0        1.107674   -1.047358   -0.800569
     13          8           0        0.947343   -2.194736   -0.390138
     14          8           0        0.346704   -0.455583   -1.563041
     15          6           0       -2.562604    2.719893    0.124551
     16          6           0       -2.911967    1.949592   -0.989497
     17          6           0       -2.886825    0.553329   -0.923407
     18          6           0       -2.505708   -0.042265    0.277970
     19          6           0       -2.152102    0.697800    1.405160
     20          6           0       -2.184453    2.092644    1.316223
     21          1           0       -2.584935    3.803992    0.064336
     22          1           0       -3.206047    2.434006   -1.916268
     23          1           0       -3.152414   -0.067194   -1.770656
     24          1           0       -1.863195    0.186308    2.315285
     25          1           0       -1.912622    2.688336    2.183002
     26          7           0       -2.475275   -1.519674    0.360030
     27          8           0       -2.135924   -2.020245    1.430034
     28          8           0       -2.791348   -2.149123   -0.647209
 ---------------------------------------------------------------------

 SCF Done:  E(RHF) =  -868.336475492     A.U. after   16 cycles
 E2 =    -0.2602908231D+01 EUMP2 =    -0.87093938372281D+03

 The electronic state is 1-A.
 Alpha  occ. eigenvalues --  -20.60706 -20.60624 -20.59340 -20.59277 -15.85684
 Alpha  occ. eigenvalues --  -15.84378 -11.31156 -11.30034 -11.27770 -11.27701
 Alpha  occ. eigenvalues --  -11.27515 -11.26804 -11.26766 -11.26752 -11.26619
 Alpha  occ. eigenvalues --  -11.26599 -11.25889 -11.25783  -1.59738  -1.58347
 Alpha  occ. eigenvalues --   -1.39281  -1.37909  -1.19343  -1.18284  -1.08724
 Alpha  occ. eigenvalues --   -1.07639  -1.04760  -1.03761  -0.95538  -0.94421
 Alpha  occ. eigenvalues --   -0.86152  -0.85152  -0.82367  -0.81273  -0.77401
 Alpha  occ. eigenvalues --   -0.76235  -0.71901  -0.71188  -0.70634  -0.70452
 Alpha  occ. eigenvalues --   -0.69530  -0.69457  -0.64994  -0.64763  -0.63963
 Alpha  occ. eigenvalues --   -0.63811  -0.62101  -0.61118  -0.55263  -0.54318
 Alpha  occ. eigenvalues --   -0.53092  -0.52852  -0.52065  -0.51888  -0.48701
 Alpha  occ. eigenvalues --   -0.48637  -0.47395  -0.47337  -0.44686  -0.43210
 Alpha  occ. eigenvalues --   -0.37347  -0.36382  -0.36247  -0.35341
 Alpha virt. eigenvalues --    0.05107   0.06351   0.11285   0.12292   0.16597
 Alpha virt. eigenvalues --    0.17753   0.21407   0.22210   0.27308   0.28092
 Alpha virt. eigenvalues --    0.28321   0.29152   0.30936   0.31687   0.32577

 Mulliken charges:
               1
     1  C   -0.171278
     2  C   -0.219228
     3  C   -0.170918
     4  C    0.158585
     5  C   -0.170525
     6  C   -0.218996
     7  H    0.224916
     8  H    0.221422
     9  H    0.273656
    10  H    0.279474
    11  H    0.224053
    12  N    0.485042
    13  O   -0.447064
    14  O   -0.466762
    15  C   -0.174092
    16  C   -0.220907
    17  C   -0.153636
    18  C    0.165816
    19  C   -0.176872
    20  C   -0.220145
    21  H    0.219068
    22  H    0.219166
    23  H    0.277580
    24  H    0.271579
    25  H    0.216922
    26  N    0.492628
    27  O   -0.466111
    28  O   -0.453372
 Sum of Mulliken charges =  -0.00000

 Dipole moment (field-independent basis, Debye):
    X=              4.2424    Y=              7.2857    Z=              1.1215  Tot=              8.5051
 Quadrupole moment (field-independent basis, Debye-Ang):
   XX=            -85.5133   YY=           -104.9604   ZZ=           -101.0699
   XY=             -9.2210   XZ=              6.3122   YZ=             -2.1158

 Normal termination of Gaussian 16 at Thu May  6 14:35:57 2021.
