 Gaussian 16, Revision A.03,
 Gaussian 16:  EM64L-G16RevA.03 25-Dec-2016

 -------------
 #p 6-31g* mp2
 -------------

 ------------------------------------------------------
 Input file generated by CHIRIPA (05-May-2021 14:53:12)
 ------------------------------------------------------
 Symbolic Z-matrix:
 Charge =  0 Multiplicity = 1

                         Standard orientation:
 ---------------------------------------------------------------------
 Center     Atomic      Atomic             Coordinates (Angstroms)
 Number     Number       Type             X           Y           Z
 ---------------------------------------------------------------------
      1          6           0       -5.453346    0.461682   -0.012388
      2          6           0       -6.639032   -0.031886    0.817385
      3          6           0       -7.840047    0.912088    0.752053
      4          1           0       -5.157151    1.459136    0.340173
      5          1           0       -5.770620    0.581073   -1.057605
      6          1           0       -6.319247   -0.151633    1.860464
      7          1           0       -6.932316   -1.028362    0.462933
      8          1           0       -8.186627    1.023656   -0.280438
      9          1           0       -7.570074    1.905366    1.125034
     10          1           0       -8.676218    0.540038    1.352267
     11          6           0       -4.245010   -0.471375    0.042884
     12          6           0       -3.059324    0.022194   -0.786890
     13          6           0       -1.858309   -0.921781   -0.721557
     14          1           0       -3.927735   -0.590766    1.088100
     15          1           0       -4.541205   -1.468829   -0.309678
     16          1           0       -2.766039    1.018669   -0.432438
     17          1           0       -3.379109    0.141941   -1.829969
     18          1           0       -2.128282   -1.915059   -1.094538
     19          1           0       -1.511729   -1.033349    0.310933
     20          1           0       -1.022138   -0.549731   -1.321771
     21          6           0        6.009898    0.753348    0.920350
     22          6           0        5.443399   -0.452805    1.345551
     23          6           0        4.213004   -0.878017    0.835775
     24          6           0        3.573656   -0.068679   -0.102040
     25          6           0        4.112368    1.138156   -0.545471
     26          6           0        5.343750    1.543585   -0.022142
     27          1           0        6.966082    1.075979    1.321622
     28          1           0        5.958486   -1.068548    2.077391
     29          1           0        3.751756   -1.807266    1.147485
     30          1           0        3.575170    1.730514   -1.276188
     31          1           0        5.781324    2.480772   -0.354189
     32          7           0        2.270570   -0.508360   -0.648892
     33          8           0        1.727339    0.222773   -1.474108
     34          8           0        1.817115   -1.575791   -0.241942
 ---------------------------------------------------------------------

 SCF Done:  E(RHF) =  -669.536527303     A.U. after   15 cycles
 E2 =    -0.2091417290D+01 EUMP2 =    -0.67162794459340D+03

 The electronic state is 1-A.
 Alpha  occ. eigenvalues --  -20.61016 -20.61009 -15.86014 -11.31330 -11.27885
 Alpha  occ. eigenvalues --  -11.27881 -11.27619 -11.26888 -11.26878 -11.20950
 Alpha  occ. eigenvalues --  -11.20562 -11.20543 -11.20317 -11.20179 -11.18991
 Alpha  occ. eigenvalues --   -1.60048  -1.39606  -1.19491  -1.08898  -1.07451
 Alpha  occ. eigenvalues --   -1.04884  -1.02422  -0.95743  -0.94827  -0.86285
 Alpha  occ. eigenvalues --   -0.85836  -0.82575  -0.78533  -0.77632  -0.77209
 Alpha  occ. eigenvalues --   -0.72225  -0.71356  -0.70599  -0.65145  -0.64887
 Alpha  occ. eigenvalues --   -0.64103  -0.62230  -0.59843  -0.58294  -0.56423
 Alpha  occ. eigenvalues --   -0.55387  -0.54151  -0.53217  -0.52975  -0.51516
 Alpha  occ. eigenvalues --   -0.51266  -0.48993  -0.48956  -0.48751  -0.46801
 Alpha  occ. eigenvalues --   -0.45622  -0.45025  -0.44732  -0.44663  -0.42595
 Alpha  occ. eigenvalues --   -0.37468  -0.36484
 Alpha virt. eigenvalues --    0.04893   0.11172   0.16395   0.21312   0.23744
 Alpha virt. eigenvalues --    0.25502   0.27230   0.27551   0.28192   0.28392
 Alpha virt. eigenvalues --    0.29271   0.30879   0.32388   0.32458   0.32627

 Mulliken charges:
               1
     1  C   -0.297064
     2  C   -0.298756
     3  C   -0.475087
     4  H    0.147591
     5  H    0.148162
     6  H    0.150569
     7  H    0.151139
     8  H    0.154447
     9  H    0.153975
    10  H    0.158129
    11  C   -0.296637
    12  C   -0.300240
    13  C   -0.481129
    14  H    0.146968
    15  H    0.147831
    16  H    0.147646
    17  H    0.147810
    18  H    0.148093
    19  H    0.151446
    20  H    0.187674
    21  C   -0.170523
    22  C   -0.218603
    23  C   -0.170823
    24  C    0.159174
    25  C   -0.170736
    26  C   -0.218574
    27  H    0.226104
    28  H    0.223958
    29  H    0.276032
    30  H    0.275875
    31  H    0.223934
    32  N    0.488778
    33  O   -0.459892
    34  O   -0.457271
 Sum of Mulliken charges =  -0.00000

 Dipole moment (field-independent basis, Debye):
    X=              5.0678    Y=              1.5175    Z=              1.8744  Tot=              5.6124
 Quadrupole moment (field-independent basis, Debye-Ang):
   XX=            -64.8254   YY=            -91.9769   ZZ=            -93.4894
   XY=              5.9624   XZ=              7.2438   YZ=             -2.6274

 Normal termination of Gaussian 16 at Thu May  6 00:58:28 2021.
