 Gaussian 16, Revision A.03,
 Gaussian 16:  EM64L-G16RevA.03 25-Dec-2016

 -------------
 #p 6-31g* mp2
 -------------

 ------------------------------------------------------
 Input file generated by CHIRIPA (05-May-2021 14:53:14)
 ------------------------------------------------------
 Symbolic Z-matrix:
 Charge =  0 Multiplicity = 1

                         Standard orientation:
 ---------------------------------------------------------------------
 Center     Atomic      Atomic             Coordinates (Angstroms)
 Number     Number       Type             X           Y           Z
 ---------------------------------------------------------------------
      1          6           0       -3.030050   -0.968883   -0.352047
      2          6           0       -1.711509   -0.803870    0.404395
      3          6           0       -0.589385   -1.670792   -0.167512
      4          1           0       -3.330978   -2.025141   -0.325447
      5          1           0       -2.872268   -0.715364   -1.409509
      6          1           0       -1.872055   -1.056293    1.460389
      7          1           0       -1.413784    0.252150    0.376155
      8          1           0       -0.400377   -1.414560   -1.214995
      9          1           0       -0.861252   -2.730437   -0.124601
     10          1           0        0.344023   -1.537252    0.388166
     11          6           0       -4.161479   -0.108616    0.207897
     12          6           0       -5.480021   -0.273629   -0.548545
     13          6           0       -6.602145    0.593293    0.023362
     14          1           0       -4.319261   -0.362135    1.265360
     15          1           0       -3.860552    0.947642    0.181297
     16          1           0       -5.777746   -1.329649   -0.520305
     17          1           0       -5.319474   -0.021206   -1.604539
     18          1           0       -6.330277    1.652938   -0.019549
     19          1           0       -6.791153    0.337061    1.070846
     20          1           0       -7.535552    0.459753   -0.532315
     21          6           0        1.099116    2.256514    0.324783
     22          6           0        1.309281    1.338839    1.359300
     23          6           0        2.254189    0.317705    1.221531
     24          6           0        2.974515    0.243437    0.030354
     25          6           0        2.787980    1.142606   -1.018452
     26          6           0        1.837833    2.155646   -0.858704
     27          1           0        0.363053    3.046611    0.440341
     28          1           0        0.737032    1.414748    2.279525
     29          1           0        2.437061   -0.406082    2.006458
     30          1           0        3.373704    1.041373   -1.924043
     31          1           0        1.676731    2.866925   -1.663797
     32          7           0        3.977620   -0.833307   -0.127129
     33          8           0        4.599329   -0.877155   -1.186466
     34          8           0        4.123151   -1.613024    0.811753
 ---------------------------------------------------------------------

 SCF Done:  E(RHF) =  -669.534260783     A.U. after   15 cycles
 E2 =    -0.2094059381D+01 EUMP2 =    -0.67162832016386D+03

 The electronic state is 1-A.
 Alpha  occ. eigenvalues --  -20.60806 -20.60800 -15.85859 -11.31245 -11.27821
 Alpha  occ. eigenvalues --  -11.27801 -11.27577 -11.26856 -11.26836 -11.21915
 Alpha  occ. eigenvalues --  -11.21842 -11.21752 -11.21637 -11.21389 -11.21055
 Alpha  occ. eigenvalues --   -1.59879  -1.39433  -1.19442  -1.08831  -1.08720
 Alpha  occ. eigenvalues --   -1.04858  -1.03772  -0.96216  -0.95656  -0.87233
 Alpha  occ. eigenvalues --   -0.86242  -0.82484  -0.79856  -0.78557  -0.77524
 Alpha  occ. eigenvalues --   -0.72078  -0.71205  -0.70550  -0.65367  -0.65089
 Alpha  occ. eigenvalues --   -0.64841  -0.62195  -0.61190  -0.59654  -0.57905
 Alpha  occ. eigenvalues --   -0.55528  -0.55345  -0.53480  -0.52933  -0.52724
 Alpha  occ. eigenvalues --   -0.52355  -0.50152  -0.48839  -0.48831  -0.48179
 Alpha  occ. eigenvalues --   -0.46908  -0.46094  -0.46030  -0.44834  -0.44054
 Alpha  occ. eigenvalues --   -0.37349  -0.36366
 Alpha virt. eigenvalues --    0.04975   0.11106   0.16425   0.21075   0.22648
 Alpha virt. eigenvalues --    0.24133   0.26262   0.26692   0.27267   0.28010
 Alpha virt. eigenvalues --    0.28396   0.30573   0.31263   0.31573   0.31807

 Mulliken charges:
               1
     1  C   -0.298135
     2  C   -0.301346
     3  C   -0.477066
     4  H    0.151652
     5  H    0.149524
     6  H    0.147831
     7  H    0.148056
     8  H    0.155091
     9  H    0.156572
    10  H    0.163273
    11  C   -0.297435
    12  C   -0.299727
    13  C   -0.475666
    14  H    0.149235
    15  H    0.144866
    16  H    0.153605
    17  H    0.152035
    18  H    0.153595
    19  H    0.155411
    20  H    0.161410
    21  C   -0.172002
    22  C   -0.211084
    23  C   -0.179127
    24  C    0.164537
    25  C   -0.171264
    26  C   -0.218135
    27  H    0.226026
    28  H    0.225133
    29  H    0.276095
    30  H    0.275909
    31  H    0.223740
    32  N    0.488141
    33  O   -0.460153
    34  O   -0.460598
 Sum of Mulliken charges =  -0.00000

 Dipole moment (field-independent basis, Debye):
    X=             -3.4556    Y=              3.8008    Z=              0.5334  Tot=              5.1645
 Quadrupole moment (field-independent basis, Debye-Ang):
   XX=           -117.0906   YY=            -92.6445   ZZ=            -90.3315
   XY=             11.7469   XZ=              0.5679   YZ=             -2.1650

 Normal termination of Gaussian 16 at Wed May  5 15:35:13 2021.
