 Gaussian 16, Revision A.03,
 Gaussian 16:  EM64L-G16RevA.03 25-Dec-2016

 -------------
 #p 6-31g* mp2
 -------------

 ------------------------------------------------------
 Input file generated by CHIRIPA (05-May-2021 14:51:09)
 ------------------------------------------------------
 Symbolic Z-matrix:
 Charge =  0 Multiplicity = 1

                         Standard orientation:
 ---------------------------------------------------------------------
 Center     Atomic      Atomic             Coordinates (Angstroms)
 Number     Number       Type             X           Y           Z
 ---------------------------------------------------------------------
      1          6           0        3.248043   -0.216922    0.156164
      2          6           0        3.457170    0.168801   -1.308578
      3          6           0        4.810650    0.835292   -1.556928
      4          1           0        3.335967    0.682000    0.781586
      5          1           0        4.054441   -0.894942    0.468263
      6          1           0        2.649847    0.844795   -1.618219
      7          1           0        3.368548   -0.731113   -1.930605
      8          1           0        5.628181    0.163876   -1.275068
      9          1           0        4.905397    1.748738   -0.960908
     10          1           0        4.939175    1.102732   -2.610406
     11          6           0        1.899495   -0.884291    0.420291
     12          6           0        1.690367   -1.270015    1.885033
     13          6           0        0.336888   -1.936505    2.133383
     14          1           0        1.093096   -0.206272    0.108192
     15          1           0        1.811570   -1.783214   -0.205131
     16          1           0        1.778989   -0.370101    2.507060
     17          1           0        2.497690   -1.946008    2.194674
     18          1           0        0.242141   -2.849951    1.537363
     19          1           0       -0.480644   -1.265090    1.851523
     20          1           0        0.208363   -2.203946    3.186861
     21          6           0       -3.067704   -0.032026   -0.288856
     22          6           0       -2.756572   -1.089590   -1.348449
     23          6           0       -3.753514   -2.248804   -1.337252
     24          1           0       -3.070788   -0.505300    0.702581
     25          1           0       -4.082927    0.354643   -0.453789
     26          1           0       -1.741722   -1.473157   -1.182403
     27          1           0       -2.754039   -0.613705   -2.337460
     28          1           0       -4.768974   -1.885431   -1.525408
     29          1           0       -3.750904   -2.749765   -0.363789
     30          1           0       -3.512312   -2.993160   -2.102506
     31          6           0       -2.079834    1.133239   -0.287599
     32          6           0       -2.390965    2.190804    0.771994
     33          6           0       -1.394024    3.350017    0.760797
     34          1           0       -1.064610    0.746569   -0.122666
     35          1           0       -2.076750    1.606514   -1.279036
     36          1           0       -2.393499    1.714919    1.761005
     37          1           0       -3.405816    2.574371    0.605949
     38          1           0       -1.396634    3.850979   -0.212666
     39          1           0       -0.378564    2.986644    0.948953
     40          1           0       -1.635226    4.094374    1.526052
 ---------------------------------------------------------------------

 SCF Done:  E(RHF) =  -470.733287459     A.U. after   11 cycles
 E2 =    -0.1584088320D+01 EUMP2 =    -0.47231737577891D+03

 The electronic state is 1-A.
 Alpha  occ. eigenvalues --  -11.21675 -11.21641 -11.21616 -11.21563 -11.21455
 Alpha  occ. eigenvalues --  -11.21415 -11.21393 -11.21353 -11.21161 -11.21127
 Alpha  occ. eigenvalues --  -11.21079 -11.21037  -1.08500  -1.08429  -1.03578
 Alpha  occ. eigenvalues --   -1.03536  -0.96031  -0.95991  -0.87052  -0.87001
 Alpha  occ. eigenvalues --   -0.79645  -0.79595  -0.78398  -0.78166  -0.65317
 Alpha  occ. eigenvalues --   -0.64906  -0.60994  -0.60909  -0.59397  -0.59356
 Alpha  occ. eigenvalues --   -0.57654  -0.57585  -0.55345  -0.55265  -0.52723
 Alpha  occ. eigenvalues --   -0.52681  -0.52468  -0.52408  -0.50032  -0.49886
 Alpha  occ. eigenvalues --   -0.47973  -0.47922  -0.46802  -0.46582  -0.46261
 Alpha  occ. eigenvalues --   -0.45796  -0.45759  -0.45146  -0.43833  -0.43791
 Alpha virt. eigenvalues --    0.19235   0.22733   0.24188   0.24512   0.25429
 Alpha virt. eigenvalues --    0.26175   0.26901   0.27641   0.28498   0.30084
 Alpha virt. eigenvalues --    0.31155   0.31628   0.31684   0.31894   0.32334

 Mulliken charges:
               1
     1  C   -0.297564
     2  C   -0.299926
     3  C   -0.475760
     4  H    0.149539
     5  H    0.149773
     6  H    0.152480
     7  H    0.152038
     8  H    0.155148
     9  H    0.155301
    10  H    0.160415
    11  C   -0.308579
    12  C   -0.299132
    13  C   -0.480310
    14  H    0.158139
    15  H    0.149880
    16  H    0.151802
    17  H    0.152528
    18  H    0.155629
    19  H    0.158349
    20  H    0.160787
    21  C   -0.299031
    22  C   -0.301173
    23  C   -0.475845
    24  H    0.150768
    25  H    0.149745
    26  H    0.154131
    27  H    0.151637
    28  H    0.154934
    29  H    0.155678
    30  H    0.160072
    31  C   -0.309747
    32  C   -0.299355
    33  C   -0.475680
    34  H    0.159091
    35  H    0.149923
    36  H    0.151833
    37  H    0.152419
    38  H    0.155409
    39  H    0.154039
    40  H    0.160612
 Sum of Mulliken charges =  -0.00000

 Dipole moment (field-independent basis, Debye):
    X=              0.0137    Y=             -0.0065    Z=             -0.0029  Tot=              0.0154
 Quadrupole moment (field-independent basis, Debye-Ang):
   XX=            -85.5319   YY=            -84.7294   ZZ=            -84.4191
   XY=             -1.7470   XZ=              0.5490   YZ=             -0.1287

 Normal termination of Gaussian 16 at Wed May  5 21:21:05 2021.
