 Gaussian 16, Revision A.03,
 Gaussian 16:  EM64L-G16RevA.03 25-Dec-2016

 -------------
 #p 6-31g* mp2
 -------------

 ------------------------------------------------------
 Input file generated by CHIRIPA (05-May-2021 14:53:15)
 ------------------------------------------------------
 Symbolic Z-matrix:
 Charge =  0 Multiplicity = 1

                         Standard orientation:
 ---------------------------------------------------------------------
 Center     Atomic      Atomic             Coordinates (Angstroms)
 Number     Number       Type             X           Y           Z
 ---------------------------------------------------------------------
      1          6           0        5.300569    0.004499    0.288223
      2          6           0        6.432581   -0.158866   -0.726590
      3          6           0        7.788951    0.281599   -0.175187
      4          1           0        5.246599    1.056065    0.601656
      5          1           0        5.538040   -0.578337    1.188948
      6          1           0        6.192395    0.422996   -1.625680
      7          1           0        6.483739   -1.210130   -1.037788
      8          1           0        8.054573   -0.306365    0.709314
      9          1           0        7.761573    1.336040    0.118082
     10          1           0        8.583787    0.156330   -0.917079
     11          6           0        3.938353   -0.431656   -0.248306
     12          6           0        2.806341   -0.268290    0.766507
     13          6           0        1.449971   -0.708756    0.215104
     14          1           0        3.700883    0.151181   -1.149031
     15          1           0        3.992323   -1.483222   -0.561739
     16          1           0        2.755183    0.782973    1.077704
     17          1           0        3.046528   -0.850153    1.665597
     18          1           0        1.477349   -1.763196   -0.078165
     19          1           0        1.184349   -0.120791   -0.669398
     20          1           0        0.655135   -0.583486    0.956995
     21          6           0       -2.509974    2.434303    0.114259
     22          6           0       -3.857207    2.329038   -0.246857
     23          6           0       -4.476464    1.077871   -0.322027
     24          6           0       -3.715199   -0.052350   -0.028146
     25          6           0       -2.371141    0.019865    0.334596
     26          6           0       -1.772541    1.281413    0.403323
     27          1           0       -2.036945    3.410272    0.170151
     28          1           0       -4.432362    3.222682   -0.471892
     29          1           0       -5.517878    0.967558   -0.598986
     30          1           0       -1.823665   -0.888926    0.553193
     31          1           0       -0.726098    1.360143    0.684044
     32          7           0       -4.359845   -1.382400   -0.104315
     33          8           0       -3.667331   -2.362961    0.159432
     34          8           0       -5.545424   -1.419146   -0.426322
 ---------------------------------------------------------------------

 SCF Done:  E(RHF) =  -669.534869618     A.U. after   15 cycles
 E2 =    -0.2091707940D+01 EUMP2 =    -0.67162657755744D+03

 The electronic state is 1-A.
 Alpha  occ. eigenvalues --  -20.60691 -20.60685 -15.85742 -11.31089 -11.27666
 Alpha  occ. eigenvalues --  -11.27619 -11.27398 -11.26683 -11.26600 -11.22375
 Alpha  occ. eigenvalues --  -11.22051 -11.21964 -11.21949 -11.21821 -11.21373
 Alpha  occ. eigenvalues --   -1.59766  -1.39319  -1.19260  -1.08982  -1.08660
 Alpha  occ. eigenvalues --   -1.04672  -1.04116  -0.96593  -0.95498  -0.87624
 Alpha  occ. eigenvalues --   -0.86058  -0.82337  -0.80194  -0.78755  -0.77377
 Alpha  occ. eigenvalues --   -0.71962  -0.71088  -0.70381  -0.65618  -0.64919
 Alpha  occ. eigenvalues --   -0.64675  -0.62175  -0.61477  -0.59903  -0.58168
 Alpha  occ. eigenvalues --   -0.55864  -0.55173  -0.53299  -0.53046  -0.52946
 Alpha  occ. eigenvalues --   -0.52725  -0.50487  -0.48717  -0.48716  -0.48498
 Alpha  occ. eigenvalues --   -0.47199  -0.46305  -0.46206  -0.44729  -0.44368
 Alpha  occ. eigenvalues --   -0.37248  -0.36252
 Alpha virt. eigenvalues --    0.05140   0.11379   0.16598   0.20313   0.22568
 Alpha virt. eigenvalues --    0.23804   0.26020   0.26123   0.26935   0.27665
 Alpha virt. eigenvalues --    0.28913   0.30492   0.30910   0.31374   0.31735

 Mulliken charges:
               1
     1  C   -0.298683
     2  C   -0.300120
     3  C   -0.475989
     4  H    0.148937
     5  H    0.151002
     6  H    0.152109
     7  H    0.153450
     8  H    0.155983
     9  H    0.154957
    10  H    0.161541
    11  C   -0.299329
    12  C   -0.300636
    13  C   -0.484192
    14  H    0.149849
    15  H    0.153047
    16  H    0.148541
    17  H    0.156331
    18  H    0.165643
    19  H    0.157218
    20  H    0.151842
    21  C   -0.171568
    22  C   -0.218682
    23  C   -0.171112
    24  C    0.159240
    25  C   -0.175392
    26  C   -0.222053
    27  H    0.225014
    28  H    0.222927
    29  H    0.275188
    30  H    0.278694
    31  H    0.229280
    32  N    0.488478
    33  O   -0.460637
    34  O   -0.460880
 Sum of Mulliken charges =  -0.00000

 Dipole moment (field-independent basis, Debye):
    X=              2.5080    Y=              4.6083    Z=              0.2289  Tot=              5.2515
 Quadrupole moment (field-independent basis, Debye-Ang):
   XX=           -108.5928   YY=            -93.9267   ZZ=            -95.2410
   XY=            -20.4582   XZ=              0.0302   YZ=             -1.2235

 Normal termination of Gaussian 16 at Thu May  6 07:26:12 2021.
