 Gaussian 16, Revision A.03,
 Gaussian 16:  EM64L-G16RevA.03 25-Dec-2016

 -------------
 #p 6-31g* mp2
 -------------

 ------------------------------------------------------
 Input file generated by CHIRIPA (05-May-2021 14:57:24)
 ------------------------------------------------------
 Symbolic Z-matrix:
 Charge =  0 Multiplicity = 1

                         Standard orientation:
 ---------------------------------------------------------------------
 Center     Atomic      Atomic             Coordinates (Angstroms)
 Number     Number       Type             X           Y           Z
 ---------------------------------------------------------------------
      1          6           0       -5.552056    1.544882   -0.557357
      2          6           0       -4.528298    1.820675    0.354991
      3          6           0       -3.616514    0.826095    0.721062
      4          6           0       -3.758582   -0.438899    0.152821
      5          6           0       -4.767895   -0.744623   -0.758830
      6          6           0       -5.668382    0.265369   -1.110381
      7          1           0       -6.255963    2.323482   -0.836090
      8          1           0       -4.435537    2.813454    0.786072
      9          1           0       -2.814529    1.012300    1.425027
     10          1           0       -4.834860   -1.743841   -1.171743
     11          1           0       -6.462458    0.048322   -1.819168
     12          7           0       -2.799297   -1.499975    0.532678
     13          8           0       -2.945991   -2.606358    0.017865
     14          8           0       -1.918879   -1.205170    1.338031
     15          6           0        1.711122    1.474860    0.097646
     16          6           0        1.735488    0.085649   -0.063657
     17          6           0        2.951735   -0.595696   -0.168831
     18          6           0        4.129909    0.146961   -0.108379
     19          6           0        4.138464    1.531733    0.051699
     20          6           0        2.910573    2.192204    0.154709
     21          1           0        0.761790    1.996038    0.178508
     22          1           0        0.805539   -0.474035   -0.108305
     23          1           0        2.999568   -1.670590   -0.294265
     24          1           0        5.081923    2.062414    0.092698
     25          1           0        2.894687    3.271145    0.279921
     26          7           0        5.423658   -0.563298   -0.218576
     27          8           0        6.447752    0.113982   -0.162355
     28          8           0        5.389108   -1.783832   -0.359083
 ---------------------------------------------------------------------

 SCF Done:  E(RHF) =  -868.339066787     A.U. after   16 cycles
 E2 =    -0.2598748213D+01 EUMP2 =    -0.87093781500015D+03

 The electronic state is 1-A.
 Alpha  occ. eigenvalues --  -20.61831 -20.61782 -20.60272 -20.60258 -15.86830
 Alpha  occ. eigenvalues --  -15.85314 -11.32048 -11.30612 -11.28631 -11.28556
 Alpha  occ. eigenvalues --  -11.28277 -11.27583 -11.27528 -11.27200 -11.27069
 Alpha  occ. eigenvalues --  -11.26920 -11.26258 -11.26004  -1.60873  -1.59343
 Alpha  occ. eigenvalues --   -1.40430  -1.38898  -1.20199  -1.18765  -1.09616
 Alpha  occ. eigenvalues --   -1.08186  -1.05578  -1.04136  -0.96476  -0.95036
 Alpha  occ. eigenvalues --   -0.86980  -0.85543  -0.83310  -0.81853  -0.78387
 Alpha  occ. eigenvalues --   -0.76899  -0.73041  -0.72190  -0.71536  -0.71293
 Alpha  occ. eigenvalues --   -0.70664  -0.69913  -0.65849  -0.65569  -0.64415
 Alpha  occ. eigenvalues --   -0.64112  -0.62928  -0.61465  -0.56063  -0.54698
 Alpha  occ. eigenvalues --   -0.53915  -0.53661  -0.52496  -0.52209  -0.49822
 Alpha  occ. eigenvalues --   -0.49786  -0.48295  -0.48287  -0.45850  -0.44319
 Alpha  occ. eigenvalues --   -0.38160  -0.37178  -0.36772  -0.35729
 Alpha virt. eigenvalues --    0.04104   0.05599   0.10472   0.11914   0.15620
 Alpha virt. eigenvalues --    0.17113   0.20510   0.22006   0.26385   0.27211
 Alpha virt. eigenvalues --    0.28158   0.28788   0.30481   0.31350   0.32172

 Mulliken charges:
               1
     1  C   -0.170000
     2  C   -0.218306
     3  C   -0.174066
     4  C    0.157836
     5  C   -0.170275
     6  C   -0.218152
     7  H    0.228396
     8  H    0.224458
     9  H    0.272618
    10  H    0.277754
    11  H    0.226557
    12  N    0.487029
    13  O   -0.454647
    14  O   -0.465784
    15  C   -0.171492
    16  C   -0.220451
    17  C   -0.172195
    18  C    0.158576
    19  C   -0.172632
    20  C   -0.218441
    21  H    0.218848
    22  H    0.238355
    23  H    0.277995
    24  H    0.273262
    25  H    0.219311
    26  N    0.487998
    27  O   -0.462767
    28  O   -0.459784
 Sum of Mulliken charges =  -0.00000

 Dipole moment (field-independent basis, Debye):
    X=             -8.3766    Y=              6.0746    Z=             -1.0139  Tot=             10.3969
 Quadrupole moment (field-independent basis, Debye-Ang):
   XX=           -115.1802   YY=           -102.0125   ZZ=           -104.8559
   XY=              0.7260   XZ=              8.9845   YZ=              3.6819

 Normal termination of Gaussian 16 at Thu May  6 16:19:20 2021.
