 Gaussian 16, Revision A.03,
 Gaussian 16:  EM64L-G16RevA.03 25-Dec-2016

 -------------
 #p 6-31g* mp2
 -------------

 ------------------------------------------------------
 Input file generated by CHIRIPA (05-May-2021 14:53:15)
 ------------------------------------------------------
 Symbolic Z-matrix:
 Charge =  0 Multiplicity = 1

                         Standard orientation:
 ---------------------------------------------------------------------
 Center     Atomic      Atomic             Coordinates (Angstroms)
 Number     Number       Type             X           Y           Z
 ---------------------------------------------------------------------
      1          6           0       -2.953594   -0.454736   -0.065208
      2          6           0       -3.876757   -1.109363   -1.093420
      3          6           0       -3.889431   -2.634790   -0.989953
      4          1           0       -1.933922   -0.841218   -0.198801
      5          1           0       -3.270859   -0.752101    0.943906
      6          1           0       -3.558694   -0.809743   -2.100237
      7          1           0       -4.894311   -0.721135   -0.957489
      8          1           0       -4.227766   -2.950821    0.002143
      9          1           0       -2.884560   -3.039932   -1.147098
     10          1           0       -4.555781   -3.082128   -1.734081
     11          6           0       -2.930192    1.070033   -0.156087
     12          6           0       -2.007029    1.724659    0.872125
     13          6           0       -1.994355    3.250087    0.768658
     14          1           0       -2.612927    1.367398   -1.165201
     15          1           0       -3.949864    1.456514   -0.022494
     16          1           0       -0.989475    1.336432    0.736194
     17          1           0       -2.325092    1.425040    1.878942
     18          1           0       -2.999226    3.655229    0.925803
     19          1           0       -1.656020    3.566118   -0.223438
     20          1           0       -1.328005    3.697425    1.512786
     21          6           0        1.575048   -1.622981    2.069139
     22          6           0        1.275173   -0.257591    2.021111
     23          6           0        1.670986    0.518233    0.927504
     24          6           0        2.368281   -0.106683   -0.105236
     25          6           0        2.682002   -1.464813   -0.086543
     26          6           0        2.276269   -2.221179    1.017014
     27          1           0        1.263716   -2.218101    2.922545
     28          1           0        0.730720    0.209653    2.836770
     29          1           0        1.452024    1.577249    0.864592
     30          1           0        3.226055   -1.902405   -0.914757
     31          1           0        2.510537   -3.281352    1.051617
     32          7           0        2.792561    0.704348   -1.268256
     33          8           0        3.405768    0.130005   -2.165333
     34          8           0        2.503872    1.899019   -1.260733
 ---------------------------------------------------------------------

 SCF Done:  E(RHF) =  -669.534847408     A.U. after   15 cycles
 E2 =    -0.2093044307D+01 EUMP2 =    -0.67162789171514D+03

 The electronic state is 1-A.
 Alpha  occ. eigenvalues --  -20.60823 -20.60818 -15.85878 -11.31248 -11.27809
 Alpha  occ. eigenvalues --  -11.27797 -11.27542 -11.26828 -11.26811 -11.21874
 Alpha  occ. eigenvalues --  -11.21739 -11.21579 -11.21517 -11.21261 -11.21256
 Alpha  occ. eigenvalues --   -1.59900  -1.39453  -1.19427  -1.08812  -1.08624
 Alpha  occ. eigenvalues --   -1.04836  -1.03737  -0.96172  -0.95649  -0.87185
 Alpha  occ. eigenvalues --   -0.86218  -0.82487  -0.79826  -0.78462  -0.77511
 Alpha  occ. eigenvalues --   -0.72094  -0.71226  -0.70531  -0.65290  -0.65059
 Alpha  occ. eigenvalues --   -0.64805  -0.62221  -0.61099  -0.59550  -0.57797
 Alpha  occ. eigenvalues --   -0.55451  -0.55303  -0.53212  -0.52908  -0.52856
 Alpha  occ. eigenvalues --   -0.52595  -0.50096  -0.48853  -0.48850  -0.48130
 Alpha  occ. eigenvalues --   -0.46843  -0.45985  -0.45895  -0.44853  -0.43982
 Alpha  occ. eigenvalues --   -0.37400  -0.36338
 Alpha virt. eigenvalues --    0.04966   0.11174   0.16409   0.20746   0.22833
 Alpha virt. eigenvalues --    0.23921   0.26381   0.26471   0.27420   0.28047
 Alpha virt. eigenvalues --    0.29130   0.30507   0.31345   0.31749   0.32097

 Mulliken charges:
               1
     1  C   -0.299390
     2  C   -0.300009
     3  C   -0.475671
     4  H    0.151606
     5  H    0.145812
     6  H    0.154704
     7  H    0.152183
     8  H    0.153294
     9  H    0.154616
    10  H    0.161359
    11  C   -0.297922
    12  C   -0.308035
    13  C   -0.476759
    14  H    0.154582
    15  H    0.150030
    16  H    0.154162
    17  H    0.146016
    18  H    0.156463
    19  H    0.163489
    20  H    0.155624
    21  C   -0.171179
    22  C   -0.214940
    23  C   -0.173551
    24  C    0.157027
    25  C   -0.171734
    26  C   -0.218405
    27  H    0.226138
    28  H    0.225803
    29  H    0.277717
    30  H    0.275739
    31  H    0.223787
    32  N    0.488129
    33  O   -0.460230
    34  O   -0.460454
 Sum of Mulliken charges =  -0.00000

 Dipole moment (field-independent basis, Debye):
    X=             -1.4760    Y=             -2.8590    Z=              4.0186  Tot=              5.1479
 Quadrupole moment (field-independent basis, Debye-Ang):
   XX=           -101.1405   YY=            -92.2157   ZZ=            -94.8868
   XY=             -8.9091   XZ=              8.7398   YZ=              1.5024

 Normal termination of Gaussian 16 at Wed May  5 21:55:51 2021.
