 Gaussian 16, Revision A.03,
 Gaussian 16:  EM64L-G16RevA.03 25-Dec-2016

 -------------
 #p 6-31g* mp2
 -------------

 ------------------------------------------------------
 Input file generated by CHIRIPA (05-May-2021 14:55:19)
 ------------------------------------------------------
 Symbolic Z-matrix:
 Charge =  0 Multiplicity = 1

                         Standard orientation:
 ---------------------------------------------------------------------
 Center     Atomic      Atomic             Coordinates (Angstroms)
 Number     Number       Type             X           Y           Z
 ---------------------------------------------------------------------
      1          6           0        0.673105   -1.031284   -0.427738
      2          6           0        1.044361    0.313645   -0.527008
      3          6           0        2.374705    0.698906   -0.336464
      4          6           0        3.312008   -0.291461   -0.046765
      5          6           0        2.973253   -1.639574    0.058712
      6          6           0        1.637037   -2.001890   -0.135710
      7          1           0       -0.362619   -1.321652   -0.577263
      8          1           0        0.297894    1.069588   -0.753685
      9          1           0        2.689593    1.732935   -0.407517
     10          1           0        3.739867   -2.370401    0.285899
     11          1           0        1.351594   -3.047132   -0.058007
     12          7           0        4.723492    0.104252    0.157008
     13          8           0        5.530263   -0.787457    0.411199
     14          8           0        4.996317    1.298629    0.058675
     15          6           0       -3.663458    1.103304   -0.193422
     16          6           0       -2.466430    1.658526    0.579131
     17          6           0       -1.921166    2.952594   -0.025740
     18          1           0       -3.368253    0.926180   -1.236699
     19          1           0       -4.458666    1.861220   -0.217962
     20          1           0       -1.674244    0.899271    0.603393
     21          1           0       -2.764466    1.834168    1.620735
     22          1           0       -2.693346    3.728639   -0.035343
     23          1           0       -1.596930    2.788430   -1.058466
     24          1           0       -1.065917    3.332000    0.542117
     25          6           0       -4.219751   -0.190205    0.399117
     26          6           0       -5.416779   -0.745428   -0.373436
     27          6           0       -5.962044   -2.039495    0.231435
     28          1           0       -3.424543   -0.948121    0.423657
     29          1           0       -4.514956   -0.013082    1.442393
     30          1           0       -5.118744   -0.921069   -1.415041
     31          1           0       -6.208965    0.013827   -0.397698
     32          1           0       -6.286279   -1.875332    1.264160
     33          1           0       -5.189863   -2.815540    0.241038
     34          1           0       -6.817292   -2.418901   -0.336422
 ---------------------------------------------------------------------

 SCF Done:  E(RHF) =  -669.534896204     A.U. after   15 cycles
 E2 =    -0.2092668890D+01 EUMP2 =    -0.67162756509434D+03

 The electronic state is 1-A.
 Alpha  occ. eigenvalues --  -20.60749 -20.60744 -15.85801 -11.31173 -11.27738
 Alpha  occ. eigenvalues --  -11.27718 -11.27481 -11.26761 -11.26684 -11.22682
 Alpha  occ. eigenvalues --  -11.22416 -11.22390 -11.22322 -11.22216 -11.21769
 Alpha  occ. eigenvalues --   -1.59824  -1.39378  -1.19341  -1.09420  -1.08738
 Alpha  occ. eigenvalues --   -1.04757  -1.04478  -0.96941  -0.95574  -0.87948
 Alpha  occ. eigenvalues --   -0.86148  -0.82401  -0.80546  -0.79207  -0.77452
 Alpha  occ. eigenvalues --   -0.72021  -0.71147  -0.70466  -0.66183  -0.64990
 Alpha  occ. eigenvalues --   -0.64741  -0.62341  -0.61599  -0.60286  -0.58524
 Alpha  occ. eigenvalues --   -0.56275  -0.55221  -0.53609  -0.53341  -0.53075
 Alpha  occ. eigenvalues --   -0.52785  -0.50891  -0.48863  -0.48775  -0.48756
 Alpha  occ. eigenvalues --   -0.47603  -0.46735  -0.46681  -0.44782  -0.44735
 Alpha  occ. eigenvalues --   -0.37312  -0.36330
 Alpha virt. eigenvalues --    0.05067   0.11184   0.16532   0.18670   0.22399
 Alpha virt. eigenvalues --    0.23477   0.24710   0.25801   0.26770   0.28779
 Alpha virt. eigenvalues --    0.29515   0.30613   0.30952   0.31043   0.31979

 Mulliken charges:
               1
     1  C   -0.174902
     2  C   -0.223802
     3  C   -0.174243
     4  C    0.158797
     5  C   -0.171142
     6  C   -0.218637
     7  H    0.226804
     8  H    0.236596
     9  H    0.275986
    10  H    0.275535
    11  H    0.223364
    12  N    0.488081
    13  O   -0.460510
    14  O   -0.460314
    15  C   -0.298901
    16  C   -0.307538
    17  C   -0.483247
    18  H    0.146649
    19  H    0.154382
    20  H    0.148325
    21  H    0.158928
    22  H    0.164003
    23  H    0.149824
    24  H    0.163942
    25  C   -0.298056
    26  C   -0.300339
    27  C   -0.475851
    28  H    0.142578
    29  H    0.153723
    30  H    0.151539
    31  H    0.154868
    32  H    0.157170
    33  H    0.153489
    34  H    0.162902
 Sum of Mulliken charges =  -0.00000

 Dipole moment (field-independent basis, Debye):
    X=             -5.1923    Y=             -1.3065    Z=             -0.6502  Tot=              5.3935
 Quadrupole moment (field-independent basis, Debye-Ang):
   XX=           -126.8247   YY=            -89.6145   ZZ=            -95.1625
   XY=             -5.6152   XZ=             -2.3557   YZ=              0.1301

 Normal termination of Gaussian 16 at Thu May  6 06:06:42 2021.
