 Gaussian 16, Revision A.03,
 Gaussian 16:  EM64L-G16RevA.03 25-Dec-2016

 -------------
 #p 6-31g* mp2
 -------------

 ------------------------------------------------------
 Input file generated by CHIRIPA (05-May-2021 14:53:12)
 ------------------------------------------------------
 Symbolic Z-matrix:
 Charge =  0 Multiplicity = 1

                         Standard orientation:
 ---------------------------------------------------------------------
 Center     Atomic      Atomic             Coordinates (Angstroms)
 Number     Number       Type             X           Y           Z
 ---------------------------------------------------------------------
      1          6           0       -3.193782    0.696121    0.415678
      2          6           0       -3.185020    2.113226   -0.158536
      3          6           0       -2.215133    3.041549    0.573126
      4          1           0       -3.459487    0.740540    1.480748
      5          1           0       -2.177800    0.280779    0.364047
      6          1           0       -4.200993    2.525257   -0.107107
      7          1           0       -2.919493    2.065411   -1.222409
      8          1           0       -1.192179    2.656490    0.510707
      9          1           0       -2.480961    3.118949    1.632346
     10          1           0       -2.224910    4.049341    0.146372
     11          6           0       -4.158486   -0.243716   -0.305281
     12          6           0       -4.167248   -1.660821    0.268933
     13          6           0       -5.137135   -2.589144   -0.462729
     14          1           0       -5.174468    0.171626   -0.253650
     15          1           0       -3.892781   -0.288135   -1.370351
     16          1           0       -4.432775   -1.613006    1.332806
     17          1           0       -3.151275   -2.072852    0.217504
     18          1           0       -4.871307   -2.666544   -1.521949
     19          1           0       -6.160088   -2.204085   -0.400310
     20          1           0       -5.127357   -3.596936   -0.035975
     21          6           0        3.247522   -2.654763    0.247041
     22          6           0        4.340835   -1.788721    0.141406
     23          6           0        4.144619   -0.413906   -0.019620
     24          6           0        2.835674    0.062847   -0.071176
     25          6           0        1.725880   -0.774517    0.031143
     26          6           0        1.945829   -2.145794    0.191671
     27          1           0        3.409167   -3.721378    0.371936
     28          1           0        5.352861   -2.181187    0.184074
     29          1           0        4.972938    0.279051   -0.103982
     30          1           0        0.728773   -0.353715   -0.014909
     31          1           0        1.094852   -2.816016    0.273438
     32          7           0        2.615386    1.516430   -0.241383
     33          8           0        1.452300    1.911482   -0.283833
     34          8           0        3.609981    2.233173   -0.329117
 ---------------------------------------------------------------------

 SCF Done:  E(RHF) =  -669.536060824     A.U. after   15 cycles
 E2 =    -0.2091397944D+01 EUMP2 =    -0.67162745876830D+03

 The electronic state is 1-A.
 Alpha  occ. eigenvalues --  -20.60920 -20.60906 -15.85962 -11.31278 -11.27848
 Alpha  occ. eigenvalues --  -11.27838 -11.27577 -11.26849 -11.26839 -11.21780
 Alpha  occ. eigenvalues --  -11.21356 -11.21238 -11.21230 -11.21039 -11.20024
 Alpha  occ. eigenvalues --   -1.59980  -1.39538  -1.19446  -1.08850  -1.08286
 Alpha  occ. eigenvalues --   -1.04844  -1.03260  -0.95713  -0.95665  -0.86701
 Alpha  occ. eigenvalues --   -0.86244  -0.82530  -0.79372  -0.78071  -0.77576
 Alpha  occ. eigenvalues --   -0.72190  -0.71296  -0.70558  -0.65107  -0.64936
 Alpha  occ. eigenvalues --   -0.64834  -0.62194  -0.60645  -0.59132  -0.57291
 Alpha  occ. eigenvalues --   -0.55348  -0.54948  -0.53174  -0.52938  -0.52360
 Alpha  occ. eigenvalues --   -0.52104  -0.49638  -0.48942  -0.48917  -0.47654
 Alpha  occ. eigenvalues --   -0.46421  -0.45592  -0.45507  -0.44932  -0.43542
 Alpha  occ. eigenvalues --   -0.37425  -0.36444
 Alpha virt. eigenvalues --    0.04943   0.11210   0.16435   0.19701   0.22831
 Alpha virt. eigenvalues --    0.24000   0.25353   0.27235   0.27643   0.28424
 Alpha virt. eigenvalues --    0.29618   0.30131   0.31583   0.31890   0.32223

 Mulliken charges:
               1
     1  C   -0.298260
     2  C   -0.298855
     3  C   -0.486291
     4  H    0.149565
     5  H    0.143251
     6  H    0.149035
     7  H    0.152997
     8  H    0.181040
     9  H    0.148806
    10  H    0.160522
    11  C   -0.298340
    12  C   -0.297384
    13  C   -0.475569
    14  H    0.151051
    15  H    0.149666
    16  H    0.152659
    17  H    0.143318
    18  H    0.155051
    19  H    0.156948
    20  H    0.158622
    21  C   -0.170433
    22  C   -0.218757
    23  C   -0.170290
    24  C    0.157188
    25  C   -0.173741
    26  C   -0.219704
    27  H    0.226022
    28  H    0.223792
    29  H    0.275835
    30  H    0.279692
    31  H    0.224091
    32  N    0.495064
    33  O   -0.467778
    34  O   -0.458811
 Sum of Mulliken charges =  -0.00000

 Dipole moment (field-independent basis, Debye):
    X=              0.9302    Y=             -5.0331    Z=              0.5744  Tot=              5.1505
 Quadrupole moment (field-independent basis, Debye-Ang):
   XX=            -85.3572   YY=            -96.3725   ZZ=            -95.6021
   XY=            -14.5658   XZ=              0.8894   YZ=              0.1193

 Normal termination of Gaussian 16 at Thu May  6 00:56:13 2021.
