 Gaussian 16, Revision A.03,
 Gaussian 16:  EM64L-G16RevA.03 25-Dec-2016

 -------------
 #p 6-31g* mp2
 -------------

 ------------------------------------------------------
 Input file generated by CHIRIPA (05-May-2021 14:51:09)
 ------------------------------------------------------
 Symbolic Z-matrix:
 Charge =  0 Multiplicity = 1

                         Standard orientation:
 ---------------------------------------------------------------------
 Center     Atomic      Atomic             Coordinates (Angstroms)
 Number     Number       Type             X           Y           Z
 ---------------------------------------------------------------------
      1          6           0        3.193122   -0.086194   -0.240047
      2          6           0        4.694835   -0.373439   -0.221806
      3          6           0        5.453915    0.378793   -1.315304
      4          1           0        2.786280   -0.357544   -1.223812
      5          1           0        3.032113    0.994381   -0.122456
      6          1           0        4.852914   -1.453311   -0.338008
      7          1           0        5.098113   -0.101553    0.762095
      8          1           0        5.325761    1.459860   -1.199241
      9          1           0        5.079169    0.100422   -2.305595
     10          1           0        6.525608    0.158900   -1.283977
     11          6           0        2.420616   -0.830967    0.847278
     12          6           0        0.918903   -0.543722    0.829037
     13          6           0        0.159823   -1.295954    1.922536
     14          1           0        2.581624   -1.911543    0.729688
     15          1           0        2.827457   -0.559617    1.831044
     16          1           0        0.515624   -0.815608   -0.154864
     17          1           0        0.760823    0.536150    0.945240
     18          1           0        0.534568   -1.017583    2.912827
     19          1           0        0.287976   -2.377021    1.806473
     20          1           0       -0.911870   -1.076061    1.891208
     21          6           0       -3.259417   -0.128857   -0.120452
     22          6           0       -3.174883   -1.291092   -1.110426
     23          6           0       -4.085935   -2.458739   -0.730450
     24          1           0       -2.995525   -0.490246    0.882894
     25          1           0       -4.299782    0.220112   -0.063377
     26          1           0       -2.134741   -1.636862   -1.166655
     27          1           0       -3.438822   -0.926852   -2.111566
     28          1           0       -5.131268   -2.135478   -0.693285
     29          1           0       -3.819778   -2.849522    0.256996
     30          1           0       -4.009771   -3.278531   -1.451561
     31          6           0       -2.354320    1.046018   -0.486779
     32          6           0       -2.438854    2.208254    0.503195
     33          6           0       -1.527803    3.375900    0.123219
     34          1           0       -1.313956    0.697049   -0.543855
     35          1           0       -2.618212    1.407407   -1.490126
     36          1           0       -2.174916    1.844013    1.504335
     37          1           0       -3.478997    2.554023    0.559423
     38          1           0       -1.793960    3.766683   -0.864227
     39          1           0       -0.482469    3.052639    0.086054
     40          1           0       -1.603966    4.195693    0.844328
 ---------------------------------------------------------------------

 SCF Done:  E(RHF) =  -470.732098876     A.U. after   11 cycles
 E2 =    -0.1585187796D+01 EUMP2 =    -0.47231728667173D+03

 The electronic state is 1-A.
 Alpha  occ. eigenvalues --  -11.21727 -11.21646 -11.21589 -11.21555 -11.21478
 Alpha  occ. eigenvalues --  -11.21416 -11.21339 -11.21205 -11.21173 -11.21100
 Alpha  occ. eigenvalues --  -11.21057 -11.21056  -1.08540  -1.08361  -1.03621
 Alpha  occ. eigenvalues --   -1.03497  -0.96081  -0.95924  -0.87087  -0.86954
 Alpha  occ. eigenvalues --   -0.79742  -0.79556  -0.78432  -0.78078  -0.65158
 Alpha  occ. eigenvalues --   -0.65103  -0.61126  -0.60794  -0.59419  -0.59305
 Alpha  occ. eigenvalues --   -0.57684  -0.57559  -0.55343  -0.55195  -0.52767
 Alpha  occ. eigenvalues --   -0.52649  -0.52485  -0.52354  -0.50007  -0.49905
 Alpha  occ. eigenvalues --   -0.48178  -0.47836  -0.46757  -0.46586  -0.46172
 Alpha  occ. eigenvalues --   -0.45780  -0.45717  -0.45188  -0.43794  -0.43737
 Alpha virt. eigenvalues --    0.19650   0.22666   0.23143   0.24855   0.25400
 Alpha virt. eigenvalues --    0.26107   0.26342   0.27874   0.28579   0.29662
 Alpha virt. eigenvalues --    0.30174   0.31239   0.31723   0.31999   0.32079

 Mulliken charges:
               1
     1  C   -0.298555
     2  C   -0.299702
     3  C   -0.475786
     4  H    0.149799
     5  H    0.149372
     6  H    0.152064
     7  H    0.152090
     8  H    0.155368
     9  H    0.155316
    10  H    0.160420
    11  C   -0.297133
    12  C   -0.307118
    13  C   -0.482091
    14  H    0.149851
    15  H    0.149984
    16  H    0.154586
    17  H    0.155077
    18  H    0.155906
    19  H    0.155735
    20  H    0.166054
    21  C   -0.301928
    22  C   -0.301622
    23  C   -0.475704
    24  H    0.151918
    25  H    0.149769
    26  H    0.153006
    27  H    0.152105
    28  H    0.155268
    29  H    0.155345
    30  H    0.160003
    31  C   -0.307559
    32  C   -0.299935
    33  C   -0.477359
    34  H    0.161960
    35  H    0.148922
    36  H    0.151625
    37  H    0.151806
    38  H    0.155415
    39  H    0.155737
    40  H    0.159993
 Sum of Mulliken charges =  -0.00000

 Dipole moment (field-independent basis, Debye):
    X=              0.0552    Y=             -0.0209    Z=              0.0016  Tot=              0.0591
 Quadrupole moment (field-independent basis, Debye-Ang):
   XX=            -85.1181   YY=            -85.1371   ZZ=            -84.6267
   XY=             -1.0488   XZ=              1.0895   YZ=              0.7432

 Normal termination of Gaussian 16 at Wed May  5 19:43:14 2021.
