 Gaussian 16, Revision A.03,
 Gaussian 16:  EM64L-G16RevA.03 25-Dec-2016

 -------------
 #p 6-31g* mp2
 -------------

 ------------------------------------------------------
 Input file generated by CHIRIPA (05-May-2021 14:55:24)
 ------------------------------------------------------
 Symbolic Z-matrix:
 Charge =  0 Multiplicity = 1

                         Standard orientation:
 ---------------------------------------------------------------------
 Center     Atomic      Atomic             Coordinates (Angstroms)
 Number     Number       Type             X           Y           Z
 ---------------------------------------------------------------------
      1          6           0        2.460680    2.774966   -0.172184
      2          6           0        2.096898    2.139272    1.019485
      3          6           0        2.314335    0.768559    1.188053
      4          6           0        2.900360    0.060976    0.139630
      5          6           0        3.273776    0.665760   -1.059573
      6          6           0        3.046924    2.037482   -1.206087
      7          1           0        2.288113    3.840161   -0.294566
      8          1           0        1.641433    2.709497    1.824122
      9          1           0        2.042386    0.251213    2.100092
     10          1           0        3.725919    0.070832   -1.843820
     11          1           0        3.330457    2.528528   -2.132655
     12          7           0        3.135535   -1.390670    0.306412
     13          8           0        3.653417   -1.991678   -0.632323
     14          8           0        2.797529   -1.899975    1.372713
     15          6           0       -4.107277    0.188712    0.096429
     16          6           0       -5.594489   -0.044141   -0.171834
     17          6           0       -6.470727    1.110878    0.313894
     18          1           0       -3.954655    0.338601    1.174012
     19          1           0       -3.794381    1.119806   -0.396069
     20          1           0       -5.904165   -0.975240    0.319870
     21          1           0       -5.743563   -0.193684   -1.248881
     22          1           0       -6.189951    2.043842   -0.185448
     23          1           0       -6.351466    1.257846    1.392216
     24          1           0       -7.530005    0.923570    0.112132
     25          6           0       -3.218421   -0.957289   -0.383514
     26          6           0       -1.731209   -0.724435   -0.115251
     27          6           0       -0.854971   -1.879454   -0.600979
     28          1           0       -3.531317   -1.888382    0.108984
     29          1           0       -3.371044   -1.107178   -1.461096
     30          1           0       -1.582135   -0.574892    0.961796
     31          1           0       -1.421532    0.206664   -0.606955
     32          1           0       -0.974233   -2.026422   -1.679300
     33          1           0       -1.135748   -2.812418   -0.101636
     34          1           0        0.204306   -1.692146   -0.399216
 ---------------------------------------------------------------------

 SCF Done:  E(RHF) =  -669.535590398     A.U. after   15 cycles
 E2 =    -0.2091800426D+01 EUMP2 =    -0.67162739082324D+03

 The electronic state is 1-A.
 Alpha  occ. eigenvalues --  -20.60816 -20.60810 -15.85858 -11.31220 -11.27791
 Alpha  occ. eigenvalues --  -11.27785 -11.27530 -11.26802 -11.26792 -11.21633
 Alpha  occ. eigenvalues --  -11.21478 -11.21417 -11.21292 -11.21148 -11.20725
 Alpha  occ. eigenvalues --   -1.59893  -1.39444  -1.19394  -1.08795  -1.08391
 Alpha  occ. eigenvalues --   -1.04792  -1.03453  -0.95889  -0.95628  -0.86901
 Alpha  occ. eigenvalues --   -0.86192  -0.82455  -0.79521  -0.78209  -0.77505
 Alpha  occ. eigenvalues --   -0.72079  -0.71243  -0.70499  -0.65046  -0.65022
 Alpha  occ. eigenvalues --   -0.64794  -0.62139  -0.60846  -0.59271  -0.57513
 Alpha  occ. eigenvalues --   -0.55296  -0.55170  -0.53135  -0.52884  -0.52556
 Alpha  occ. eigenvalues --   -0.52307  -0.49823  -0.48839  -0.48836  -0.47840
 Alpha  occ. eigenvalues --   -0.46563  -0.45747  -0.45676  -0.44842  -0.43709
 Alpha  occ. eigenvalues --   -0.37366  -0.36387
 Alpha virt. eigenvalues --    0.05019   0.11242   0.16504   0.21370   0.22866
 Alpha virt. eigenvalues --    0.24220   0.26629   0.27215   0.27519   0.27839
 Alpha virt. eigenvalues --    0.28353   0.30609   0.31485   0.31676   0.31859

 Mulliken charges:
               1
     1  C   -0.170807
     2  C   -0.217980
     3  C   -0.170846
     4  C    0.155146
     5  C   -0.171096
     6  C   -0.218615
     7  H    0.225726
     8  H    0.223767
     9  H    0.275869
    10  H    0.275920
    11  H    0.223531
    12  N    0.490176
    13  O   -0.459144
    14  O   -0.459405
    15  C   -0.297687
    16  C   -0.299586
    17  C   -0.475555
    18  H    0.148449
    19  H    0.147121
    20  H    0.152970
    21  H    0.152109
    22  H    0.153902
    23  H    0.154719
    24  H    0.160595
    25  C   -0.298384
    26  C   -0.299842
    27  C   -0.473421
    28  H    0.151199
    29  H    0.149617
    30  H    0.149518
    31  H    0.148818
    32  H    0.154080
    33  H    0.159929
    34  H    0.159211
 Sum of Mulliken charges =  -0.00000

 Dipole moment (field-independent basis, Debye):
    X=             -0.7769    Y=              5.0656    Z=             -0.5879  Tot=              5.1585
 Quadrupole moment (field-independent basis, Debye-Ang):
   XX=           -100.2500   YY=            -94.9064   ZZ=            -90.0710
   XY=             15.6102   XZ=             -3.8273   YZ=              0.2424

 Normal termination of Gaussian 16 at Wed May  5 19:07:50 2021.
