 Gaussian 16, Revision A.03,
 Gaussian 16:  EM64L-G16RevA.03 25-Dec-2016

 -------------
 #p 6-31g* mp2
 -------------

 ------------------------------------------------------
 Input file generated by CHIRIPA (05-May-2021 14:55:20)
 ------------------------------------------------------
 Symbolic Z-matrix:
 Charge =  0 Multiplicity = 1

                         Standard orientation:
 ---------------------------------------------------------------------
 Center     Atomic      Atomic             Coordinates (Angstroms)
 Number     Number       Type             X           Y           Z
 ---------------------------------------------------------------------
      1          6           0        4.674396    0.621192   -1.356143
      2          6           0        4.386755   -0.746450   -1.413917
      3          6           0        3.393297   -1.298076   -0.599485
      4          6           0        2.703953   -0.449103    0.265003
      5          6           0        2.967429    0.917417    0.345577
      6          6           0        3.965066    1.447305   -0.478128
      7          1           0        5.447761    1.041265   -1.992415
      8          1           0        4.936023   -1.390415   -2.094842
      9          1           0        3.150225   -2.353413   -0.623908
     10          1           0        2.402954    1.534116    1.034394
     11          1           0        4.186314    2.509795   -0.431131
     12          7           0        1.650012   -1.021578    1.132114
     13          8           0        1.056999   -0.252324    1.885256
     14          8           0        1.436903   -2.228696    1.042195
     15          6           0       -4.042361   -0.165586   -0.421964
     16          6           0       -5.565946   -0.065309   -0.340619
     17          6           0       -6.269888   -1.312617   -0.875859
     18          1           0       -3.747658   -0.334811   -1.466693
     19          1           0       -3.709163   -1.046870    0.143465
     20          1           0       -5.896058    0.816308   -0.904883
     21          1           0       -5.857046    0.103889    0.704009
     22          1           0       -5.969103   -2.198567   -0.307333
     23          1           0       -6.008337   -1.482099   -1.925368
     24          1           0       -7.358289   -1.219502   -0.808237
     25          6           0       -3.324437    1.073752    0.109407
     26          6           0       -1.800852    0.973475    0.028061
     27          6           0       -1.096911    2.220783    0.563302
     28          1           0       -3.657636    1.955037   -0.456023
     29          1           0       -3.619141    1.242977    1.154136
     30          1           0       -1.509752    0.804277   -1.016568
     31          1           0       -1.470740    0.091858    0.592325
     32          1           0       -1.358461    2.390266    1.612810
     33          1           0       -1.397695    3.106734   -0.005225
     34          1           0       -0.008510    2.127669    0.495680
 ---------------------------------------------------------------------

 SCF Done:  E(RHF) =  -669.535771949     A.U. after   15 cycles
 E2 =    -0.2092628021D+01 EUMP2 =    -0.67162839996951D+03

 The electronic state is 1-A.
 Alpha  occ. eigenvalues --  -20.60962 -20.60942 -15.85969 -11.31294 -11.27848
 Alpha  occ. eigenvalues --  -11.27844 -11.27584 -11.26860 -11.26850 -11.21047
 Alpha  occ. eigenvalues --  -11.20709 -11.20657 -11.20602 -11.20584 -11.20337
 Alpha  occ. eigenvalues --   -1.60009  -1.39566  -1.19458  -1.08862  -1.07715
 Alpha  occ. eigenvalues --   -1.04854  -1.02830  -0.95715  -0.95305  -0.86360
 Alpha  occ. eigenvalues --   -0.86237  -0.82540  -0.78910  -0.77599  -0.77522
 Alpha  occ. eigenvalues --   -0.72203  -0.71325  -0.70570  -0.65116  -0.64863
 Alpha  occ. eigenvalues --   -0.64331  -0.62223  -0.60205  -0.58690  -0.56924
 Alpha  occ. eigenvalues --   -0.55356  -0.54592  -0.53187  -0.52972  -0.52011
 Alpha  occ. eigenvalues --   -0.51742  -0.49277  -0.48967  -0.48941  -0.47215
 Alpha  occ. eigenvalues --   -0.45940  -0.45177  -0.45074  -0.44661  -0.43103
 Alpha  occ. eigenvalues --   -0.37430  -0.36445
 Alpha virt. eigenvalues --    0.04883   0.11107   0.16385   0.21112   0.23594
 Alpha virt. eigenvalues --    0.24715   0.26773   0.27374   0.27768   0.28294
 Alpha virt. eigenvalues --    0.29042   0.30510   0.31515   0.32077   0.32511

 Mulliken charges:
               1
     1  C   -0.170556
     2  C   -0.218314
     3  C   -0.170809
     4  C    0.158852
     5  C   -0.171866
     6  C   -0.219125
     7  H    0.226051
     8  H    0.223861
     9  H    0.275832
    10  H    0.278268
    11  H    0.224242
    12  N    0.488189
    13  O   -0.458692
    14  O   -0.459206
    15  C   -0.298745
    16  C   -0.299162
    17  C   -0.475449
    18  H    0.146932
    19  H    0.154508
    20  H    0.149662
    21  H    0.152044
    22  H    0.156426
    23  H    0.153709
    24  H    0.158347
    25  C   -0.297930
    26  C   -0.307157
    27  C   -0.470010
    28  H    0.144860
    29  H    0.150617
    30  H    0.143733
    31  H    0.173423
    32  H    0.158605
    33  H    0.146400
    34  H    0.152461
 Sum of Mulliken charges =  -0.00000

 Dipole moment (field-independent basis, Debye):
    X=              3.9056    Y=              1.8497    Z=             -2.9175  Tot=              5.2141
 Quadrupole moment (field-independent basis, Debye-Ang):
   XX=            -76.0217   YY=            -93.4979   ZZ=            -95.5206
   XY=              2.6749   XZ=             -8.5266   YZ=              3.3294

 Normal termination of Gaussian 16 at Wed May  5 15:54:02 2021.
