 Gaussian 16, Revision A.03,
 Gaussian 16:  EM64L-G16RevA.03 25-Dec-2016

 -------------
 #p 6-31g* mp2
 -------------

 ------------------------------------------------------
 Input file generated by CHIRIPA (05-May-2021 14:53:16)
 ------------------------------------------------------
 Symbolic Z-matrix:
 Charge =  0 Multiplicity = 1

                         Standard orientation:
 ---------------------------------------------------------------------
 Center     Atomic      Atomic             Coordinates (Angstroms)
 Number     Number       Type             X           Y           Z
 ---------------------------------------------------------------------
      1          6           0        3.179047    1.023046    0.210955
      2          6           0        3.144510    2.201942   -0.762182
      3          6           0        3.085158    3.554094   -0.050877
      4          1           0        2.289930    1.061381    0.855119
      5          1           0        4.049556    1.128581    0.873127
      6          1           0        2.275101    2.093487   -1.423228
      7          1           0        4.033715    2.160687   -1.404232
      8          1           0        3.958753    3.688168    0.595232
      9          1           0        2.190147    3.620586    0.576128
     10          1           0        3.061207    4.382853   -0.765331
     11          6           0        3.238479   -0.335525   -0.485093
     12          6           0        3.273015   -1.514421    0.488044
     13          6           0        3.332367   -2.866573   -0.223261
     14          1           0        2.367970   -0.441060   -1.147265
     15          1           0        4.127595   -0.373860   -1.129257
     16          1           0        2.383810   -1.473167    1.130094
     17          1           0        4.142424   -1.405966    1.149090
     18          1           0        4.227378   -2.933065   -0.850266
     19          1           0        2.458772   -3.000647   -0.869370
     20          1           0        3.356318   -3.695332    0.491193
     21          6           0       -0.555897   -1.831709    0.448114
     22          6           0       -0.738763   -0.742743    1.306740
     23          6           0       -1.816203    0.129865    1.127227
     24          6           0       -2.695457   -0.117444    0.074115
     25          6           0       -2.540112   -1.193696   -0.798146
     26          6           0       -1.455570   -2.053318   -0.599741
     27          1           0        0.283842   -2.504528    0.594902
     28          1           0       -0.041649   -0.568187    2.121360
     29          1           0       -1.981463    0.980590    1.777129
     30          1           0       -3.251708   -1.341864   -1.601325
     31          1           0       -1.316037   -2.898216   -1.268114
     32          7           0       -3.839853    0.799474   -0.125927
     33          8           0       -4.600397    0.559779   -1.061212
     34          8           0       -3.954620    1.740486    0.656353
 ---------------------------------------------------------------------

 SCF Done:  E(RHF) =  -669.535105031     A.U. after   15 cycles
 E2 =    -0.2093180019D+01 EUMP2 =    -0.67162828505045D+03

 The electronic state is 1-A.
 Alpha  occ. eigenvalues --  -20.60799 -20.60794 -15.85854 -11.31234 -11.27814
 Alpha  occ. eigenvalues --  -11.27808 -11.27506 -11.26823 -11.26809 -11.22694
 Alpha  occ. eigenvalues --  -11.22232 -11.22136 -11.22035 -11.21975 -11.21385
 Alpha  occ. eigenvalues --   -1.59875  -1.39428  -1.19412  -1.09181  -1.08789
 Alpha  occ. eigenvalues --   -1.04818  -1.04280  -0.96713  -0.95631  -0.87729
 Alpha  occ. eigenvalues --   -0.86215  -0.82466  -0.80367  -0.78934  -0.77510
 Alpha  occ. eigenvalues --   -0.72072  -0.71199  -0.70577  -0.65854  -0.65058
 Alpha  occ. eigenvalues --   -0.64777  -0.62168  -0.61684  -0.60113  -0.58303
 Alpha  occ. eigenvalues --   -0.56126  -0.55129  -0.53417  -0.53134  -0.53124
 Alpha  occ. eigenvalues --   -0.52905  -0.50679  -0.48832  -0.48827  -0.48657
 Alpha  occ. eigenvalues --   -0.47418  -0.46480  -0.46360  -0.44830  -0.44499
 Alpha  occ. eigenvalues --   -0.37362  -0.36417
 Alpha virt. eigenvalues --    0.04998   0.11107   0.16378   0.19341   0.22902
 Alpha virt. eigenvalues --    0.23426   0.24686   0.26137   0.26868   0.28542
 Alpha virt. eigenvalues --    0.29272   0.30519   0.30750   0.31335   0.31954

 Mulliken charges:
               1
     1  C   -0.298679
     2  C   -0.300657
     3  C   -0.476063
     4  H    0.146235
     5  H    0.150166
     6  H    0.154969
     7  H    0.152821
     8  H    0.155032
     9  H    0.155593
    10  H    0.163159
    11  C   -0.298938
    12  C   -0.302743
    13  C   -0.480047
    14  H    0.152605
    15  H    0.152648
    16  H    0.140964
    17  H    0.157173
    18  H    0.162947
    19  H    0.149516
    20  H    0.160729
    21  C   -0.173718
    22  C   -0.220679
    23  C   -0.171408
    24  C    0.158207
    25  C   -0.170450
    26  C   -0.221135
    27  H    0.234268
    28  H    0.224607
    29  H    0.275771
    30  H    0.275837
    31  H    0.223760
    32  N    0.488084
    33  O   -0.460263
    34  O   -0.460310
 Sum of Mulliken charges =  -0.00000

 Dipole moment (field-independent basis, Debye):
    X=              4.1476    Y=             -3.1594    Z=              0.6183  Tot=              5.2504
 Quadrupole moment (field-independent basis, Debye-Ang):
   XX=           -115.1344   YY=            -93.9741   ZZ=            -92.0193
   XY=              9.3369   XZ=             -0.4630   YZ=              1.7781

 Normal termination of Gaussian 16 at Thu May  6 12:14:11 2021.
