 Gaussian 16, Revision A.03,
 Gaussian 16:  EM64L-G16RevA.03 25-Dec-2016

 -------------
 #p 6-31g* mp2
 -------------

 ------------------------------------------------------
 Input file generated by CHIRIPA (05-May-2021 14:53:14)
 ------------------------------------------------------
 Symbolic Z-matrix:
 Charge =  0 Multiplicity = 1

                         Standard orientation:
 ---------------------------------------------------------------------
 Center     Atomic      Atomic             Coordinates (Angstroms)
 Number     Number       Type             X           Y           Z
 ---------------------------------------------------------------------
      1          6           0        5.399383   -0.011736    0.130764
      2          6           0        5.853535   -0.948152   -0.989439
      3          6           0        7.162262   -1.668476   -0.663618
      4          1           0        6.188358    0.727893    0.324189
      5          1           0        5.279652   -0.590536    1.057074
      6          1           0        5.971039   -0.368008   -1.913691
      7          1           0        5.063308   -1.685518   -1.180351
      8          1           0        7.054562   -2.271401    0.243842
      9          1           0        7.967451   -0.946404   -0.493665
     10          1           0        7.468448   -2.332646   -1.477860
     11          6           0        4.092477    0.715615   -0.180180
     12          6           0        3.638325    1.652031    0.940023
     13          6           0        2.329598    2.372356    0.614202
     14          1           0        4.212208    1.294415   -1.106490
     15          1           0        3.303502   -0.024013   -0.373605
     16          1           0        4.428553    2.389398    1.130934
     17          1           0        3.520821    1.071887    1.864275
     18          1           0        1.524409    1.650283    0.444249
     19          1           0        2.437299    2.975280   -0.293258
     20          1           0        2.023412    3.036525    1.428443
     21          6           0       -1.472127   -1.065464    0.881260
     22          6           0       -2.605285   -1.871528    1.032042
     23          6           0       -3.849098   -1.443678    0.558308
     24          6           0       -3.923891   -0.198529   -0.064028
     25          6           0       -2.813118    0.627408   -0.229263
     26          6           0       -1.579470    0.179236    0.252199
     27          1           0       -0.509852   -1.405721    1.252270
     28          1           0       -2.524895   -2.838643    1.520172
     29          1           0       -4.742429   -2.047556    0.661794
     30          1           0       -2.924593    1.586582   -0.720158
     31          1           0       -0.701131    0.807348    0.133712
     32          7           0       -5.235278    0.265173   -0.569639
     33          8           0       -5.274713    1.366283   -1.114285
     34          8           0       -6.198877   -0.481268   -0.411718
 ---------------------------------------------------------------------

 SCF Done:  E(RHF) =  -669.535459100     A.U. after   15 cycles
 E2 =    -0.2090804320D+01 EUMP2 =    -0.67162626342024D+03

 The electronic state is 1-A.
 Alpha  occ. eigenvalues --  -20.60734 -20.60729 -15.85787 -11.31153 -11.27723
 Alpha  occ. eigenvalues --  -11.27712 -11.27470 -11.26745 -11.26710 -11.22480
 Alpha  occ. eigenvalues --  -11.22183 -11.22169 -11.22161 -11.22021 -11.21544
 Alpha  occ. eigenvalues --   -1.59810  -1.39363  -1.19325  -1.09167  -1.08723
 Alpha  occ. eigenvalues --   -1.04728  -1.04274  -0.96736  -0.95557  -0.87757
 Alpha  occ. eigenvalues --   -0.86129  -0.82389  -0.80342  -0.78955  -0.77435
 Alpha  occ. eigenvalues --   -0.72006  -0.71133  -0.70440  -0.65812  -0.64978
 Alpha  occ. eigenvalues --   -0.64753  -0.62127  -0.61637  -0.60099  -0.58327
 Alpha  occ. eigenvalues --   -0.56053  -0.55233  -0.53425  -0.53218  -0.53059
 Alpha  occ. eigenvalues --   -0.52767  -0.50672  -0.48779  -0.48761  -0.48634
 Alpha  occ. eigenvalues --   -0.47370  -0.46503  -0.46413  -0.44769  -0.44514
 Alpha  occ. eigenvalues --   -0.37311  -0.36329
 Alpha virt. eigenvalues --    0.05100   0.11321   0.16592   0.19521   0.22429
 Alpha virt. eigenvalues --    0.23731   0.25108   0.26184   0.26953   0.28221
 Alpha virt. eigenvalues --    0.28533   0.30121   0.30997   0.31345   0.31848

 Mulliken charges:
               1
     1  C   -0.298696
     2  C   -0.299978
     3  C   -0.476047
     4  H    0.151804
     5  H    0.149029
     6  H    0.153431
     7  H    0.151079
     8  H    0.155124
     9  H    0.156372
    10  H    0.161855
    11  C   -0.298020
    12  C   -0.299905
    13  C   -0.480374
    14  H    0.152190
    15  H    0.144934
    16  H    0.156455
    17  H    0.151439
    18  H    0.145123
    19  H    0.160172
    20  H    0.164898
    21  C   -0.173424
    22  C   -0.218549
    23  C   -0.171335
    24  C    0.159076
    25  C   -0.173002
    26  C   -0.226508
    27  H    0.224690
    28  H    0.223196
    29  H    0.275469
    30  H    0.276515
    31  H    0.235993
    32  N    0.487950
    33  O   -0.460328
    34  O   -0.460628
 Sum of Mulliken charges =  -0.00000

 Dipole moment (field-independent basis, Debye):
    X=              4.8467    Y=             -1.5726    Z=              1.7769  Tot=              5.3964
 Quadrupole moment (field-independent basis, Debye-Ang):
   XX=           -130.3661   YY=            -90.2150   ZZ=            -95.0557
   XY=              8.7946   XZ=             -8.4439   YZ=             -2.1239

 Normal termination of Gaussian 16 at Thu May  6 13:47:00 2021.
