 Gaussian 16, Revision A.03,
 Gaussian 16:  EM64L-G16RevA.03 25-Dec-2016

 -------------
 #p 6-31g* mp2
 -------------

 ------------------------------------------------------
 Input file generated by CHIRIPA (05-May-2021 14:57:23)
 ------------------------------------------------------
 Symbolic Z-matrix:
 Charge =  0 Multiplicity = 1

                         Standard orientation:
 ---------------------------------------------------------------------
 Center     Atomic      Atomic             Coordinates (Angstroms)
 Number     Number       Type             X           Y           Z
 ---------------------------------------------------------------------
      1          6           0       -5.373287    0.503119   -0.188977
      2          6           0       -4.701193   -0.203165   -1.191959
      3          6           0       -3.379472   -0.618286   -1.004138
      4          6           0       -2.757466   -0.308687    0.204393
      5          6           0       -3.400356    0.393465    1.222707
      6          6           0       -4.721872    0.798659    1.013036
      7          1           0       -6.399952    0.821739   -0.343368
      8          1           0       -5.204592   -0.434086   -2.126470
      9          1           0       -2.835571   -1.166422   -1.763832
     10          1           0       -2.872215    0.608899    2.143617
     11          1           0       -5.241357    1.347026    1.793725
     12          7           0       -1.358328   -0.742902    0.414797
     13          8           0       -0.832567   -0.457684    1.488511
     14          8           0       -0.813937   -1.360236   -0.497988
     15          6           0        3.495523   -2.211850    0.163356
     16          6           0        2.711185   -1.800436   -0.919267
     17          6           0        2.423629   -0.446153   -1.113629
     18          6           0        2.939001    0.473881   -0.201916
     19          6           0        3.723483    0.095213    0.886427
     20          6           0        3.998283   -1.264382    1.061164
     21          1           0        3.713950   -3.265953    0.306720
     22          1           0        2.319398   -2.534036   -1.618107
     23          1           0        1.819089   -0.100091   -1.943201
     24          1           0        4.099943    0.849844    1.566299
     25          1           0        4.607691   -1.581003    1.902840
     26          7           0        2.641331    1.910412   -0.397292
     27          8           0        3.107272    2.701256    0.420085
     28          8           0        1.947713    2.218320   -1.364103
 ---------------------------------------------------------------------

 SCF Done:  E(RHF) =  -868.338969888     A.U. after   15 cycles
 E2 =    -0.2599956121D+01 EUMP2 =    -0.87093892600916D+03

 The electronic state is 1-A.
 Alpha  occ. eigenvalues --  -20.61055 -20.61007 -20.59654 -20.59641 -15.86068
 Alpha  occ. eigenvalues --  -15.84692 -11.31255 -11.29691 -11.27830 -11.27787
 Alpha  occ. eigenvalues --  -11.27526 -11.26800 -11.26773 -11.26303 -11.26210
 Alpha  occ. eigenvalues --  -11.26007 -11.25298 -11.25162  -1.60090  -1.58727
 Alpha  occ. eigenvalues --   -1.39655  -1.38294  -1.19412  -1.17847  -1.08842
 Alpha  occ. eigenvalues --   -1.07340  -1.04795  -1.03212  -0.95710  -0.94232
 Alpha  occ. eigenvalues --   -0.86203  -0.84667  -0.82559  -0.81086  -0.77620
 Alpha  occ. eigenvalues --   -0.76159  -0.72312  -0.71397  -0.70937  -0.70532
 Alpha  occ. eigenvalues --   -0.70025  -0.69047  -0.65077  -0.64805  -0.63543
 Alpha  occ. eigenvalues --   -0.63285  -0.62151  -0.60610  -0.55312  -0.53824
 Alpha  occ. eigenvalues --   -0.53124  -0.52893  -0.51582  -0.51368  -0.49051
 Alpha  occ. eigenvalues --   -0.48977  -0.47697  -0.47657  -0.45104  -0.43783
 Alpha  occ. eigenvalues --   -0.37382  -0.36384  -0.35832  -0.34672
 Alpha virt. eigenvalues --    0.04889   0.06403   0.11272   0.12890   0.16437
 Alpha virt. eigenvalues --    0.17941   0.21393   0.22758   0.27305   0.28224
 Alpha virt. eigenvalues --    0.28693   0.29601   0.30963   0.32247   0.32478

 Mulliken charges:
               1
     1  C   -0.169965
     2  C   -0.218171
     3  C   -0.169703
     4  C    0.159695
     5  C   -0.169308
     6  C   -0.218228
     7  H    0.226278
     8  H    0.223472
     9  H    0.272716
    10  H    0.276599
    11  H    0.224472
    12  N    0.489900
    13  O   -0.457172
    14  O   -0.468303
    15  C   -0.170405
    16  C   -0.205055
    17  C   -0.153790
    18  C    0.158061
    19  C   -0.169591
    20  C   -0.217669
    21  H    0.219949
    22  H    0.220355
    23  H    0.271078
    24  H    0.270159
    25  H    0.217302
    26  N    0.488648
    27  O   -0.464934
    28  O   -0.466388
 Sum of Mulliken charges =  -0.00000

 Dipole moment (field-independent basis, Debye):
    X=             -4.2453    Y=             -3.6176    Z=             -0.0293  Tot=              5.5776
 Quadrupole moment (field-independent basis, Debye-Ang):
   XX=            -71.9615   YY=           -111.2469   ZZ=            -98.3860
   XY=            -17.0864   XZ=              5.1571   YZ=              5.3105

 Normal termination of Gaussian 16 at Fri May  7 09:28:03 2021.
