 Gaussian 16, Revision A.03,
 Gaussian 16:  EM64L-G16RevA.03 25-Dec-2016

 -------------
 #p 6-31g* mp2
 -------------

 ------------------------------------------------------
 Input file generated by CHIRIPA (05-May-2021 14:53:15)
 ------------------------------------------------------
 Symbolic Z-matrix:
 Charge =  0 Multiplicity = 1

                         Standard orientation:
 ---------------------------------------------------------------------
 Center     Atomic      Atomic             Coordinates (Angstroms)
 Number     Number       Type             X           Y           Z
 ---------------------------------------------------------------------
      1          6           0       -4.937353    0.308330    0.273998
      2          6           0       -6.138465    0.344884   -0.671507
      3          6           0       -7.214265    1.334303   -0.222620
      4          1           0       -5.281393    0.045041    1.283582
      5          1           0       -4.504044    1.315656    0.344228
      6          1           0       -6.568538   -0.662500   -0.741010
      7          1           0       -5.791499    0.607929   -1.678997
      8          1           0       -6.806901    2.349195   -0.171142
      9          1           0       -7.588355    1.071548    0.772175
     10          1           0       -8.063653    1.344268   -0.912766
     11          6           0       -3.853370   -0.676125   -0.161384
     12          6           0       -2.652257   -0.712678    0.784121
     13          6           0       -1.576458   -1.702098    0.335235
     14          1           0       -4.286678   -1.683451   -0.231613
     15          1           0       -3.509329   -0.412835   -1.170968
     16          1           0       -2.999223   -0.975724    1.791612
     17          1           0       -2.222184    0.294706    0.853624
     18          1           0       -1.202368   -1.439342   -0.659560
     19          1           0       -1.983822   -2.716990    0.283757
     20          1           0       -0.727070   -1.712063    1.025380
     21          6           0        3.903833    2.619614    0.077505
     22          6           0        2.601384    2.144414    0.262788
     23          6           0        2.329373    0.774628    0.197640
     24          6           0        3.388442   -0.095696   -0.055735
     25          6           0        4.696732    0.346986   -0.244682
     26          6           0        4.945514    1.720968   -0.175193
     27          1           0        4.106116    3.685327    0.129800
     28          1           0        1.790439    2.840001    0.459187
     29          1           0        1.330437    0.379591    0.337249
     30          1           0        5.484446   -0.370793   -0.438897
     31          1           0        5.957997    2.087169   -0.319489
     32          7           0        3.112773   -1.548048   -0.127003
     33          8           0        4.063270   -2.294217   -0.351549
     34          8           0        1.951423   -1.912731    0.043034
 ---------------------------------------------------------------------

 SCF Done:  E(RHF) =  -669.535583704     A.U. after   15 cycles
 E2 =    -0.2091177515D+01 EUMP2 =    -0.67162676121830D+03

 The electronic state is 1-A.
 Alpha  occ. eigenvalues --  -20.60815 -20.60803 -15.85856 -11.31216 -11.27788
 Alpha  occ. eigenvalues --  -11.27776 -11.27534 -11.26805 -11.26795 -11.21505
 Alpha  occ. eigenvalues --  -11.21282 -11.21258 -11.21125 -11.21023 -11.20234
 Alpha  occ. eigenvalues --   -1.59885  -1.39439  -1.19391  -1.08789  -1.08223
 Alpha  occ. eigenvalues --   -1.04793  -1.03254  -0.95697  -0.95586  -0.86658
 Alpha  occ. eigenvalues --   -0.86192  -0.82458  -0.79319  -0.78042  -0.77497
 Alpha  occ. eigenvalues --   -0.72083  -0.71204  -0.70500  -0.65048  -0.64874
 Alpha  occ. eigenvalues --   -0.64790  -0.62146  -0.60662  -0.59038  -0.57277
 Alpha  occ. eigenvalues --   -0.55299  -0.54953  -0.53125  -0.52888  -0.52287
 Alpha  occ. eigenvalues --   -0.52076  -0.49616  -0.48837  -0.48810  -0.47622
 Alpha  occ. eigenvalues --   -0.46384  -0.45568  -0.45521  -0.44834  -0.43468
 Alpha  occ. eigenvalues --   -0.37375  -0.36398
 Alpha virt. eigenvalues --    0.05012   0.11253   0.16501   0.20670   0.22903
 Alpha virt. eigenvalues --    0.23914   0.26591   0.27168   0.27653   0.27733
 Alpha virt. eigenvalues --    0.29228   0.31068   0.31604   0.32003   0.32182

 Mulliken charges:
               1
     1  C   -0.297411
     2  C   -0.299432
     3  C   -0.475449
     4  H    0.149557
     5  H    0.146197
     6  H    0.152770
     7  H    0.151422
     8  H    0.153759
     9  H    0.155192
    10  H    0.160080
    11  C   -0.297545
    12  C   -0.301100
    13  C   -0.477308
    14  H    0.151157
    15  H    0.148565
    16  H    0.151149
    17  H    0.140767
    18  H    0.155903
    19  H    0.156133
    20  H    0.173921
    21  C   -0.170540
    22  C   -0.219471
    23  C   -0.173207
    24  C    0.157324
    25  C   -0.170692
    26  C   -0.218742
    27  H    0.225685
    28  H    0.223703
    29  H    0.280324
    30  H    0.275643
    31  H    0.223533
    32  N    0.492087
    33  O   -0.460020
    34  O   -0.463954
 Sum of Mulliken charges =  -0.00000

 Dipole moment (field-independent basis, Debye):
    X=              1.1096    Y=              4.9871    Z=              0.2420  Tot=              5.1147
 Quadrupole moment (field-independent basis, Debye-Ang):
   XX=            -84.4744   YY=            -95.8573   ZZ=            -95.3090
   XY=             17.6758   XZ=             -0.2585   YZ=             -0.7120

 Normal termination of Gaussian 16 at Thu May  6 13:48:43 2021.
