 Gaussian 16, Revision A.03,
 Gaussian 16:  EM64L-G16RevA.03 25-Dec-2016

 -------------
 #p 6-31g* mp2
 -------------

 ------------------------------------------------------
 Input file generated by CHIRIPA (05-May-2021 14:53:17)
 ------------------------------------------------------
 Symbolic Z-matrix:
 Charge =  0 Multiplicity = 1

                         Standard orientation:
 ---------------------------------------------------------------------
 Center     Atomic      Atomic             Coordinates (Angstroms)
 Number     Number       Type             X           Y           Z
 ---------------------------------------------------------------------
      1          6           0        2.466322    1.360745    0.083069
      2          6           0        1.194029    1.886466   -0.582418
      3          6           0        0.608830    3.101516    0.137989
      4          1           0        2.245129    1.098596    1.126763
      5          1           0        3.214443    2.164931    0.114597
      6          1           0        0.449016    1.081122   -0.613928
      7          1           0        1.418232    2.147214   -1.624704
      8          1           0        1.332023    3.923238    0.157143
      9          1           0        0.357301    2.851089    1.173663
     10          1           0       -0.300099    3.460933   -0.354481
     11          6           0        3.063211    0.146168   -0.625629
     12          6           0        4.335504   -0.379553    0.039859
     13          6           0        4.920703   -1.594604   -0.680549
     14          1           0        2.315090   -0.658018   -0.657157
     15          1           0        3.284405    0.408317   -1.669323
     16          1           0        4.111301   -0.640301    1.082144
     17          1           0        5.080517    0.425791    0.071368
     18          1           0        5.172232   -1.344176   -1.716223
     19          1           0        4.197510   -2.416325   -0.699703
     20          1           0        5.829632   -1.954020   -0.188079
     21          6           0       -4.237981    0.334656   -0.881378
     22          6           0       -3.618864    1.041846    0.154527
     23          6           0       -2.467050    0.539808    0.767576
     24          6           0       -1.959080   -0.677898    0.317635
     25          6           0       -2.553086   -1.405978   -0.712096
     26          6           0       -3.704058   -0.884848   -1.310627
     27          1           0       -5.132410    0.732067   -1.351970
     28          1           0       -4.031297    1.989178    0.489947
     29          1           0       -1.967602    1.066565    1.571627
     30          1           0       -2.118571   -2.347710   -1.024755
     31          1           0       -4.182760   -1.436233   -2.114904
     32          7           0       -0.740152   -1.219489    0.958958
     33          8           0       -0.312370   -2.294498    0.544236
     34          8           0       -0.235619   -0.558724    1.864205
 ---------------------------------------------------------------------

 SCF Done:  E(RHF) =  -669.536381171     A.U. after   15 cycles
 E2 =    -0.2094067750D+01 EUMP2 =    -0.67163044892091D+03

 The electronic state is 1-A.
 Alpha  occ. eigenvalues --  -20.61065 -20.61057 -15.86067 -11.31320 -11.27884
 Alpha  occ. eigenvalues --  -11.27873 -11.27609 -11.26871 -11.26858 -11.21091
 Alpha  occ. eigenvalues --  -11.20810 -11.20614 -11.20424 -11.20353 -11.20167
 Alpha  occ. eigenvalues --   -1.60110  -1.39667  -1.19492  -1.08910  -1.07571
 Alpha  occ. eigenvalues --   -1.04872  -1.02805  -0.95759  -0.95252  -0.86301
 Alpha  occ. eigenvalues --   -0.86263  -0.82593  -0.78891  -0.77657  -0.77358
 Alpha  occ. eigenvalues --   -0.72295  -0.71461  -0.70597  -0.65149  -0.64876
 Alpha  occ. eigenvalues --   -0.64137  -0.62225  -0.60192  -0.58665  -0.56869
 Alpha  occ. eigenvalues --   -0.55383  -0.54541  -0.53184  -0.52956  -0.52021
 Alpha  occ. eigenvalues --   -0.51696  -0.49210  -0.49061  -0.49043  -0.47221
 Alpha  occ. eigenvalues --   -0.45909  -0.45151  -0.44894  -0.44650  -0.43012
 Alpha  occ. eigenvalues --   -0.37442  -0.36454
 Alpha virt. eigenvalues --    0.04813   0.11141   0.16291   0.20986   0.23441
 Alpha virt. eigenvalues --    0.24721   0.26820   0.27189   0.27765   0.28609
 Alpha virt. eigenvalues --    0.29116   0.30357   0.31630   0.32037   0.32569

 Mulliken charges:
               1
     1  C   -0.302557
     2  C   -0.296072
     3  C   -0.478557
     4  H    0.167618
     5  H    0.143789
     6  H    0.145028
     7  H    0.148497
     8  H    0.155597
     9  H    0.157135
    10  H    0.152297
    11  C   -0.301105
    12  C   -0.299435
    13  C   -0.476553
    14  H    0.159282
    15  H    0.142920
    16  H    0.159091
    17  H    0.147021
    18  H    0.150701
    19  H    0.160554
    20  H    0.157420
    21  C   -0.170169
    22  C   -0.219037
    23  C   -0.169387
    24  C    0.155145
    25  C   -0.171032
    26  C   -0.218587
    27  H    0.226235
    28  H    0.224415
    29  H    0.277444
    30  H    0.275965
    31  H    0.223993
    32  N    0.491223
    33  O   -0.459039
    34  O   -0.459839
 Sum of Mulliken charges =  -0.00000

 Dipole moment (field-independent basis, Debye):
    X=             -4.4517    Y=              1.7259    Z=             -2.0917  Tot=              5.2126
 Quadrupole moment (field-independent basis, Debye-Ang):
   XX=            -78.8843   YY=            -95.2388   ZZ=            -94.7488
   XY=             -0.0990   XZ=              3.7253   YZ=              4.3830

 Normal termination of Gaussian 16 at Thu May  6 13:56:21 2021.
