 Gaussian 16, Revision A.03,
 Gaussian 16:  EM64L-G16RevA.03 25-Dec-2016

 -------------
 #p 6-31g* mp2
 -------------

 ------------------------------------------------------
 Input file generated by CHIRIPA (05-May-2021 14:51:08)
 ------------------------------------------------------
 Symbolic Z-matrix:
 Charge =  0 Multiplicity = 1

                         Standard orientation:
 ---------------------------------------------------------------------
 Center     Atomic      Atomic             Coordinates (Angstroms)
 Number     Number       Type             X           Y           Z
 ---------------------------------------------------------------------
      1          6           0       -2.323384   -0.753096    0.779522
      2          6           0       -1.613938   -2.057393    0.414172
      3          6           0       -0.836348   -2.655908    1.586745
      4          1           0       -1.580724   -0.027027    1.137607
      5          1           0       -3.008463   -0.938969    1.618279
      6          1           0       -0.931423   -1.869417   -0.424550
      7          1           0       -2.358349   -2.780378    0.056734
      8          1           0       -1.507733   -2.871659    2.424179
      9          1           0       -0.072700   -1.955523    1.940160
     10          1           0       -0.337011   -3.587725    1.303478
     11          6           0       -3.105033   -0.142589   -0.382388
     12          6           0       -3.814478    1.161708   -0.017037
     13          6           0       -4.592068    1.760223   -1.189611
     14          1           0       -2.419954    0.043284   -1.221144
     15          1           0       -3.847693   -0.868658   -0.740473
     16          1           0       -3.070068    1.884693    0.340401
     17          1           0       -4.496993    0.973732    0.821684
     18          1           0       -5.355717    1.059837   -1.543026
     19          1           0       -3.920684    1.975974   -2.027044
     20          1           0       -5.091405    2.692040   -0.906344
     21          6           0        3.110222   -0.199336   -0.286683
     22          6           0        2.301520   -1.320993   -0.939272
     23          6           0        3.107398   -2.609253   -1.108796
     24          1           0        4.002753    0.002137   -0.894747
     25          1           0        3.470453   -0.539338    0.694147
     26          1           0        1.941758   -0.978483   -1.917982
     27          1           0        1.410710   -1.519688   -0.329686
     28          1           0        3.453898   -2.977501   -0.137748
     29          1           0        3.987962   -2.433220   -1.735070
     30          1           0        2.510102   -3.397743   -1.577176
     31          6           0        2.318195    1.095021   -0.110452
     32          6           0        3.126897    2.216678    0.542137
     33          6           0        2.321018    3.504939    0.711661
     34          1           0        1.957964    1.435023   -1.091281
     35          1           0        1.425662    0.893548    0.497612
     36          1           0        4.017706    2.415372   -0.067449
     37          1           0        3.486659    1.874168    1.520848
     38          1           0        1.440454    3.328906    1.337935
     39          1           0        1.974518    3.873185   -0.259386
     40          1           0        2.918315    4.293428    1.180042
 ---------------------------------------------------------------------

 SCF Done:  E(RHF) =  -470.733127254     A.U. after   11 cycles
 E2 =    -0.1583692257D+01 EUMP2 =    -0.47231681951058D+03

 The electronic state is 1-A.
 Alpha  occ. eigenvalues --  -11.21648 -11.21591 -11.21586 -11.21585 -11.21459
 Alpha  occ. eigenvalues --  -11.21410 -11.21389 -11.21346 -11.21123 -11.21115
 Alpha  occ. eigenvalues --  -11.21077 -11.21061  -1.08486  -1.08420  -1.03595
 Alpha  occ. eigenvalues --   -1.03507  -0.96023  -0.95982  -0.87027  -0.87008
 Alpha  occ. eigenvalues --   -0.79678  -0.79557  -0.78313  -0.78224  -0.65276
 Alpha  occ. eigenvalues --   -0.64921  -0.61194  -0.60735  -0.59419  -0.59308
 Alpha  occ. eigenvalues --   -0.57662  -0.57558  -0.55367  -0.55218  -0.52702
 Alpha  occ. eigenvalues --   -0.52681  -0.52449  -0.52402  -0.49972  -0.49917
 Alpha  occ. eigenvalues --   -0.48075  -0.47836  -0.46780  -0.46515  -0.45991
 Alpha  occ. eigenvalues --   -0.45788  -0.45688  -0.45494  -0.43819  -0.43786
 Alpha virt. eigenvalues --    0.19738   0.23320   0.23507   0.24521   0.25957
 Alpha virt. eigenvalues --    0.26413   0.27173   0.27931   0.28111   0.29628
 Alpha virt. eigenvalues --    0.30841   0.31346   0.31596   0.31703   0.32359

 Mulliken charges:
               1
     1  C   -0.299154
     2  C   -0.305558
     3  C   -0.477151
     4  H    0.149870
     5  H    0.149593
     6  H    0.157178
     7  H    0.152442
     8  H    0.155960
     9  H    0.154202
    10  H    0.160976
    11  C   -0.298353
    12  C   -0.299729
    13  C   -0.475703
    14  H    0.150282
    15  H    0.149586
    16  H    0.152159
    17  H    0.151780
    18  H    0.155094
    19  H    0.155256
    20  H    0.160265
    21  C   -0.297596
    22  C   -0.310340
    23  C   -0.475213
    24  H    0.149855
    25  H    0.149546
    26  H    0.150951
    27  H    0.164241
    28  H    0.155393
    29  H    0.155142
    30  H    0.160131
    31  C   -0.299847
    32  C   -0.299636
    33  C   -0.475729
    34  H    0.149482
    35  H    0.149484
    36  H    0.152322
    37  H    0.152154
    38  H    0.154908
    39  H    0.155185
    40  H    0.160568
 Sum of Mulliken charges =  -0.00000

 Dipole moment (field-independent basis, Debye):
    X=              0.0031    Y=             -0.0094    Z=             -0.0054  Tot=              0.0113
 Quadrupole moment (field-independent basis, Debye-Ang):
   XX=            -84.5645   YY=            -85.6735   ZZ=            -84.4741
   XY=              1.3585   XZ=             -0.8637   YZ=             -0.2265

 Normal termination of Gaussian 16 at Thu May  6 03:41:08 2021.
