 Gaussian 16, Revision A.03,
 Gaussian 16:  EM64L-G16RevA.03 25-Dec-2016

 -------------
 #p 6-31g* mp2
 -------------

 ------------------------------------------------------
 Input file generated by CHIRIPA (05-May-2021 14:55:22)
 ------------------------------------------------------
 Symbolic Z-matrix:
 Charge =  0 Multiplicity = 1

                         Standard orientation:
 ---------------------------------------------------------------------
 Center     Atomic      Atomic             Coordinates (Angstroms)
 Number     Number       Type             X           Y           Z
 ---------------------------------------------------------------------
      1          6           0        1.144035   -2.163188    0.787883
      2          6           0        2.515722   -2.326105    1.008006
      3          6           0        3.426125   -1.365476    0.557556
      4          6           0        2.927905   -0.249166   -0.112458
      5          6           0        1.567084   -0.058393   -0.347107
      6          6           0        0.674921   -1.031847    0.112220
      7          1           0        0.443896   -2.914409    1.141251
      8          1           0        2.882893   -3.203713    1.532442
      9          1           0        4.493178   -1.466492    0.714438
     10          1           0        1.231115    0.827047   -0.872975
     11          1           0       -0.389811   -0.902693   -0.060149
     12          7           0        3.882054    0.774597   -0.594028
     13          8           0        3.417754    1.749121   -1.181706
     14          8           0        5.076147    0.583114   -0.374685
     15          6           0       -3.603340   -0.145447   -0.300157
     16          6           0       -5.021864   -0.715970   -0.283442
     17          6           0       -5.119625   -2.077424   -0.972414
     18          1           0       -3.262937   -0.056592   -1.340914
     19          1           0       -2.924120   -0.855747    0.191299
     20          1           0       -5.698443   -0.004181   -0.773556
     21          1           0       -5.359002   -0.803298    0.757388
     22          1           0       -4.467658   -2.806112   -0.479916
     23          1           0       -4.809028   -2.002453   -2.019558
     24          1           0       -6.142232   -2.466759   -0.948906
     25          6           0       -3.489524    1.215257    0.384865
     26          6           0       -2.071000    1.785781    0.368150
     27          6           0       -1.973240    3.147233    1.057123
     28          1           0       -4.168744    1.925558   -0.106591
     29          1           0       -3.829927    1.126403    1.425622
     30          1           0       -1.733862    1.873109   -0.672680
     31          1           0       -1.394421    1.073990    0.858264
     32          1           0       -2.283836    3.072263    2.104266
     33          1           0       -2.625206    3.875922    0.564623
     34          1           0       -0.950632    3.536568    1.033614
 ---------------------------------------------------------------------

 SCF Done:  E(RHF) =  -669.535180821     A.U. after   15 cycles
 E2 =    -0.2092566876D+01 EUMP2 =    -0.67162774769614D+03

 The electronic state is 1-A.
 Alpha  occ. eigenvalues --  -20.60718 -20.60713 -15.85770 -11.31118 -11.27695
 Alpha  occ. eigenvalues --  -11.27661 -11.27422 -11.26710 -11.26609 -11.22409
 Alpha  occ. eigenvalues --  -11.22398 -11.22344 -11.22148 -11.21779 -11.21548
 Alpha  occ. eigenvalues --   -1.59793  -1.39347  -1.19289  -1.09267  -1.08687
 Alpha  occ. eigenvalues --   -1.04689  -1.04253  -0.96688  -0.95526  -0.87699
 Alpha  occ. eigenvalues --   -0.86089  -0.82370  -0.80353  -0.79155  -0.77379
 Alpha  occ. eigenvalues --   -0.71989  -0.71116  -0.70400  -0.65936  -0.64938
 Alpha  occ. eigenvalues --   -0.64660  -0.62063  -0.61630  -0.60045  -0.58318
 Alpha  occ. eigenvalues --   -0.55972  -0.55197  -0.53363  -0.53120  -0.53015
 Alpha  occ. eigenvalues --   -0.52774  -0.50625  -0.48753  -0.48746  -0.48647
 Alpha  occ. eigenvalues --   -0.47384  -0.46590  -0.46538  -0.44756  -0.44534
 Alpha  occ. eigenvalues --   -0.37275  -0.36263
 Alpha virt. eigenvalues --    0.05104   0.11315   0.16492   0.19964   0.22617
 Alpha virt. eigenvalues --    0.23368   0.24872   0.25495   0.26789   0.28412
 Alpha virt. eigenvalues --    0.29259   0.30715   0.31152   0.31317   0.32092

 Mulliken charges:
               1
     1  C   -0.173676
     2  C   -0.218535
     3  C   -0.171154
     4  C    0.158917
     5  C   -0.173953
     6  C   -0.226343
     7  H    0.224954
     8  H    0.223035
     9  H    0.275313
    10  H    0.277338
    11  H    0.236738
    12  N    0.488080
    13  O   -0.460625
    14  O   -0.460729
    15  C   -0.302816
    16  C   -0.299669
    17  C   -0.476080
    18  H    0.151118
    19  H    0.140928
    20  H    0.155866
    21  H    0.153708
    22  H    0.152080
    23  H    0.156780
    24  H    0.163491
    25  C   -0.297652
    26  C   -0.309153
    27  C   -0.476053
    28  H    0.154019
    29  H    0.152019
    30  H    0.150617
    31  H    0.150737
    32  H    0.156651
    33  H    0.157996
    34  H    0.166055
 Sum of Mulliken charges =  -0.00000

 Dipole moment (field-independent basis, Debye):
    X=             -3.5748    Y=             -3.4868    Z=              1.7051  Tot=              5.2768
 Quadrupole moment (field-independent basis, Debye-Ang):
   XX=           -110.9830   YY=            -92.3989   ZZ=            -94.5654
   XY=            -12.6542   XZ=              7.1269   YZ=             -1.9534

 Normal termination of Gaussian 16 at Thu May  6 07:50:16 2021.
