 Gaussian 16, Revision A.03,
 Gaussian 16:  EM64L-G16RevA.03 25-Dec-2016

 -------------
 #p 6-31g* mp2
 -------------

 ------------------------------------------------------
 Input file generated by CHIRIPA (05-May-2021 14:55:23)
 ------------------------------------------------------
 Symbolic Z-matrix:
 Charge =  0 Multiplicity = 1

                         Standard orientation:
 ---------------------------------------------------------------------
 Center     Atomic      Atomic             Coordinates (Angstroms)
 Number     Number       Type             X           Y           Z
 ---------------------------------------------------------------------
      1          6           0       -4.701332   -1.520184   -0.752779
      2          6           0       -5.171639   -0.210463   -0.611487
      3          6           0       -4.303172    0.819330   -0.237536
      4          6           0       -2.964572    0.502388   -0.011728
      5          6           0       -2.465794   -0.792581   -0.144261
      6          6           0       -3.352289   -1.806558   -0.519127
      7          1           0       -5.382981   -2.314008   -1.043629
      8          1           0       -6.218816    0.014864   -0.792298
      9          1           0       -4.640619    1.842041   -0.120880
     10          1           0       -1.416569   -0.986382    0.042789
     11          1           0       -2.984250   -2.822786   -0.628095
     12          7           0       -2.035622    1.584211    0.384642
     13          8           0       -0.860828    1.278968    0.577830
     14          8           0       -2.499895    2.716904    0.494623
     15          6           0        4.425227   -0.186628   -0.486581
     16          6           0        5.760321    0.417986   -0.050746
     17          6           0        6.618592    0.869790   -1.232709
     18          1           0        4.616133   -1.040773   -1.150614
     19          1           0        3.871957    0.553735   -1.080844
     20          1           0        6.310307   -0.322815    0.543683
     21          1           0        5.566218    1.270672    0.612479
     22          1           0        6.093080    1.627366   -1.823063
     23          1           0        6.841397    0.024825   -1.892249
     24          1           0        7.568332    1.298844   -0.898393
     25          6           0        3.556019   -0.643042    0.683842
     26          6           0        2.220925   -1.247657    0.248007
     27          6           0        1.362654   -1.699461    1.429969
     28          1           0        4.109289   -1.383407    1.278105
     29          1           0        3.365113    0.211102    1.347874
     30          1           0        2.415029   -2.100342   -0.415217
     31          1           0        1.670939   -0.506856   -0.346423
     32          1           0        1.139849   -0.854496    2.089510
     33          1           0        1.888166   -2.457037    2.020323
     34          1           0        0.412914   -2.128515    1.095653
 ---------------------------------------------------------------------

 SCF Done:  E(RHF) =  -669.535848512     A.U. after   15 cycles
 E2 =    -0.2091718981D+01 EUMP2 =    -0.67162756749282D+03

 The electronic state is 1-A.
 Alpha  occ. eigenvalues --  -20.60860 -20.60853 -15.85900 -11.31203 -11.27779
 Alpha  occ. eigenvalues --  -11.27736 -11.27518 -11.26785 -11.26770 -11.21180
 Alpha  occ. eigenvalues --  -11.21154 -11.20932 -11.20865 -11.20829 -11.20705
 Alpha  occ. eigenvalues --   -1.59925  -1.39479  -1.19378  -1.08786  -1.07978
 Alpha  occ. eigenvalues --   -1.04775  -1.03136  -0.95670  -0.95567  -0.86632
 Alpha  occ. eigenvalues --   -0.86171  -0.82463  -0.79199  -0.77790  -0.77515
 Alpha  occ. eigenvalues --   -0.72126  -0.71240  -0.70498  -0.65040  -0.64802
 Alpha  occ. eigenvalues --   -0.64566  -0.62169  -0.60481  -0.59000  -0.57241
 Alpha  occ. eigenvalues --   -0.55282  -0.54846  -0.53108  -0.52929  -0.52287
 Alpha  occ. eigenvalues --   -0.52017  -0.49506  -0.48874  -0.48867  -0.47527
 Alpha  occ. eigenvalues --   -0.46196  -0.45339  -0.45241  -0.44864  -0.43404
 Alpha  occ. eigenvalues --   -0.37362  -0.36373
 Alpha virt. eigenvalues --    0.04997   0.11270   0.16491   0.20401   0.23273
 Alpha virt. eigenvalues --    0.24057   0.26633   0.27120   0.27806   0.28078
 Alpha virt. eigenvalues --    0.29349   0.31070   0.31672   0.31847   0.32282

 Mulliken charges:
               1
     1  C   -0.170275
     2  C   -0.219137
     3  C   -0.169973
     4  C    0.156411
     5  C   -0.178739
     6  C   -0.222062
     7  H    0.225713
     8  H    0.223485
     9  H    0.275500
    10  H    0.291152
    11  H    0.223647
    12  N    0.488872
    13  O   -0.463526
    14  O   -0.459665
    15  C   -0.298848
    16  C   -0.299733
    17  C   -0.475632
    18  H    0.146561
    19  H    0.153148
    20  H    0.150263
    21  H    0.154090
    22  H    0.156114
    23  H    0.153533
    24  H    0.159343
    25  C   -0.298885
    26  C   -0.304617
    27  C   -0.474917
    28  H    0.146416
    29  H    0.156647
    30  H    0.145362
    31  H    0.164910
    32  H    0.171058
    33  H    0.153208
    34  H    0.140575
 Sum of Mulliken charges =  -0.00000

 Dipole moment (field-independent basis, Debye):
    X=             -3.3094    Y=             -3.6285    Z=             -1.3496  Tot=              5.0931
 Quadrupole moment (field-independent basis, Debye-Ang):
   XX=            -73.3740   YY=            -96.5075   ZZ=            -96.1085
   XY=              6.6529   XZ=              5.1780   YZ=             -0.3318

 Normal termination of Gaussian 16 at Thu May  6 19:16:13 2021.
