 Gaussian 16, Revision A.03,
 Gaussian 16:  EM64L-G16RevA.03 25-Dec-2016

 -------------
 #p 6-31g* mp2
 -------------

 ------------------------------------------------------
 Input file generated by CHIRIPA (05-May-2021 14:57:21)
 ------------------------------------------------------
 Symbolic Z-matrix:
 Charge =  0 Multiplicity = 1

                         Standard orientation:
 ---------------------------------------------------------------------
 Center     Atomic      Atomic             Coordinates (Angstroms)
 Number     Number       Type             X           Y           Z
 ---------------------------------------------------------------------
      1          6           0       -3.642828   -1.783771    1.148926
      2          6           0       -4.141073   -1.318907   -0.072620
      3          6           0       -3.563442   -0.210825   -0.699552
      4          6           0       -2.484026    0.411180   -0.074044
      5          6           0       -1.964956   -0.028197    1.142839
      6          6           0       -2.558272   -1.138071    1.751694
      7          1           0       -4.097638   -2.645252    1.628921
      8          1           0       -4.983247   -1.818394   -0.543045
      9          1           0       -3.929175    0.170039   -1.645385
     10          1           0       -1.124310    0.490496    1.587462
     11          1           0       -2.169233   -1.496891    2.700347
     12          7           0       -1.864211    1.585205   -0.728180
     13          8           0       -0.914194    2.115649   -0.156573
     14          8           0       -2.340153    1.952732   -1.800113
     15          6           0        2.689015    1.666425    1.641188
     16          6           0        2.848449    0.343142    2.065477
     17          6           0        2.793332   -0.708750    1.146219
     18          6           0        2.576237   -0.399836   -0.195694
     19          6           0        2.413676    0.908232   -0.649372
     20          6           0        2.472519    1.944257    0.287503
     21          1           0        2.733277    2.477398    2.362132
     22          1           0        3.016711    0.124404    3.116138
     23          1           0        2.913485   -1.742327    1.447382
     24          1           0        2.247303    1.094993   -1.703345
     25          1           0        2.348357    2.970980   -0.044867
     26          7           0        2.515915   -1.505028   -1.178197
     27          8           0        2.323506   -1.206460   -2.354833
     28          8           0        2.662185   -2.648918   -0.753043
 ---------------------------------------------------------------------

 SCF Done:  E(RHF) =  -868.339039586     A.U. after   16 cycles
 E2 =    -0.2600548369D+01 EUMP2 =    -0.87093958795573D+03

 The electronic state is 1-A.
 Alpha  occ. eigenvalues --  -20.61034 -20.61015 -20.60414 -20.60391 -15.86054
 Alpha  occ. eigenvalues --  -15.85450 -11.31247 -11.30664 -11.27813 -11.27786
 Alpha  occ. eigenvalues --  -11.27520 -11.27281 -11.27067 -11.26910 -11.26801
 Alpha  occ. eigenvalues --  -11.26763 -11.26330 -11.26035  -1.60095  -1.59486
 Alpha  occ. eigenvalues --   -1.39654  -1.39041  -1.19407  -1.18814  -1.08838
 Alpha  occ. eigenvalues --   -1.08246  -1.04789  -1.04169  -0.95704  -0.95104
 Alpha  occ. eigenvalues --   -0.86197  -0.85589  -0.82552  -0.81922  -0.77613
 Alpha  occ. eigenvalues --   -0.76992  -0.72308  -0.71672  -0.71403  -0.70808
 Alpha  occ. eigenvalues --   -0.70520  -0.69928  -0.65071  -0.64801  -0.64460
 Alpha  occ. eigenvalues --   -0.64171  -0.62145  -0.61517  -0.55302  -0.54706
 Alpha  occ. eigenvalues --   -0.53119  -0.52904  -0.52517  -0.52257  -0.49068
 Alpha  occ. eigenvalues --   -0.49031  -0.48436  -0.48415  -0.45104  -0.44477
 Alpha  occ. eigenvalues --   -0.37380  -0.36818  -0.36379  -0.35670
 Alpha virt. eigenvalues --    0.04844   0.05585   0.11274   0.11892   0.16382
 Alpha virt. eigenvalues --    0.17120   0.21370   0.22001   0.27254   0.27948
 Alpha virt. eigenvalues --    0.28243   0.28849   0.30888   0.31528   0.32361

 Mulliken charges:
               1
     1  C   -0.169272
     2  C   -0.217981
     3  C   -0.169204
     4  C    0.158280
     5  C   -0.171268
     6  C   -0.217746
     7  H    0.226477
     8  H    0.224632
     9  H    0.276355
    10  H    0.274171
    11  H    0.222102
    12  N    0.490127
    13  O   -0.468553
    14  O   -0.458509
    15  C   -0.175176
    16  C   -0.223443
    17  C   -0.176511
    18  C    0.154731
    19  C   -0.166446
    20  C   -0.200337
    21  H    0.224253
    22  H    0.218525
    23  H    0.270957
    24  H    0.278765
    25  H    0.231206
    26  N    0.487884
    27  O   -0.459158
    28  O   -0.464861
 Sum of Mulliken charges =  -0.00000

 Dipole moment (field-independent basis, Debye):
    X=             -2.1478    Y=             -0.0168    Z=              5.5573  Tot=              5.9579
 Quadrupole moment (field-independent basis, Debye-Ang):
   XX=            -91.8472   YY=           -109.9486   ZZ=           -101.8810
   XY=             20.2188   XZ=              6.4987   YZ=             -3.5132

 Normal termination of Gaussian 16 at Thu May  6 04:53:16 2021.
