 Gaussian 16, Revision A.03,
 Gaussian 16:  EM64L-G16RevA.03 25-Dec-2016

 -------------
 #p 6-31g* mp2
 -------------

 ------------------------------------------------------
 Input file generated by CHIRIPA (05-May-2021 14:57:23)
 ------------------------------------------------------
 Symbolic Z-matrix:
 Charge =  0 Multiplicity = 1

                         Standard orientation:
 ---------------------------------------------------------------------
 Center     Atomic      Atomic             Coordinates (Angstroms)
 Number     Number       Type             X           Y           Z
 ---------------------------------------------------------------------
      1          6           0       -2.361966    2.559567    0.433609
      2          6           0       -3.701205    2.166533    0.525720
      3          6           0       -4.086296    0.869423    0.173927
      4          6           0       -3.101562   -0.012802   -0.267966
      5          6           0       -1.759192    0.348858   -0.370608
      6          6           0       -1.396935    1.651077   -0.013473
      7          1           0       -2.071687    3.569177    0.708965
      8          1           0       -4.452811    2.869958    0.872602
      9          1           0       -5.115984    0.538741    0.235645
     10          1           0       -1.032612   -0.374694   -0.719852
     11          1           0       -0.356120    1.953543   -0.086012
     12          7           0       -3.497154   -1.388698   -0.643221
     13          8           0       -2.610473   -2.147075   -1.029612
     14          8           0       -4.686409   -1.682696   -0.543849
     15          6           0        1.509593   -1.717485    1.538152
     16          6           0        1.317997   -0.332034    1.556457
     17          6           0        2.157863    0.510642    0.822240
     18          6           0        3.183966   -0.068607    0.077343
     19          6           0        3.400416   -1.445182    0.038829
     20          6           0        2.548359   -2.268666    0.780732
     21          1           0        0.852429   -2.364642    2.111495
     22          1           0        0.512096    0.098805    2.143778
     23          1           0        2.032089    1.586552    0.818519
     24          1           0        4.212399   -1.845333   -0.556133
     25          1           0        2.699518   -3.344276    0.764642
     26          7           0        4.079548    0.813336   -0.704007
     27          8           0        4.976269    0.278256   -1.352249
     28          8           0        3.867825    2.022985   -0.653393
 ---------------------------------------------------------------------

 SCF Done:  E(RHF) =  -868.337648424     A.U. after   16 cycles
 E2 =    -0.2601808401D+01 EUMP2 =    -0.87093945682465D+03

 The electronic state is 1-A.
 Alpha  occ. eigenvalues --  -20.61280 -20.61252 -20.61234 -20.61218 -15.86323
 Alpha  occ. eigenvalues --  -15.86282 -11.31734 -11.31632 -11.28366 -11.28213
 Alpha  occ. eigenvalues --  -11.28192 -11.28177 -11.27954 -11.27899 -11.27288
 Alpha  occ. eigenvalues --  -11.27206 -11.27196 -11.27185  -1.60343  -1.60307
 Alpha  occ. eigenvalues --   -1.39897  -1.39859  -1.19895  -1.19812  -1.09238
 Alpha  occ. eigenvalues --   -1.09215  -1.05376  -1.05136  -0.96079  -0.96043
 Alpha  occ. eigenvalues --   -0.86684  -0.86589  -0.82998  -0.82793  -0.78081
 Alpha  occ. eigenvalues --   -0.77828  -0.72536  -0.72496  -0.71669  -0.71637
 Alpha  occ. eigenvalues --   -0.70939  -0.70897  -0.65559  -0.65472  -0.65297
 Alpha  occ. eigenvalues --   -0.65129  -0.62823  -0.62355  -0.55736  -0.55667
 Alpha  occ. eigenvalues --   -0.53762  -0.53506  -0.53333  -0.53176  -0.49305
 Alpha  occ. eigenvalues --   -0.49285  -0.49254  -0.49251  -0.45294  -0.45267
 Alpha  occ. eigenvalues --   -0.37867  -0.37808  -0.37223  -0.36429
 Alpha virt. eigenvalues --    0.04459   0.04635   0.10489   0.10971   0.15734
 Alpha virt. eigenvalues --    0.16341   0.20023   0.21738   0.25342   0.27402
 Alpha virt. eigenvalues --    0.27865   0.28565   0.30198   0.31156   0.31725

 Mulliken charges:
               1
     1  C   -0.172042
     2  C   -0.218954
     3  C   -0.170739
     4  C    0.156903
     5  C   -0.174230
     6  C   -0.227164
     7  H    0.228203
     8  H    0.225177
     9  H    0.276635
    10  H    0.279519
    11  H    0.226519
    12  N    0.487911
    13  O   -0.461429
    14  O   -0.459239
    15  C   -0.170302
    16  C   -0.220926
    17  C   -0.183358
    18  C    0.160236
    19  C   -0.170741
    20  C   -0.216051
    21  H    0.232525
    22  H    0.227255
    23  H    0.269093
    24  H    0.278166
    25  H    0.228829
    26  N    0.488273
    27  O   -0.456675
    28  O   -0.463394
 Sum of Mulliken charges =  -0.00000

 Dipole moment (field-independent basis, Debye):
    X=             -1.7087    Y=              1.5032    Z=              4.0887  Tot=              4.6794
 Quadrupole moment (field-independent basis, Debye-Ang):
   XX=           -127.7121   YY=           -101.4173   ZZ=           -105.6836
   XY=            -29.1264   XZ=              1.8937   YZ=             -0.2516

 Normal termination of Gaussian 16 at Fri May  7 09:30:54 2021.
