 Gaussian 16, Revision A.03,
 Gaussian 16:  EM64L-G16RevA.03 25-Dec-2016

 -------------
 #p 6-31g* mp2
 -------------

 ------------------------------------------------------
 Input file generated by CHIRIPA (05-May-2021 14:53:15)
 ------------------------------------------------------
 Symbolic Z-matrix:
 Charge =  0 Multiplicity = 1

                         Standard orientation:
 ---------------------------------------------------------------------
 Center     Atomic      Atomic             Coordinates (Angstroms)
 Number     Number       Type             X           Y           Z
 ---------------------------------------------------------------------
      1          6           0       -5.630114   -0.174917   -0.252040
      2          6           0       -6.614969    0.809868    0.379027
      3          6           0       -8.042531    0.631935   -0.138852
      4          1           0       -5.644146   -0.049103   -1.343332
      5          1           0       -5.968781   -1.200782   -0.051291
      6          1           0       -6.273799    1.833557    0.178330
      7          1           0       -6.598449    0.681828    1.468958
      8          1           0       -8.406844   -0.378077    0.075048
      9          1           0       -8.080349    0.780197   -1.222913
     10          1           0       -8.729932    1.345943    0.325403
     11          6           0       -4.198814   -0.009471    0.255636
     12          6           0       -3.213959   -0.994255   -0.375431
     13          6           0       -1.786397   -0.816322    0.142448
     14          1           0       -3.860147    1.016395    0.054888
     15          1           0       -4.184782   -0.135284    1.346929
     16          1           0       -3.230479   -0.866215   -1.465361
     17          1           0       -3.555129   -2.017945   -0.174733
     18          1           0       -1.748579   -0.964584    1.226510
     19          1           0       -1.422084    0.193690   -0.071451
     20          1           0       -1.098996   -1.530330   -0.321806
     21          6           0        6.319793    0.534044   -0.016774
     22          6           0        5.409873    1.593877   -0.089706
     23          6           0        4.033341    1.349653   -0.081955
     24          6           0        3.599632    0.027360    0.000081
     25          6           0        4.481275   -1.049923    0.073966
     26          6           0        5.853412   -0.782153    0.064685
     27          1           0        7.387410    0.732907   -0.023390
     28          1           0        5.769208    2.617064   -0.153050
     29          1           0        3.306910    2.151307   -0.137338
     30          1           0        4.092900   -2.059231    0.136257
     31          1           0        6.557762   -1.607208    0.121438
     32          7           0        2.144685   -0.243652    0.009097
     33          8           0        1.788060   -1.417588    0.082090
     34          8           0        1.388472    0.722997   -0.057001
 ---------------------------------------------------------------------

 SCF Done:  E(RHF) =  -669.535965245     A.U. after   15 cycles
 E2 =    -0.2091869399D+01 EUMP2 =    -0.67162783464386D+03

 The electronic state is 1-A.
 Alpha  occ. eigenvalues --  -20.60997 -20.60988 -15.86008 -11.31328 -11.27885
 Alpha  occ. eigenvalues --  -11.27881 -11.27619 -11.26888 -11.26879 -11.20831
 Alpha  occ. eigenvalues --  -11.20445 -11.20417 -11.20131 -11.19949 -11.18616
 Alpha  occ. eigenvalues --   -1.60033  -1.39593  -1.19490  -1.08895  -1.07286
 Alpha  occ. eigenvalues --   -1.04884  -1.02234  -0.95744  -0.94624  -0.86285
 Alpha  occ. eigenvalues --   -0.85629  -0.82572  -0.78355  -0.77627  -0.77018
 Alpha  occ. eigenvalues --   -0.72227  -0.71345  -0.70598  -0.65146  -0.64886
 Alpha  occ. eigenvalues --   -0.63938  -0.62231  -0.59651  -0.58141  -0.56227
 Alpha  occ. eigenvalues --   -0.55392  -0.53945  -0.53216  -0.52975  -0.51361
 Alpha  occ. eigenvalues --   -0.51076  -0.49109  -0.48900  -0.48411  -0.46606
 Alpha  occ. eigenvalues --   -0.45421  -0.45009  -0.44546  -0.44430  -0.42411
 Alpha  occ. eigenvalues --   -0.37468  -0.36484
 Alpha virt. eigenvalues --    0.04904   0.11171   0.16408   0.21307   0.23889
 Alpha virt. eigenvalues --    0.25676   0.27226   0.27718   0.28183   0.28541
 Alpha virt. eigenvalues --    0.29523   0.30881   0.32367   0.32665   0.32790

 Mulliken charges:
               1
     1  C   -0.296866
     2  C   -0.298646
     3  C   -0.474995
     4  H    0.147664
     5  H    0.147441
     6  H    0.150775
     7  H    0.150663
     8  H    0.154094
     9  H    0.154061
    10  H    0.157742
    11  C   -0.296580
    12  C   -0.302033
    13  C   -0.475996
    14  H    0.148320
    15  H    0.147038
    16  H    0.146440
    17  H    0.144965
    18  H    0.145708
    19  H    0.168557
    20  H    0.173383
    21  C   -0.170544
    22  C   -0.218561
    23  C   -0.170747
    24  C    0.158571
    25  C   -0.170652
    26  C   -0.218570
    27  H    0.226090
    28  H    0.223915
    29  H    0.275778
    30  H    0.275886
    31  H    0.223928
    32  N    0.489219
    33  O   -0.458181
    34  O   -0.457867
 Sum of Mulliken charges =  -0.00000

 Dipole moment (field-independent basis, Debye):
    X=              5.6691    Y=              0.9882    Z=             -0.0440  Tot=              5.7548
 Quadrupole moment (field-independent basis, Debye-Ang):
   XX=            -61.3071   YY=            -89.5159   ZZ=            -95.3272
   XY=              2.6070   XZ=             -0.4933   YZ=             -0.8964

 Normal termination of Gaussian 16 at Thu May  6 18:48:31 2021.
