 Gaussian 16, Revision A.03,
 Gaussian 16:  EM64L-G16RevA.03 25-Dec-2016

 -------------
 #p 6-31g* mp2
 -------------

 ------------------------------------------------------
 Input file generated by CHIRIPA (05-May-2021 14:53:16)
 ------------------------------------------------------
 Symbolic Z-matrix:
 Charge =  0 Multiplicity = 1

                         Standard orientation:
 ---------------------------------------------------------------------
 Center     Atomic      Atomic             Coordinates (Angstroms)
 Number     Number       Type             X           Y           Z
 ---------------------------------------------------------------------
      1          6           0        3.369189   -0.025470   -0.310937
      2          6           0        2.870156   -1.413506   -0.713809
      3          6           0        4.008454   -2.411053   -0.930542
      4          1           0        4.047454    0.353106   -1.087843
      5          1           0        3.963973   -0.110079    0.609100
      6          1           0        2.275335   -1.326109   -1.632050
      7          1           0        2.192849   -1.788740    0.064054
      8          1           0        4.597892   -2.527752   -0.015368
      9          1           0        4.680846   -2.062492   -1.721109
     10          1           0        3.629231   -3.396707   -1.217833
     11          6           0        2.242931    0.982874   -0.090673
     12          6           0        2.741964    2.370910    0.312198
     13          6           0        1.603667    3.368457    0.528932
     14          1           0        1.648147    1.067483   -1.010710
     15          1           0        1.564666    0.604298    0.686232
     16          1           0        3.419271    2.746144   -0.465665
     17          1           0        3.336785    2.283513    1.230439
     18          1           0        0.931274    3.019896    1.319498
     19          1           0        1.014228    3.485156   -0.386243
     20          1           0        1.982889    4.354111    0.816222
     21          6           0       -0.932698   -2.225928    1.318690
     22          6           0       -1.950075   -2.534444    0.409690
     23          6           0       -2.654584   -1.516460   -0.239866
     24          6           0       -2.314002   -0.194948    0.044559
     25          6           0       -1.305482    0.144473    0.945099
     26          6           0       -0.614210   -0.889810    1.583027
     27          1           0       -0.390560   -3.023052    1.818764
     28          1           0       -2.199569   -3.571195    0.202453
     29          1           0       -3.446719   -1.727035   -0.948102
     30          1           0       -1.079446    1.187405    1.131158
     31          1           0        0.175425   -0.647249    2.288496
     32          7           0       -3.052827    0.891374   -0.636942
     33          8           0       -2.733631    2.047652   -0.369034
     34          8           0       -3.937124    0.565986   -1.426104
 ---------------------------------------------------------------------

 SCF Done:  E(RHF) =  -669.533821433     A.U. after   15 cycles
 E2 =    -0.2094616526D+01 EUMP2 =    -0.67162843795903D+03

 The electronic state is 1-A.
 Alpha  occ. eigenvalues --  -20.60772 -20.60767 -15.85825 -11.31193 -11.27763
 Alpha  occ. eigenvalues --  -11.27750 -11.27526 -11.26789 -11.26778 -11.21987
 Alpha  occ. eigenvalues --  -11.21854 -11.21759 -11.21663 -11.21480 -11.21255
 Alpha  occ. eigenvalues --   -1.59847  -1.39400  -1.19380  -1.08818  -1.08745
 Alpha  occ. eigenvalues --   -1.04796  -1.03859  -0.96304  -0.95605  -0.87315
 Alpha  occ. eigenvalues --   -0.86187  -0.82458  -0.79913  -0.78651  -0.77451
 Alpha  occ. eigenvalues --   -0.72043  -0.71170  -0.70488  -0.65503  -0.65029
 Alpha  occ. eigenvalues --   -0.64779  -0.62156  -0.61246  -0.59669  -0.57922
 Alpha  occ. eigenvalues --   -0.55616  -0.55289  -0.53233  -0.52957  -0.52907
 Alpha  occ. eigenvalues --   -0.52638  -0.50248  -0.48805  -0.48796  -0.48228
 Alpha  occ. eigenvalues --   -0.46964  -0.46146  -0.46057  -0.44800  -0.44109
 Alpha  occ. eigenvalues --   -0.37338  -0.36254
 Alpha virt. eigenvalues --    0.05024   0.11134   0.16382   0.19781   0.22938
 Alpha virt. eigenvalues --    0.23379   0.25749   0.26416   0.26886   0.28385
 Alpha virt. eigenvalues --    0.29677   0.30702   0.31259   0.31539   0.31802

 Mulliken charges:
               1
     1  C   -0.298619
     2  C   -0.299922
     3  C   -0.475937
     4  H    0.152142
     5  H    0.146793
     6  H    0.155115
     7  H    0.146450
     8  H    0.153701
     9  H    0.157553
    10  H    0.159039
    11  C   -0.301160
    12  C   -0.300376
    13  C   -0.477118
    14  H    0.154435
    15  H    0.144123
    16  H    0.154443
    17  H    0.149281
    18  H    0.146342
    19  H    0.166154
    20  H    0.163210
    21  C   -0.171108
    22  C   -0.218976
    23  C   -0.170717
    24  C    0.156269
    25  C   -0.168840
    26  C   -0.218684
    27  H    0.225750
    28  H    0.223558
    29  H    0.275594
    30  H    0.281740
    31  H    0.222778
    32  N    0.487575
    33  O   -0.460065
    34  O   -0.460524
 Sum of Mulliken charges =  -0.00000

 Dipole moment (field-independent basis, Debye):
    X=              2.5667    Y=             -3.7411    Z=              2.2798  Tot=              5.0775
 Quadrupole moment (field-independent basis, Debye-Ang):
   XX=           -106.5475   YY=            -91.6120   ZZ=            -93.0523
   XY=             11.3757   XZ=             -4.1035   YZ=              0.5992

 Normal termination of Gaussian 16 at Thu May  6 12:13:30 2021.
