 Gaussian 16, Revision A.03,
 Gaussian 16:  EM64L-G16RevA.03 25-Dec-2016

 -------------
 #p 6-31g* mp2
 -------------

 ------------------------------------------------------
 Input file generated by CHIRIPA (05-May-2021 14:57:21)
 ------------------------------------------------------
 Symbolic Z-matrix:
 Charge =  0 Multiplicity = 1

                         Standard orientation:
 ---------------------------------------------------------------------
 Center     Atomic      Atomic             Coordinates (Angstroms)
 Number     Number       Type             X           Y           Z
 ---------------------------------------------------------------------
      1          6           0       -4.216476   -2.249310   -0.919949
      2          6           0       -2.947705   -1.807053   -0.531169
      3          6           0       -2.763058   -0.502716   -0.063025
      4          6           0       -3.874198    0.336463    0.003585
      5          6           0       -5.150849   -0.074725   -0.376385
      6          6           0       -5.312067   -1.383261   -0.841454
      7          1           0       -4.350815   -3.264181   -1.282420
      8          1           0       -2.095044   -2.477447   -0.591056
      9          1           0       -1.791885   -0.134355    0.244467
     10          1           0       -5.981746    0.616642   -0.305386
     11          1           0       -6.298572   -1.724001   -1.142703
     12          7           0       -3.691122    1.719529    0.497560
     13          8           0       -4.686145    2.439357    0.546703
     14          8           0       -2.556071    2.057559    0.826242
     15          6           0        2.017264   -1.316582    1.237711
     16          6           0        3.320416   -1.819450    1.311457
     17          6           0        4.373760   -1.158382    0.672703
     18          6           0        4.086810    0.008274   -0.034305
     19          6           0        2.799119    0.534289   -0.126222
     20          6           0        1.761226   -0.143386    0.520371
     21          1           0        1.205003   -1.836565    1.736955
     22          1           0        3.522205   -2.730363    1.867841
     23          1           0        5.392033   -1.525631    0.713523
     24          1           0        2.629007    1.444504   -0.688352
     25          1           0        0.750167    0.249459    0.461393
     26          7           0        5.193759    0.716907   -0.714674
     27          8           0        4.914748    1.742902   -1.331218
     28          8           0        6.319436    0.232922   -0.618521
 ---------------------------------------------------------------------

 SCF Done:  E(RHF) =  -868.337220559     A.U. after   16 cycles
 E2 =    -0.2599521093D+01 EUMP2 =    -0.87093674165220D+03

 The electronic state is 1-A.
 Alpha  occ. eigenvalues --  -20.61496 -20.61464 -20.60804 -20.60794 -15.86537
 Alpha  occ. eigenvalues --  -15.85858 -11.31942 -11.31297 -11.28623 -11.28439
 Alpha  occ. eigenvalues --  -11.28197 -11.27886 -11.27855 -11.27706 -11.27557
 Alpha  occ. eigenvalues --  -11.27453 -11.26950 -11.26935  -1.60551  -1.59876
 Alpha  occ. eigenvalues --   -1.40109  -1.39426  -1.20100  -1.19490  -1.09474
 Alpha  occ. eigenvalues --   -1.08890  -1.05520  -1.04898  -0.96315  -0.95703
 Alpha  occ. eigenvalues --   -0.86913  -0.86309  -0.83154  -0.82525  -0.78218
 Alpha  occ. eigenvalues --   -0.77545  -0.72754  -0.72076  -0.71870  -0.71215
 Alpha  occ. eigenvalues --   -0.71200  -0.70627  -0.65754  -0.65546  -0.65149
 Alpha  occ. eigenvalues --   -0.64915  -0.62906  -0.62208  -0.55986  -0.55453
 Alpha  occ. eigenvalues --   -0.53824  -0.53641  -0.53232  -0.52967  -0.49524
 Alpha  occ. eigenvalues --   -0.49497  -0.48843  -0.48823  -0.45505  -0.44815
 Alpha  occ. eigenvalues --   -0.38049  -0.37507  -0.37118  -0.36495
 Alpha virt. eigenvalues --    0.04345   0.04984   0.10538   0.11126   0.15851
 Alpha virt. eigenvalues --    0.16441   0.18237   0.21928   0.24571   0.26835
 Alpha virt. eigenvalues --    0.28009   0.29423   0.29500   0.31002   0.31948

 Mulliken charges:
               1
     1  C   -0.170040
     2  C   -0.220920
     3  C   -0.176002
     4  C    0.159131
     5  C   -0.169136
     6  C   -0.218188
     7  H    0.228052
     8  H    0.222428
     9  H    0.273741
    10  H    0.278061
    11  H    0.226372
    12  N    0.487404
    13  O   -0.455861
    14  O   -0.465272
    15  C   -0.173842
    16  C   -0.218412
    17  C   -0.170866
    18  C    0.159024
    19  C   -0.171062
    20  C   -0.226513
    21  H    0.221452
    22  H    0.223131
    23  H    0.276087
    24  H    0.280215
    25  H    0.232153
    26  N    0.487845
    27  O   -0.458438
    28  O   -0.460546
 Sum of Mulliken charges =  -0.00000

 Dipole moment (field-independent basis, Debye):
    X=             -4.7179    Y=             -7.3256    Z=              0.5786  Tot=              8.7326
 Quadrupole moment (field-independent basis, Debye-Ang):
   XX=           -123.4654   YY=           -106.4042   ZZ=           -105.9390
   XY=              5.2717   XZ=             18.9088   YZ=             -1.8466

 Normal termination of Gaussian 16 at Thu May  6 17:49:48 2021.
