 Gaussian 16, Revision A.03,
 Gaussian 16:  EM64L-G16RevA.03 25-Dec-2016

 -------------
 #p 6-31g* mp2
 -------------

 ------------------------------------------------------
 Input file generated by CHIRIPA (05-May-2021 14:55:20)
 ------------------------------------------------------
 Symbolic Z-matrix:
 Charge =  0 Multiplicity = 1

                         Standard orientation:
 ---------------------------------------------------------------------
 Center     Atomic      Atomic             Coordinates (Angstroms)
 Number     Number       Type             X           Y           Z
 ---------------------------------------------------------------------
      1          6           0        5.158629   -0.404924    0.191890
      2          6           0        4.303879   -1.131344    1.027497
      3          6           0        2.916766   -1.028884    0.886193
      4          6           0        2.416334   -0.186801   -0.105651
      5          6           0        3.241956    0.549807   -0.953617
      6          6           0        4.625879    0.431857   -0.794262
      7          1           0        6.234933   -0.490534    0.308669
      8          1           0        4.714812   -1.781974    1.794216
      9          1           0        2.232118   -1.579907    1.519476
     10          1           0        2.802730    1.190224   -1.708842
     11          1           0        5.287285    0.997193   -1.444632
     12          7           0        0.949549   -0.070132   -0.264798
     13          8           0        0.533648    0.678636   -1.146279
     14          8           0        0.243556   -0.729665    0.494958
     15          6           0       -3.140479    0.931528   -0.160811
     16          6           0       -2.666235    1.874067    0.945849
     17          6           0       -2.145219    3.205922    0.405018
     18          1           0       -2.310859    0.746880   -0.856928
     19          1           0       -3.931037    1.427127   -0.741149
     20          1           0       -1.877770    1.376307    1.524790
     21          1           0       -3.497026    2.056340    1.639519
     22          1           0       -2.928131    3.726769   -0.155670
     23          1           0       -1.299674    3.042871   -0.271050
     24          1           0       -1.811447    3.864359    1.213051
     25          6           0       -3.664201   -0.404092    0.364130
     26          6           0       -4.138446   -1.346631   -0.742530
     27          6           0       -4.659461   -2.678487   -0.201699
     28          1           0       -2.873643   -0.899692    0.944469
     29          1           0       -4.493823   -0.219445    1.060247
     30          1           0       -3.307654   -1.528905   -1.436200
     31          1           0       -4.926912   -0.848872   -1.321472
     32          1           0       -5.505007   -2.515436    0.474369
     33          1           0       -3.876550   -3.199333    0.358988
     34          1           0       -4.993234   -3.336924   -1.009731
 ---------------------------------------------------------------------

 SCF Done:  E(RHF) =  -669.537562702     A.U. after   15 cycles
 E2 =    -0.2093135380D+01 EUMP2 =    -0.67163069808197D+03

 The electronic state is 1-A.
 Alpha  occ. eigenvalues --  -20.61353 -20.61348 -15.86319 -11.31508 -11.28046
 Alpha  occ. eigenvalues --  -11.28042 -11.27760 -11.27020 -11.27010 -11.20118
 Alpha  occ. eigenvalues --  -11.19897 -11.19814 -11.19535 -11.19501 -11.19245
 Alpha  occ. eigenvalues --   -1.60364  -1.39926  -1.19656  -1.09088  -1.06628
 Alpha  occ. eigenvalues --   -1.05029  -1.01941  -0.95949  -0.94389  -0.86436
 Alpha  occ. eigenvalues --   -0.85426  -0.82789  -0.78018  -0.77860  -0.76424
 Alpha  occ. eigenvalues --   -0.72522  -0.71654  -0.70763  -0.65312  -0.65039
 Alpha  occ. eigenvalues --   -0.63227  -0.62376  -0.59333  -0.57795  -0.56024
 Alpha  occ. eigenvalues --   -0.55538  -0.53663  -0.53363  -0.53118  -0.51191
 Alpha  occ. eigenvalues --   -0.50849  -0.49342  -0.49283  -0.48302  -0.46345
 Alpha  occ. eigenvalues --   -0.45438  -0.44931  -0.43954  -0.43719  -0.42122
 Alpha  occ. eigenvalues --   -0.37625  -0.36621
 Alpha virt. eigenvalues --    0.04627   0.11037   0.16139   0.21160   0.24685
 Alpha virt. eigenvalues --    0.25828   0.27116   0.27931   0.28672   0.29221
 Alpha virt. eigenvalues --    0.29515   0.30807   0.32263   0.32887   0.33154

 Mulliken charges:
               1
     1  C   -0.170020
     2  C   -0.218630
     3  C   -0.170364
     4  C    0.158435
     5  C   -0.170171
     6  C   -0.218614
     7  H    0.226850
     8  H    0.224626
     9  H    0.276172
    10  H    0.276323
    11  H    0.224662
    12  N    0.490188
    13  O   -0.457961
    14  O   -0.459022
    15  C   -0.305076
    16  C   -0.298117
    17  C   -0.480694
    18  H    0.177270
    19  H    0.137641
    20  H    0.157576
    21  H    0.142110
    22  H    0.148916
    23  H    0.166607
    24  H    0.150173
    25  C   -0.300158
    26  C   -0.298601
    27  C   -0.474824
    28  H    0.162715
    29  H    0.139437
    30  H    0.155380
    31  H    0.146290
    32  H    0.151345
    33  H    0.154790
    34  H    0.154746
 Sum of Mulliken charges =  -0.00000

 Dipole moment (field-independent basis, Debye):
    X=              5.8225    Y=             -0.5641    Z=              0.4615  Tot=              5.8679
 Quadrupole moment (field-independent basis, Debye-Ang):
   XX=            -71.3988   YY=            -95.0352   ZZ=            -92.6173
   XY=             -2.0568   XZ=              0.5039   YZ=             -3.0984

 Normal termination of Gaussian 16 at Thu May  6 17:25:57 2021.
