 Gaussian 16, Revision A.03,
 Gaussian 16:  EM64L-G16RevA.03 25-Dec-2016

 -------------
 #p 6-31g* mp2
 -------------

 ------------------------------------------------------
 Input file generated by CHIRIPA (05-May-2021 14:53:15)
 ------------------------------------------------------
 Symbolic Z-matrix:
 Charge =  0 Multiplicity = 1

                         Standard orientation:
 ---------------------------------------------------------------------
 Center     Atomic      Atomic             Coordinates (Angstroms)
 Number     Number       Type             X           Y           Z
 ---------------------------------------------------------------------
      1          6           0       -2.699822   -0.758784    0.353147
      2          6           0       -2.075814   -0.877563    1.744007
      3          6           0       -0.696347   -1.536521    1.718720
      4          1           0       -2.778062   -1.759520   -0.093341
      5          1           0       -2.027429   -0.179263   -0.294493
      6          1           0       -2.749827   -1.455509    2.389220
      7          1           0       -1.999226    0.123551    2.187314
      8          1           0       -0.004562   -0.958367    1.097614
      9          1           0       -0.759428   -2.546399    1.300668
     10          1           0       -0.268693   -1.611342    2.723396
     11          6           0       -4.079069   -0.102028    0.362029
     12          6           0       -4.703077    0.016750   -1.028830
     13          6           0       -6.082544    0.675708   -1.003544
     14          1           0       -4.751461   -0.681549    1.009670
     15          1           0       -4.000828    0.898707    0.808518
     16          1           0       -4.779665   -0.984364   -1.472137
     17          1           0       -4.029063    0.594697   -1.674043
     18          1           0       -6.019462    1.685587   -0.585491
     19          1           0       -6.774328    0.097554   -0.382438
     20          1           0       -6.510198    0.750530   -2.008220
     21          6           0        1.608689    2.565195    0.284171
     22          6           0        2.882168    2.244810    0.765967
     23          6           0        3.467798    1.012740    0.460043
     24          6           0        2.748481    0.120769   -0.333847
     25          6           0        1.478011    0.410815   -0.828890
     26          6           0        0.911904    1.648791   -0.510318
     27          1           0        1.161340    3.524590    0.526733
     28          1           0        3.425622    2.954553    1.383193
     29          1           0        4.452208    0.738977    0.819781
     30          1           0        0.960724   -0.317222   -1.441910
     31          1           0       -0.077251    1.894909   -0.885877
     32          7           0        3.358128   -1.186694   -0.664409
     33          8           0        2.703763   -1.955189   -1.365735
     34          8           0        4.478790   -1.418230   -0.215919
 ---------------------------------------------------------------------

 SCF Done:  E(RHF) =  -669.534828334     A.U. after   15 cycles
 E2 =    -0.2093156838D+01 EUMP2 =    -0.67162798517211D+03

 The electronic state is 1-A.
 Alpha  occ. eigenvalues --  -20.60784 -20.60776 -15.85839 -11.31245 -11.27827
 Alpha  occ. eigenvalues --  -11.27815 -11.27579 -11.26852 -11.26836 -11.22021
 Alpha  occ. eigenvalues --  -11.21857 -11.21809 -11.21766 -11.21432 -11.20985
 Alpha  occ. eigenvalues --   -1.59857  -1.39409  -1.19442  -1.08817  -1.08796
 Alpha  occ. eigenvalues --   -1.04858  -1.03805  -0.96248  -0.95644  -0.87262
 Alpha  occ. eigenvalues --   -0.86236  -0.82478  -0.79880  -0.78630  -0.77510
 Alpha  occ. eigenvalues --   -0.72057  -0.71182  -0.70539  -0.65457  -0.65082
 Alpha  occ. eigenvalues --   -0.64838  -0.62200  -0.61212  -0.59624  -0.57873
 Alpha  occ. eigenvalues --   -0.55596  -0.55339  -0.53264  -0.52941  -0.52905
 Alpha  occ. eigenvalues --   -0.52571  -0.50165  -0.48820  -0.48808  -0.48179
 Alpha  occ. eigenvalues --   -0.46921  -0.46157  -0.46097  -0.44799  -0.44090
 Alpha  occ. eigenvalues --   -0.37406  -0.36374
 Alpha virt. eigenvalues --    0.04993   0.11142   0.16375   0.19973   0.22778
 Alpha virt. eigenvalues --    0.24060   0.25159   0.26772   0.27542   0.28254
 Alpha virt. eigenvalues --    0.29063   0.31027   0.31279   0.31600   0.31876

 Mulliken charges:
               1
     1  C   -0.298016
     2  C   -0.298812
     3  C   -0.482777
     4  H    0.154302
     5  H    0.138241
     6  H    0.153512
     7  H    0.148456
     8  H    0.159696
     9  H    0.159697
    10  H    0.160640
    11  C   -0.298341
    12  C   -0.299024
    13  C   -0.475754
    14  H    0.152404
    15  H    0.146930
    16  H    0.154731
    17  H    0.146983
    18  H    0.153982
    19  H    0.156907
    20  H    0.161364
    21  C   -0.170821
    22  C   -0.218199
    23  C   -0.170667
    24  C    0.162713
    25  C   -0.177568
    26  C   -0.217094
    27  H    0.225981
    28  H    0.223841
    29  H    0.276078
    30  H    0.277810
    31  H    0.224782
    32  N    0.488477
    33  O   -0.460068
    34  O   -0.460386
 Sum of Mulliken charges =  -0.00000

 Dipole moment (field-independent basis, Debye):
    X=             -2.1157    Y=              4.5503    Z=              1.1804  Tot=              5.1551
 Quadrupole moment (field-independent basis, Debye-Ang):
   XX=           -103.9377   YY=            -93.1291   ZZ=            -94.8157
   XY=             14.7859   XZ=              6.2596   YZ=             -0.6434

 Normal termination of Gaussian 16 at Thu May  6 09:01:17 2021.
