 Gaussian 16, Revision A.03,
 Gaussian 16:  EM64L-G16RevA.03 25-Dec-2016

 -------------
 #p 6-31g* mp2
 -------------

 ------------------------------------------------------
 Input file generated by CHIRIPA (05-May-2021 14:53:14)
 ------------------------------------------------------
 Symbolic Z-matrix:
 Charge =  0 Multiplicity = 1

                         Standard orientation:
 ---------------------------------------------------------------------
 Center     Atomic      Atomic             Coordinates (Angstroms)
 Number     Number       Type             X           Y           Z
 ---------------------------------------------------------------------
      1          6           0        4.051973    0.102494   -0.405876
      2          6           0        5.354273    0.855971   -0.133343
      3          6           0        5.932231    1.510630   -1.388405
      4          1           0        4.232924   -0.664684   -1.171146
      5          1           0        3.315300    0.799024   -0.829613
      6          1           0        6.087823    0.158534    0.291041
      7          1           0        5.170245    1.621318    0.631506
      8          1           0        5.221158    2.227787   -1.811091
      9          1           0        6.143949    0.756692   -2.153490
     10          1           0        6.862946    2.043800   -1.170787
     11          6           0        3.461935   -0.557409    0.839158
     12          6           0        2.159635   -1.310886    0.566626
     13          6           0        1.581678   -1.965545    1.821688
     14          1           0        4.198609   -1.253939    1.262895
     15          1           0        3.280984    0.209770    1.604429
     16          1           0        2.343663   -2.076232   -0.198223
     17          1           0        1.426086   -0.613449    0.142241
     18          1           0        1.369959   -1.211607    2.586772
     19          1           0        2.292750   -2.682702    2.244373
     20          1           0        0.650962   -2.498715    1.604069
     21          6           0       -3.315899    2.531701    0.655137
     22          6           0       -4.394479    1.766597    0.199281
     23          6           0       -4.195230    0.461172   -0.259751
     24          6           0       -2.898308   -0.049875   -0.248949
     25          6           0       -1.803316    0.687416    0.199028
     26          6           0       -2.026034    1.990622    0.653557
     27          1           0       -3.479797    3.544925    1.009975
     28          1           0       -5.397296    2.184213    0.199364
     29          1           0       -5.012250   -0.153206   -0.618132
     30          1           0       -0.815154    0.243785    0.186887
     31          1           0       -1.186510    2.582499    1.007007
     32          7           0       -2.674949   -1.430697   -0.732523
     33          8           0       -1.522653   -1.857855   -0.712827
     34          8           0       -3.656405   -2.059680   -1.122088
 ---------------------------------------------------------------------

 SCF Done:  E(RHF) =  -669.535700701     A.U. after   15 cycles
 E2 =    -0.2091795292D+01 EUMP2 =    -0.67162749599275D+03

 The electronic state is 1-A.
 Alpha  occ. eigenvalues --  -20.60836 -20.60830 -15.85876 -11.31213 -11.27785
 Alpha  occ. eigenvalues --  -11.27767 -11.27530 -11.26799 -11.26789 -11.21609
 Alpha  occ. eigenvalues --  -11.21371 -11.21346 -11.21262 -11.21085 -11.20653
 Alpha  occ. eigenvalues --   -1.59902  -1.39456  -1.19389  -1.08790  -1.08341
 Alpha  occ. eigenvalues --   -1.04790  -1.03388  -0.95835  -0.95623  -0.86850
 Alpha  occ. eigenvalues --   -0.86191  -0.82460  -0.79456  -0.78156  -0.77499
 Alpha  occ. eigenvalues --   -0.72098  -0.71219  -0.70507  -0.65047  -0.65039
 Alpha  occ. eigenvalues --   -0.64764  -0.62175  -0.60784  -0.59177  -0.57403
 Alpha  occ. eigenvalues --   -0.55315  -0.55131  -0.53119  -0.52887  -0.52486
 Alpha  occ. eigenvalues --   -0.52244  -0.49806  -0.48856  -0.48849  -0.47752
 Alpha  occ. eigenvalues --   -0.46514  -0.45676  -0.45630  -0.44861  -0.43632
 Alpha  occ. eigenvalues --   -0.37371  -0.36391
 Alpha virt. eigenvalues --    0.05005   0.11257   0.16491   0.20250   0.22934
 Alpha virt. eigenvalues --    0.23943   0.26012   0.27173   0.27650   0.28067
 Alpha virt. eigenvalues --    0.29138   0.30596   0.31488   0.31760   0.32346

 Mulliken charges:
               1
     1  C   -0.297381
     2  C   -0.299300
     3  C   -0.475502
     4  H    0.152715
     5  H    0.145613
     6  H    0.152804
     7  H    0.149614
     8  H    0.153856
     9  H    0.156543
    10  H    0.159867
    11  C   -0.298109
    12  C   -0.300342
    13  C   -0.481831
    14  H    0.150795
    15  H    0.144273
    16  H    0.160609
    17  H    0.146279
    18  H    0.146427
    19  H    0.154604
    20  H    0.177447
    21  C   -0.170192
    22  C   -0.219254
    23  C   -0.169495
    24  C    0.155026
    25  C   -0.178668
    26  C   -0.223491
    27  H    0.225732
    28  H    0.223550
    29  H    0.275705
    30  H    0.293356
    31  H    0.223732
    32  N    0.487242
    33  O   -0.462642
    34  O   -0.459585
 Sum of Mulliken charges =  -0.00000

 Dipole moment (field-independent basis, Debye):
    X=             -0.8421    Y=              4.7045    Z=              1.6414  Tot=              5.0533
 Quadrupole moment (field-independent basis, Debye-Ang):
   XX=            -85.4382   YY=            -95.0321   ZZ=            -97.1138
   XY=            -14.8358   XZ=             -3.6132   YZ=             -0.5235

 Normal termination of Gaussian 16 at Wed May  5 20:13:34 2021.
