 Gaussian 16, Revision A.03,
 Gaussian 16:  EM64L-G16RevA.03 25-Dec-2016

 -------------
 #p 6-31g* mp2
 -------------

 ------------------------------------------------------
 Input file generated by CHIRIPA (05-May-2021 14:51:11)
 ------------------------------------------------------
 Symbolic Z-matrix:
 Charge =  0 Multiplicity = 1

                         Standard orientation:
 ---------------------------------------------------------------------
 Center     Atomic      Atomic             Coordinates (Angstroms)
 Number     Number       Type             X           Y           Z
 ---------------------------------------------------------------------
      1          6           0       -4.369341   -0.529849    0.196286
      2          6           0       -5.163373    0.025743   -0.986430
      3          6           0       -6.489175   -0.704268   -1.203522
      4          1           0       -4.178126   -1.599064    0.031480
      5          1           0       -4.981565   -0.458387    1.105940
      6          1           0       -4.549313   -0.045473   -1.893333
      7          1           0       -5.352556    1.093803   -0.818880
      8          1           0       -7.124007   -0.622320   -0.315337
      9          1           0       -6.316200   -1.768070   -1.395895
     10          1           0       -7.040483   -0.290988   -2.053885
     11          6           0       -3.041480    0.189686    0.426027
     12          6           0       -2.247448   -0.365906    1.608743
     13          6           0       -0.921647    0.364105    1.825835
     14          1           0       -2.429256    0.118224   -0.483627
     15          1           0       -3.232695    1.258901    0.590833
     16          1           0       -2.058266   -1.433966    1.441193
     17          1           0       -2.861508   -0.294690    2.515646
     18          1           0       -1.094621    1.427907    2.018208
     19          1           0       -0.286814    0.282157    0.937650
     20          1           0       -0.370338   -0.049175    2.676199
     21          6           0        3.663094   -0.580886   -0.444154
     22          6           0        4.922421   -1.342162   -0.028775
     23          6           0        4.822514   -2.843376   -0.301111
     24          1           0        2.798245   -0.995437    0.091694
     25          1           0        3.477717   -0.748837   -1.514118
     26          1           0        5.106144   -1.171706    1.039779
     27          1           0        5.784399   -0.925625   -0.565529
     28          1           0        4.662811   -3.031616   -1.367723
     29          1           0        3.980701   -3.279095    0.246706
     30          1           0        5.733457   -3.368121    0.003331
     31          6           0        3.747727    0.921049   -0.178160
     32          6           0        2.488400    1.682325   -0.593539
     33          6           0        2.588307    3.183539   -0.321202
     34          1           0        3.933104    1.089000    0.891805
     35          1           0        4.612576    1.335600   -0.714007
     36          1           0        1.626422    1.265788   -0.056784
     37          1           0        2.304677    1.511869   -1.662092
     38          1           0        3.430120    3.619258   -0.869019
     39          1           0        2.748010    3.371779    0.745410
     40          1           0        1.677364    3.708284   -0.625645
 ---------------------------------------------------------------------

 SCF Done:  E(RHF) =  -470.733317090     A.U. after   11 cycles
 E2 =    -0.1582538002D+01 EUMP2 =    -0.47231585509194D+03

 The electronic state is 1-A.
 Alpha  occ. eigenvalues --  -11.21639 -11.21610 -11.21587 -11.21527 -11.21422
 Alpha  occ. eigenvalues --  -11.21377 -11.21362 -11.21314 -11.21123 -11.21078
 Alpha  occ. eigenvalues --  -11.21063 -11.21019  -1.08452  -1.08398  -1.03561
 Alpha  occ. eigenvalues --   -1.03491  -0.96011  -0.95945  -0.87035  -0.86957
 Alpha  occ. eigenvalues --   -0.79660  -0.79527  -0.78277  -0.78198  -0.65110
 Alpha  occ. eigenvalues --   -0.65007  -0.61020  -0.60840  -0.59379  -0.59314
 Alpha  occ. eigenvalues --   -0.57640  -0.57536  -0.55312  -0.55225  -0.52707
 Alpha  occ. eigenvalues --   -0.52644  -0.52458  -0.52357  -0.50030  -0.49839
 Alpha  occ. eigenvalues --   -0.48058  -0.47793  -0.46769  -0.46483  -0.45879
 Alpha  occ. eigenvalues --   -0.45756  -0.45716  -0.45493  -0.43810  -0.43751
 Alpha virt. eigenvalues --    0.21684   0.23018   0.23833   0.24553   0.25549
 Alpha virt. eigenvalues --    0.26776   0.27116   0.27614   0.28005   0.29009
 Alpha virt. eigenvalues --    0.30708   0.31644   0.31724   0.31884   0.32015

 Mulliken charges:
               1
     1  C   -0.298336
     2  C   -0.299694
     3  C   -0.475724
     4  H    0.149714
     5  H    0.149543
     6  H    0.152040
     7  H    0.151961
     8  H    0.155183
     9  H    0.155212
    10  H    0.160299
    11  C   -0.298480
    12  C   -0.299283
    13  C   -0.482360
    14  H    0.149884
    15  H    0.149716
    16  H    0.151981
    17  H    0.152092
    18  H    0.155767
    19  H    0.160927
    20  H    0.160070
    21  C   -0.298919
    22  C   -0.299598
    23  C   -0.475708
    24  H    0.149720
    25  H    0.149204
    26  H    0.152028
    27  H    0.151977
    28  H    0.155051
    29  H    0.155119
    30  H    0.160221
    31  C   -0.297458
    32  C   -0.308864
    33  C   -0.474990
    34  H    0.149651
    35  H    0.149438
    36  H    0.161319
    37  H    0.151104
    38  H    0.154810
    39  H    0.155287
    40  H    0.160096
 Sum of Mulliken charges =  -0.00000

 Dipole moment (field-independent basis, Debye):
    X=             -0.0250    Y=              0.0011    Z=              0.0119  Tot=              0.0277
 Quadrupole moment (field-independent basis, Debye-Ang):
   XX=            -85.4464   YY=            -85.7608   ZZ=            -83.6321
   XY=             -0.6094   XZ=             -0.9007   YZ=              0.0418

 Normal termination of Gaussian 16 at Thu May  6 02:15:29 2021.
