 Gaussian 16, Revision A.03,
 Gaussian 16:  EM64L-G16RevA.03 25-Dec-2016

 -------------
 #p 6-31g* mp2
 -------------

 ------------------------------------------------------
 Input file generated by CHIRIPA (05-May-2021 14:57:24)
 ------------------------------------------------------
 Symbolic Z-matrix:
 Charge =  0 Multiplicity = 1

                         Standard orientation:
 ---------------------------------------------------------------------
 Center     Atomic      Atomic             Coordinates (Angstroms)
 Number     Number       Type             X           Y           Z
 ---------------------------------------------------------------------
      1          6           0        1.061693   -1.355474   -0.226243
      2          6           0        1.123719   -0.037594    0.238372
      3          6           0        2.350365    0.627410    0.325870
      4          6           0        3.500424   -0.058673   -0.061357
      5          6           0        3.471219   -1.371832   -0.528316
      6          6           0        2.233575   -2.017220   -0.607432
      7          1           0        0.104533   -1.864446   -0.290958
      8          1           0        0.215240    0.478802    0.535096
      9          1           0        2.427143    1.647560    0.681985
     10          1           0        4.393907   -1.860513   -0.816856
     11          1           0        2.188420   -3.040714   -0.968633
     12          7           0        4.804841    0.634954    0.026836
     13          8           0        5.803632    0.008489   -0.320432
     14          8           0        4.803753    1.791950    0.441560
     15          6           0       -3.391730   -2.310807    0.506445
     16          6           0       -4.061768   -1.761405   -0.591612
     17          6           0       -4.009805   -0.386554   -0.839871
     18          6           0       -3.275165    0.413115    0.034268
     19          6           0       -2.596889   -0.104385    1.136733
     20          6           0       -2.662715   -1.482004    1.365598
     21          1           0       -3.437480   -3.379900    0.691766
     22          1           0       -4.628698   -2.402652   -1.260520
     23          1           0       -4.519084    0.065141   -1.682501
     24          1           0       -2.039839    0.560266    1.785849
     25          1           0       -2.141366   -1.905913    2.219144
     26          7           0       -3.212817    1.870074   -0.218287
     27          8           0       -2.558764    2.553120    0.566761
     28          8           0       -3.819182    2.301405   -1.196506
 ---------------------------------------------------------------------

 SCF Done:  E(RHF) =  -868.337675513     A.U. after   16 cycles
 E2 =    -0.2601666158D+01 EUMP2 =    -0.87093934167092D+03

 The electronic state is 1-A.
 Alpha  occ. eigenvalues --  -20.61817 -20.61788 -20.60684 -20.60672 -15.86853
 Alpha  occ. eigenvalues --  -15.85735 -11.32401 -11.31129 -11.29010 -11.28892
 Alpha  occ. eigenvalues --  -11.28696 -11.28039 -11.27943 -11.27736 -11.27666
 Alpha  occ. eigenvalues --  -11.27443 -11.26769 -11.26662  -1.60869  -1.59756
 Alpha  occ. eigenvalues --   -1.40419  -1.39308  -1.20584  -1.19312  -1.09928
 Alpha  occ. eigenvalues --   -1.08707  -1.05997  -1.04715  -0.96734  -0.95531
 Alpha  occ. eigenvalues --   -0.87376  -0.86120  -0.83546  -0.82359  -0.78586
 Alpha  occ. eigenvalues --   -0.77400  -0.73056  -0.72200  -0.71953  -0.71647
 Alpha  occ. eigenvalues --   -0.71081  -0.70425  -0.66207  -0.65966  -0.64961
 Alpha  occ. eigenvalues --   -0.64757  -0.63307  -0.62046  -0.56443  -0.55282
 Alpha  occ. eigenvalues --   -0.54281  -0.54044  -0.53057  -0.52770  -0.49831
 Alpha  occ. eigenvalues --   -0.49811  -0.48717  -0.48704  -0.45777  -0.44707
 Alpha  occ. eigenvalues --   -0.38558  -0.37629  -0.37281  -0.36325
 Alpha virt. eigenvalues --    0.03907   0.05128   0.09894   0.11293   0.15408
 Alpha virt. eigenvalues --    0.16603   0.19971   0.21688   0.25601   0.26734
 Alpha virt. eigenvalues --    0.28119   0.28251   0.29611   0.30626   0.32116

 Mulliken charges:
               1
     1  C   -0.176576
     2  C   -0.225701
     3  C   -0.171106
     4  C    0.158490
     5  C   -0.171014
     6  C   -0.219015
     7  H    0.225152
     8  H    0.227859
     9  H    0.279653
    10  H    0.275047
    11  H    0.220807
    12  N    0.487951
    13  O   -0.461335
    14  O   -0.458716
    15  C   -0.175295
    16  C   -0.217520
    17  C   -0.169884
    18  C    0.161580
    19  C   -0.182920
    20  C   -0.223021
    21  H    0.229483
    22  H    0.228143
    23  H    0.279909
    24  H    0.276357
    25  H    0.228886
    26  N    0.488658
    27  O   -0.461770
    28  O   -0.454101
 Sum of Mulliken charges =  -0.00000

 Dipole moment (field-independent basis, Debye):
    X=             -5.1758    Y=             -7.4886    Z=              0.5191  Tot=              9.1180
 Quadrupole moment (field-independent basis, Debye-Ang):
   XX=           -132.6102   YY=           -105.9790   ZZ=           -101.7087
   XY=              7.1302   XZ=             -1.6789   YZ=              2.4517

 Normal termination of Gaussian 16 at Fri May  7 12:35:13 2021.
