 Gaussian 16, Revision A.03,
 Gaussian 16:  EM64L-G16RevA.03 25-Dec-2016

 -------------
 #p 6-31g* mp2
 -------------

 ------------------------------------------------------
 Input file generated by CHIRIPA (05-May-2021 14:51:11)
 ------------------------------------------------------
 Symbolic Z-matrix:
 Charge =  0 Multiplicity = 1

                         Standard orientation:
 ---------------------------------------------------------------------
 Center     Atomic      Atomic             Coordinates (Angstroms)
 Number     Number       Type             X           Y           Z
 ---------------------------------------------------------------------
      1          6           0        3.510397   -0.678858   -0.379063
      2          6           0        2.228316   -1.340131    0.127859
      3          6           0        1.983221   -2.712771   -0.499502
      4          1           0        3.456977   -0.579857   -1.471898
      5          1           0        4.363484   -1.337909   -0.166247
      6          1           0        1.378071   -0.679407   -0.084610
      7          1           0        2.284712   -1.437395    1.219635
      8          1           0        2.812410   -3.391929   -0.276362
      9          1           0        1.900617   -2.629634   -1.588017
     10          1           0        1.061576   -3.167446   -0.123068
     11          6           0        3.769150    0.694035    0.238951
     12          6           0        5.051232    1.355308   -0.267971
     13          6           0        5.296326    2.727948    0.359390
     14          1           0        2.916064    1.353085    0.026135
     15          1           0        3.822570    0.595034    1.331786
     16          1           0        4.994835    1.452572   -1.359747
     17          1           0        5.901476    0.694584   -0.055502
     18          1           0        5.378930    2.644811    1.447905
     19          1           0        4.467138    3.407106    0.136250
     20          1           0        6.217971    3.182623   -0.017044
     21          6           0       -3.984270    0.609129    0.360596
     22          6           0       -4.757809    1.418613   -0.680729
     23          6           0       -5.441482    2.649289   -0.084219
     24          1           0       -4.672184    0.297547    1.158490
     25          1           0       -3.231186    1.255693    0.831992
     26          1           0       -5.508282    0.770344   -1.150997
     27          1           0       -4.068013    1.728142   -1.476335
     28          1           0       -4.702934    3.318732    0.368543
     29          1           0       -6.151387    2.355491    0.695729
     30          1           0       -5.988656    3.213334   -0.846002
     31          6           0       -3.295277   -0.624306   -0.220484
     32          6           0       -2.521738   -1.433790    0.820841
     33          6           0       -1.838065   -2.664466    0.224331
     34          1           0       -4.048361   -1.270871   -0.691880
     35          1           0       -2.607363   -0.312724   -1.018379
     36          1           0       -3.211534   -1.743320    1.616446
     37          1           0       -1.771265   -0.785520    1.291110
     38          1           0       -1.128160   -2.370668   -0.555617
     39          1           0       -2.576613   -3.333909   -0.228431
     40          1           0       -1.290892   -3.228512    0.986114
 ---------------------------------------------------------------------

 SCF Done:  E(RHF) =  -470.732635778     A.U. after   11 cycles
 E2 =    -0.1582946946D+01 EUMP2 =    -0.47231558272371D+03

 The electronic state is 1-A.
 Alpha  occ. eigenvalues --  -11.21615 -11.21608 -11.21605 -11.21587 -11.21421
 Alpha  occ. eigenvalues --  -11.21402 -11.21361 -11.21341 -11.21081 -11.21077
 Alpha  occ. eigenvalues --  -11.21060 -11.20927  -1.08450  -1.08416  -1.03576
 Alpha  occ. eigenvalues --   -1.03480  -0.96064  -0.95893  -0.87103  -0.86892
 Alpha  occ. eigenvalues --   -0.79651  -0.79535  -0.78257  -0.78235  -0.65114
 Alpha  occ. eigenvalues --   -0.65024  -0.61076  -0.60840  -0.59514  -0.59198
 Alpha  occ. eigenvalues --   -0.57616  -0.57582  -0.55367  -0.55138  -0.52940
 Alpha  occ. eigenvalues --   -0.52519  -0.52422  -0.52247  -0.49960  -0.49821
 Alpha  occ. eigenvalues --   -0.47921  -0.47889  -0.46635  -0.46591  -0.45806
 Alpha  occ. eigenvalues --   -0.45776  -0.45713  -0.45700  -0.43905  -0.43626
 Alpha virt. eigenvalues --    0.21231   0.23130   0.23525   0.25219   0.26258
 Alpha virt. eigenvalues --    0.26841   0.27104   0.27357   0.27812   0.29158
 Alpha virt. eigenvalues --    0.29675   0.31178   0.31551   0.31759   0.32292

 Mulliken charges:
               1
     1  C   -0.298022
     2  C   -0.300248
     3  C   -0.482713
     4  H    0.149504
     5  H    0.149766
     6  H    0.151288
     7  H    0.151741
     8  H    0.154389
     9  H    0.153584
    10  H    0.169668
    11  C   -0.298185
    12  C   -0.299638
    13  C   -0.475689
    14  H    0.149048
    15  H    0.149622
    16  H    0.151909
    17  H    0.152010
    18  H    0.155185
    19  H    0.155052
    20  H    0.160280
    21  C   -0.298342
    22  C   -0.299640
    23  C   -0.475715
    24  H    0.149769
    25  H    0.149565
    26  H    0.151981
    27  H    0.151806
    28  H    0.155195
    29  H    0.155237
    30  H    0.160276
    31  C   -0.298630
    32  C   -0.300299
    33  C   -0.480570
    34  H    0.149649
    35  H    0.149411
    36  H    0.151925
    37  H    0.152966
    38  H    0.161474
    39  H    0.155203
    40  H    0.160186
 Sum of Mulliken charges =  -0.00000

 Dipole moment (field-independent basis, Debye):
    X=             -0.0322    Y=             -0.0177    Z=              0.0066  Tot=              0.0374
 Quadrupole moment (field-independent basis, Debye-Ang):
   XX=            -84.2909   YY=            -86.1201   ZZ=            -84.4009
   XY=              0.4817   XZ=              0.3179   YZ=             -1.0915

 Normal termination of Gaussian 16 at Wed May  5 18:16:16 2021.
