 Gaussian 16, Revision A.03,
 Gaussian 16:  EM64L-G16RevA.03 25-Dec-2016

 -------------
 #p 6-31g* mp2
 -------------

 ------------------------------------------------------
 Input file generated by CHIRIPA (05-May-2021 14:53:18)
 ------------------------------------------------------
 Symbolic Z-matrix:
 Charge =  0 Multiplicity = 1

                         Standard orientation:
 ---------------------------------------------------------------------
 Center     Atomic      Atomic             Coordinates (Angstroms)
 Number     Number       Type             X           Y           Z
 ---------------------------------------------------------------------
      1          6           0        2.757161    0.759759    0.361483
      2          6           0        2.659719    2.283967    0.288819
      3          6           0        1.295073    2.810957    0.733586
      4          1           0        1.970043    0.318105   -0.264881
      5          1           0        2.555725    0.435132    1.391743
      6          1           0        2.862641    2.605722   -0.740701
      7          1           0        3.447281    2.722044    0.915278
      8          1           0        1.087597    2.518400    1.767977
      9          1           0        0.499636    2.401417    0.102589
     10          1           0        1.247375    3.902746    0.673735
     11          6           0        4.115509    0.217814   -0.080010
     12          6           0        4.212951   -1.306394   -0.007346
     13          6           0        5.577597   -1.833384   -0.452113
     14          1           0        4.316945    0.542441   -1.110270
     15          1           0        4.902626    0.659469    0.546354
     16          1           0        3.425389   -1.744471   -0.633805
     17          1           0        4.010029   -1.628149    1.022174
     18          1           0        6.373034   -1.423844    0.178884
     19          1           0        5.785073   -1.540827   -1.486504
     20          1           0        5.625295   -2.925173   -0.392262
     21          6           0       -2.132056   -2.809606    0.298274
     22          6           0       -3.413366   -2.325948    0.582602
     23          6           0       -3.730720   -0.982653    0.360351
     24          6           0       -2.738058   -0.147160   -0.149416
     25          6           0       -1.452361   -0.599108   -0.442699
     26          6           0       -1.157363   -1.946165   -0.212568
     27          1           0       -1.894212   -3.854572    0.473985
     28          1           0       -4.172319   -2.994216    0.979403
     29          1           0       -4.714639   -0.581809    0.571644
     30          1           0       -0.716799    0.091199   -0.837469
     31          1           0       -0.161439   -2.319012   -0.434306
     32          7           0       -3.062193    1.276918   -0.388875
     33          8           0       -2.169927    1.992606   -0.838639
     34          8           0       -4.202379    1.650456   -0.122264
 ---------------------------------------------------------------------

 SCF Done:  E(RHF) =  -669.535925107     A.U. after   15 cycles
 E2 =    -0.2092216338D+01 EUMP2 =    -0.67162814144487D+03

 The electronic state is 1-A.
 Alpha  occ. eigenvalues --  -20.60865 -20.60860 -15.85894 -11.31209 -11.27775
 Alpha  occ. eigenvalues --  -11.27768 -11.27510 -11.26785 -11.26767 -11.22071
 Alpha  occ. eigenvalues --  -11.21710 -11.21648 -11.21461 -11.21443 -11.20500
 Alpha  occ. eigenvalues --   -1.59923  -1.39481  -1.19379  -1.08784  -1.08653
 Alpha  occ. eigenvalues --   -1.04775  -1.03623  -0.96041  -0.95627  -0.87053
 Alpha  occ. eigenvalues --   -0.86177  -0.82463  -0.79713  -0.78483  -0.77506
 Alpha  occ. eigenvalues --   -0.72123  -0.71234  -0.70495  -0.65299  -0.65037
 Alpha  occ. eigenvalues --   -0.64778  -0.62140  -0.61002  -0.59463  -0.57658
 Alpha  occ. eigenvalues --   -0.55315  -0.55283  -0.53106  -0.52872  -0.52695
 Alpha  occ. eigenvalues --   -0.52468  -0.50012  -0.48873  -0.48867  -0.47993
 Alpha  occ. eigenvalues --   -0.46758  -0.46008  -0.45908  -0.44832  -0.43902
 Alpha  occ. eigenvalues --   -0.37358  -0.36369
 Alpha virt. eigenvalues --    0.04980   0.11255   0.16463   0.19383   0.22932
 Alpha virt. eigenvalues --    0.23548   0.24825   0.26712   0.27265   0.28242
 Alpha virt. eigenvalues --    0.29469   0.30693   0.31559   0.31655   0.32066

 Mulliken charges:
               1
     1  C   -0.297787
     2  C   -0.300570
     3  C   -0.485683
     4  H    0.137940
     5  H    0.150188
     6  H    0.152906
     7  H    0.151479
     8  H    0.151221
     9  H    0.173534
    10  H    0.163833
    11  C   -0.298151
    12  C   -0.298730
    13  C   -0.475648
    14  H    0.151152
    15  H    0.152348
    16  H    0.144067
    17  H    0.151695
    18  H    0.157260
    19  H    0.156525
    20  H    0.159367
    21  C   -0.170650
    22  C   -0.218740
    23  C   -0.170587
    24  C    0.158242
    25  C   -0.172946
    26  C   -0.220216
    27  H    0.225805
    28  H    0.223514
    29  H    0.275551
    30  H    0.279979
    31  H    0.224727
    32  N    0.489840
    33  O   -0.462264
    34  O   -0.459200
 Sum of Mulliken charges =  -0.00000

 Dipole moment (field-independent basis, Debye):
    X=              1.0944    Y=             -4.9125    Z=              0.8556  Tot=              5.1051
 Quadrupole moment (field-independent basis, Debye-Ang):
   XX=            -97.1498   YY=            -93.7319   ZZ=            -94.4986
   XY=             15.1370   XZ=             -3.7043   YZ=              0.1175

 Normal termination of Gaussian 16 at Wed May  5 18:48:19 2021.
