 Gaussian 16, Revision A.03,
 Gaussian 16:  EM64L-G16RevA.03 25-Dec-2016

 -------------
 #p 6-31g* mp2
 -------------

 ------------------------------------------------------
 Input file generated by CHIRIPA (05-May-2021 14:53:13)
 ------------------------------------------------------
 Symbolic Z-matrix:
 Charge =  0 Multiplicity = 1

                         Standard orientation:
 ---------------------------------------------------------------------
 Center     Atomic      Atomic             Coordinates (Angstroms)
 Number     Number       Type             X           Y           Z
 ---------------------------------------------------------------------
      1          6           0        3.969318   -0.240011   -0.397029
      2          6           0        4.670603   -1.431510    0.256052
      3          6           0        5.368579   -2.336190   -0.759910
      4          1           0        3.235390   -0.609324   -1.126345
      5          1           0        4.706693    0.344685   -0.964307
      6          1           0        3.932381   -2.013010    0.823064
      7          1           0        5.402812   -1.059322    0.984037
      8          1           0        6.125755   -1.776164   -1.318172
      9          1           0        4.646970   -2.735271   -1.480059
     10          1           0        5.863345   -3.181478   -0.271490
     11          6           0        3.266944    0.673673    0.605758
     12          6           0        2.565660    1.865171   -0.047323
     13          6           0        1.867684    2.769851    0.968639
     14          1           0        2.529569    0.088977    1.173035
     15          1           0        4.000873    1.042985    1.335074
     16          1           0        1.833451    1.492983   -0.775308
     17          1           0        3.303881    2.446672   -0.614335
     18          1           0        2.589293    3.168933    1.688788
     19          1           0        1.110507    2.209825    1.526901
     20          1           0        1.372917    3.615139    0.480219
     21          6           0       -3.669116   -2.491742    0.431224
     22          6           0       -2.295789   -2.226553    0.444223
     23          6           0       -1.817707   -0.943534    0.161650
     24          6           0       -2.745220    0.055117   -0.131107
     25          6           0       -4.119488   -0.177783   -0.151945
     26          6           0       -4.574985   -1.468315    0.133706
     27          1           0       -4.031728   -3.491340    0.651929
     28          1           0       -1.589968   -3.019417    0.674941
     29          1           0       -0.759808   -0.710601    0.164757
     30          1           0       -4.798748    0.633065   -0.385511
     31          1           0       -5.642083   -1.671368    0.122880
     32          7           0       -2.251051    1.417368   -0.431883
     33          8           0       -3.088739    2.279890   -0.686783
     34          8           0       -1.035391    1.596786   -0.407035
 ---------------------------------------------------------------------

 SCF Done:  E(RHF) =  -669.535737527     A.U. after   15 cycles
 E2 =    -0.2091907645D+01 EUMP2 =    -0.67162764517142D+03

 The electronic state is 1-A.
 Alpha  occ. eigenvalues --  -20.60954 -20.60948 -15.85985 -11.31313 -11.27882
 Alpha  occ. eigenvalues --  -11.27870 -11.27610 -11.26884 -11.26873 -11.21451
 Alpha  occ. eigenvalues --  -11.21042 -11.20989 -11.20813 -11.20465 -11.19691
 Alpha  occ. eigenvalues --   -1.60016  -1.39574  -1.19481  -1.08884  -1.07916
 Alpha  occ. eigenvalues --   -1.04878  -1.02869  -0.95738  -0.95318  -0.86361
 Alpha  occ. eigenvalues --   -0.86276  -0.82562  -0.79011  -0.77672  -0.77597
 Alpha  occ. eigenvalues --   -0.72231  -0.71329  -0.70590  -0.65151  -0.64883
 Alpha  occ. eigenvalues --   -0.64546  -0.62227  -0.60236  -0.58781  -0.56902
 Alpha  occ. eigenvalues --   -0.55380  -0.54617  -0.53209  -0.52970  -0.51992
 Alpha  occ. eigenvalues --   -0.51766  -0.49342  -0.48976  -0.48931  -0.47292
 Alpha  occ. eigenvalues --   -0.46106  -0.45234  -0.45178  -0.44785  -0.43147
 Alpha  occ. eigenvalues --   -0.37458  -0.36480
 Alpha virt. eigenvalues --    0.04896   0.11173   0.16380   0.20447   0.22815
 Alpha virt. eigenvalues --    0.24461   0.26471   0.27482   0.27989   0.28688
 Alpha virt. eigenvalues --    0.28941   0.30856   0.31651   0.32220   0.32787

 Mulliken charges:
               1
     1  C   -0.297490
     2  C   -0.298256
     3  C   -0.475161
     4  H    0.146658
     5  H    0.150579
     6  H    0.146645
     7  H    0.152498
     8  H    0.156288
     9  H    0.153254
    10  H    0.158628
    11  C   -0.297253
    12  C   -0.303596
    13  C   -0.467715
    14  H    0.141180
    15  H    0.147988
    16  H    0.166379
    17  H    0.146958
    18  H    0.143533
    19  H    0.156041
    20  H    0.168765
    21  C   -0.170562
    22  C   -0.218615
    23  C   -0.171484
    24  C    0.157681
    25  C   -0.170650
    26  C   -0.218543
    27  H    0.226122
    28  H    0.224015
    29  H    0.275842
    30  H    0.275931
    31  H    0.223920
    32  N    0.495271
    33  O   -0.458905
    34  O   -0.465946
 Sum of Mulliken charges =  -0.00000

 Dipole moment (field-independent basis, Debye):
    X=             -2.0184    Y=             -4.6881    Z=              0.9642  Tot=              5.1944
 Quadrupole moment (field-independent basis, Debye-Ang):
   XX=            -80.9464   YY=            -95.5481   ZZ=            -96.4223
   XY=             12.5631   XZ=             -1.8774   YZ=             -0.2132

 Normal termination of Gaussian 16 at Thu May  6 12:05:16 2021.
