 Gaussian 16, Revision A.03,
 Gaussian 16:  EM64L-G16RevA.03 25-Dec-2016

 -------------
 #p 6-31g* mp2
 -------------

 ------------------------------------------------------
 Input file generated by CHIRIPA (05-May-2021 14:55:23)
 ------------------------------------------------------
 Symbolic Z-matrix:
 Charge =  0 Multiplicity = 1

                         Standard orientation:
 ---------------------------------------------------------------------
 Center     Atomic      Atomic             Coordinates (Angstroms)
 Number     Number       Type             X           Y           Z
 ---------------------------------------------------------------------
      1          6           0        0.575452   -0.716819    1.244076
      2          6           0        1.724060   -0.525826    2.019152
      3          6           0        2.956802   -0.271080    1.410876
      4          6           0        3.004891   -0.213863    0.018862
      5          6           0        1.878210   -0.399853   -0.780693
      6          6           0        0.656051   -0.653335   -0.150913
      7          1           0       -0.378061   -0.914221    1.724951
      8          1           0        1.664445   -0.574571    3.102718
      9          1           0        3.861638   -0.119424    1.986801
     10          1           0        1.969032   -0.345382   -1.858748
     11          1           0       -0.234335   -0.801265   -0.755375
     12          7           0        4.304338    0.055157   -0.636475
     13          8           0        4.320200    0.100601   -1.864612
     14          8           0        5.282378    0.215475    0.090418
     15          6           0       -3.960271   -0.269458    0.107487
     16          6           0       -3.833964   -1.516864   -0.767731
     17          6           0       -4.615985   -2.708677   -0.214723
     18          1           0       -3.606931   -0.503194    1.121125
     19          1           0       -5.021793   -0.001318    0.200579
     20          1           0       -2.772889   -1.781763   -0.860280
     21          1           0       -4.187466   -1.280077   -1.779455
     22          1           0       -5.681397   -2.468475   -0.138553
     23          1           0       -4.258782   -2.973013    0.785844
     24          1           0       -4.511802   -3.589567   -0.855848
     25          6           0       -3.183990    0.930450   -0.432272
     26          6           0       -3.310296    2.177856    0.442946
     27          6           0       -2.528276    3.369670   -0.110062
     28          1           0       -2.122467    0.662310   -0.525364
     29          1           0       -3.537330    1.164187   -1.445910
     30          1           0       -2.956794    1.941069    1.454669
     31          1           0       -4.371371    2.442756    0.535495
     32          1           0       -2.885479    3.634005   -1.110629
     33          1           0       -1.462865    3.129468   -0.186232
     34          1           0       -2.632459    4.250559    0.531063
 ---------------------------------------------------------------------

 SCF Done:  E(RHF) =  -669.535292088     A.U. after   15 cycles
 E2 =    -0.2092341410D+01 EUMP2 =    -0.67162763349712D+03

 The electronic state is 1-A.
 Alpha  occ. eigenvalues --  -20.60780 -20.60775 -15.85834 -11.31217 -11.27791
 Alpha  occ. eigenvalues --  -11.27784 -11.27541 -11.26804 -11.26777 -11.22667
 Alpha  occ. eigenvalues --  -11.22410 -11.22367 -11.22301 -11.21931 -11.21621
 Alpha  occ. eigenvalues --   -1.59855  -1.39408  -1.19393  -1.09381  -1.08783
 Alpha  occ. eigenvalues --   -1.04797  -1.04370  -0.96802  -0.95616  -0.87811
 Alpha  occ. eigenvalues --   -0.86201  -0.82447  -0.80449  -0.79209  -0.77488
 Alpha  occ. eigenvalues --   -0.72053  -0.71178  -0.70504  -0.66124  -0.65040
 Alpha  occ. eigenvalues --   -0.64736  -0.62143  -0.61774  -0.60171  -0.58414
 Alpha  occ. eigenvalues --   -0.56090  -0.55301  -0.53466  -0.53242  -0.53109
 Alpha  occ. eigenvalues --   -0.52890  -0.50746  -0.48821  -0.48806  -0.48751
 Alpha  occ. eigenvalues --   -0.47509  -0.46700  -0.46635  -0.44810  -0.44649
 Alpha  occ. eigenvalues --   -0.37367  -0.36390
 Alpha virt. eigenvalues --    0.05044   0.11100   0.16513   0.18251   0.22852
 Alpha virt. eigenvalues --    0.23565   0.24410   0.25373   0.27001   0.28472
 Alpha virt. eigenvalues --    0.30054   0.30440   0.31031   0.31233   0.31627

 Mulliken charges:
               1
     1  C   -0.173016
     2  C   -0.218631
     3  C   -0.170751
     4  C    0.158790
     5  C   -0.172177
     6  C   -0.224053
     7  H    0.226420
     8  H    0.223604
     9  H    0.275807
    10  H    0.276383
    11  H    0.231207
    12  N    0.488004
    13  O   -0.460171
    14  O   -0.460346
    15  C   -0.299114
    16  C   -0.302412
    17  C   -0.475559
    18  H    0.144277
    19  H    0.154939
    20  H    0.144151
    21  H    0.156655
    22  H    0.158776
    23  H    0.153910
    24  H    0.163469
    25  C   -0.304212
    26  C   -0.298796
    27  C   -0.477155
    28  H    0.145169
    29  H    0.153641
    30  H    0.149304
    31  H    0.154621
    32  H    0.156888
    33  H    0.157629
    34  H    0.162748
 Sum of Mulliken charges =  -0.00000

 Dipole moment (field-independent basis, Debye):
    X=             -4.7349    Y=             -0.8874    Z=              2.2764  Tot=              5.3281
 Quadrupole moment (field-independent basis, Debye-Ang):
   XX=           -120.4967   YY=            -95.6366   ZZ=            -90.5073
   XY=             -2.4870   XZ=              9.9609   YZ=             -0.1453

 Normal termination of Gaussian 16 at Thu May  6 15:56:11 2021.
