 Gaussian 16, Revision A.03,
 Gaussian 16:  EM64L-G16RevA.03 25-Dec-2016

 -------------
 #p 6-31g* mp2
 -------------

 ------------------------------------------------------
 Input file generated by CHIRIPA (05-May-2021 14:55:23)
 ------------------------------------------------------
 Symbolic Z-matrix:
 Charge =  0 Multiplicity = 1

                         Standard orientation:
 ---------------------------------------------------------------------
 Center     Atomic      Atomic             Coordinates (Angstroms)
 Number     Number       Type             X           Y           Z
 ---------------------------------------------------------------------
      1          6           0       -3.194286    2.027341   -0.357715
      2          6           0       -1.947397    1.674776   -0.884485
      3          6           0       -1.455228    0.374814   -0.734763
      4          6           0       -2.239878   -0.551497   -0.049517
      5          6           0       -3.486038   -0.230795    0.486697
      6          6           0       -3.958280    1.075109    0.324991
      7          1           0       -3.568875    3.039491   -0.478678
      8          1           0       -1.351899    2.412219   -1.415150
      9          1           0       -0.493328    0.074899   -1.132527
     10          1           0       -4.056793   -0.987765    1.010771
     11          1           0       -4.926988    1.346088    0.735139
     12          7           0       -1.729389   -1.930854    0.115330
     13          8           0       -2.439972   -2.728488    0.723187
     14          8           0       -0.628350   -2.188243   -0.366440
     15          6           0        3.246961   -0.241283    0.378717
     16          6           0        3.245458   -1.382704   -0.638702
     17          6           0        3.792910   -2.688895   -0.062544
     18          1           0        4.271966   -0.082789    0.740920
     19          1           0        2.649099   -0.536971    1.251943
     20          1           0        3.842004   -1.084412   -1.510350
     21          1           0        2.220369   -1.538371   -0.998667
     22          1           0        3.193527   -3.013087    0.794334
     23          1           0        4.824377   -2.556548    0.279744
     24          1           0        3.782735   -3.491359   -0.806728
     25          6           0        2.702512    1.071139   -0.182401
     26          6           0        2.704015    2.212560    0.835018
     27          6           0        2.156564    3.518751    0.258861
     28          1           0        3.300374    1.366827   -1.055627
     29          1           0        1.677507    0.912646   -0.544603
     30          1           0        3.729105    2.368227    1.194983
     31          1           0        2.107469    1.914268    1.706666
     32          1           0        1.125097    3.386404   -0.083427
     33          1           0        2.755946    3.842943   -0.598018
     34          1           0        2.166738    4.321215    1.003044
 ---------------------------------------------------------------------

 SCF Done:  E(RHF) =  -669.535778332     A.U. after   15 cycles
 E2 =    -0.2092944788D+01 EUMP2 =    -0.67162872312038D+03

 The electronic state is 1-A.
 Alpha  occ. eigenvalues --  -20.60928 -20.60921 -15.85970 -11.31287 -11.27858
 Alpha  occ. eigenvalues --  -11.27843 -11.27588 -11.26862 -11.26852 -11.21782
 Alpha  occ. eigenvalues --  -11.21510 -11.21495 -11.21050 -11.20887 -11.20288
 Alpha  occ. eigenvalues --   -1.59993  -1.39549  -1.19461  -1.08861  -1.08291
 Alpha  occ. eigenvalues --   -1.04859  -1.03303  -0.95806  -0.95704  -0.86823
 Alpha  occ. eigenvalues --   -0.86256  -0.82541  -0.79450  -0.78077  -0.77557
 Alpha  occ. eigenvalues --   -0.72194  -0.71310  -0.70575  -0.65117  -0.65013
 Alpha  occ. eigenvalues --   -0.64790  -0.62199  -0.60669  -0.59234  -0.57389
 Alpha  occ. eigenvalues --   -0.55371  -0.55108  -0.53185  -0.52959  -0.52481
 Alpha  occ. eigenvalues --   -0.52211  -0.49754  -0.48951  -0.48940  -0.47742
 Alpha  occ. eigenvalues --   -0.46491  -0.45584  -0.45412  -0.44939  -0.43583
 Alpha  occ. eigenvalues --   -0.37434  -0.36444
 Alpha virt. eigenvalues --    0.04898   0.11129   0.16317   0.19615   0.23242
 Alpha virt. eigenvalues --    0.23804   0.24991   0.26604   0.27287   0.28425
 Alpha virt. eigenvalues --    0.29545   0.31062   0.31714   0.32177   0.32702

 Mulliken charges:
               1
     1  C   -0.170508
     2  C   -0.221853
     3  C   -0.175451
     4  C    0.158183
     5  C   -0.170450
     6  C   -0.218556
     7  H    0.226386
     8  H    0.226162
     9  H    0.282553
    10  H    0.275844
    11  H    0.223924
    12  N    0.491545
    13  O   -0.459183
    14  O   -0.465154
    15  C   -0.297642
    16  C   -0.307909
    17  C   -0.474712
    18  H    0.148176
    19  H    0.153566
    20  H    0.145822
    21  H    0.170594
    22  H    0.161729
    23  H    0.149610
    24  H    0.161363
    25  C   -0.300051
    26  C   -0.299133
    27  C   -0.475827
    28  H    0.149273
    29  H    0.140097
    30  H    0.154380
    31  H    0.154013
    32  H    0.146032
    33  H    0.155676
    34  H    0.161501
 Sum of Mulliken charges =  -0.00000

 Dipole moment (field-independent basis, Debye):
    X=             -1.8925    Y=              4.7068    Z=             -0.5110  Tot=              5.0987
 Quadrupole moment (field-independent basis, Debye-Ang):
   XX=            -82.7830   YY=           -101.3175   ZZ=            -94.1044
   XY=             -8.4109   XZ=             -1.2172   YZ=             -0.4074

 Normal termination of Gaussian 16 at Thu May  6 15:57:57 2021.
