 Gaussian 16, Revision A.03,
 Gaussian 16:  EM64L-G16RevA.03 25-Dec-2016

 -------------
 #p 6-31g* mp2
 -------------

 ------------------------------------------------------
 Input file generated by CHIRIPA (05-May-2021 14:55:20)
 ------------------------------------------------------
 Symbolic Z-matrix:
 Charge =  0 Multiplicity = 1

                         Standard orientation:
 ---------------------------------------------------------------------
 Center     Atomic      Atomic             Coordinates (Angstroms)
 Number     Number       Type             X           Y           Z
 ---------------------------------------------------------------------
      1          6           0       -1.837278    2.274213    1.203774
      2          6           0       -1.636994    0.967368    1.660461
      3          6           0       -2.211545   -0.115522    0.988309
      4          6           0       -2.984079    0.145968   -0.142224
      5          6           0       -3.202070    1.436584   -0.621891
      6          6           0       -2.617801    2.504244    0.066061
      7          1           0       -1.387178    3.109512    1.732055
      8          1           0       -1.031303    0.785735    2.543747
      9          1           0       -2.072766   -1.137320    1.320104
     10          1           0       -3.810843    1.586162   -1.505316
     11          1           0       -2.775049    3.518100   -0.290890
     12          7           0       -3.597475   -0.992378   -0.862165
     13          8           0       -4.273866   -0.735426   -1.855698
     14          8           0       -3.390249   -2.120011   -0.419289
     15          6           0        3.379763   -1.001489    0.426390
     16          6           0        1.853337   -0.938780    0.490231
     17          6           0        1.246971   -2.094827    1.286266
     18          1           0        3.682646   -1.956931   -0.023431
     19          1           0        3.783102   -0.995424    1.448484
     20          1           0        1.453055   -0.943567   -0.531712
     21          1           0        1.554049    0.016704    0.939777
     22          1           0        1.618372   -2.089990    2.316140
     23          1           0        1.516804   -3.055718    0.836291
     24          1           0        0.154898   -2.030353    1.319145
     25          6           0        4.000676    0.147522   -0.366054
     26          6           0        5.527102    0.084814   -0.429895
     27          6           0        6.133468    1.240859   -1.225930
     28          1           0        3.597338    0.141456   -1.388148
     29          1           0        3.697794    1.102964    0.083767
     30          1           0        5.826391   -0.870671   -0.879441
     31          1           0        5.927384    0.089599    0.592048
     32          1           0        5.863635    2.201751   -0.775954
     33          1           0        5.762068    1.236023   -2.255803
     34          1           0        7.225541    1.176386   -1.258809
 ---------------------------------------------------------------------

 SCF Done:  E(RHF) =  -669.535250649     A.U. after   15 cycles
 E2 =    -0.2092091981D+01 EUMP2 =    -0.67162734263049D+03

 The electronic state is 1-A.
 Alpha  occ. eigenvalues --  -20.60781 -20.60776 -15.85834 -11.31207 -11.27780
 Alpha  occ. eigenvalues --  -11.27776 -11.27526 -11.26803 -11.26792 -11.21911
 Alpha  occ. eigenvalues --  -11.21825 -11.21674 -11.21614 -11.21457 -11.21284
 Alpha  occ. eigenvalues --   -1.59856  -1.39409  -1.19386  -1.08778  -1.08704
 Alpha  occ. eigenvalues --   -1.04796  -1.03810  -0.96273  -0.95610  -0.87289
 Alpha  occ. eigenvalues --   -0.86188  -0.82443  -0.79868  -0.78509  -0.77492
 Alpha  occ. eigenvalues --   -0.72054  -0.71179  -0.70508  -0.65340  -0.65041
 Alpha  occ. eigenvalues --   -0.64798  -0.62210  -0.61202  -0.59626  -0.57881
 Alpha  occ. eigenvalues --   -0.55550  -0.55293  -0.53202  -0.53025  -0.52812
 Alpha  occ. eigenvalues --   -0.52588  -0.50200  -0.48812  -0.48808  -0.48184
 Alpha  occ. eigenvalues --   -0.46898  -0.46054  -0.45974  -0.44813  -0.44070
 Alpha  occ. eigenvalues --   -0.37359  -0.36360
 Alpha virt. eigenvalues --    0.05015   0.11179   0.16459   0.20410   0.22757
 Alpha virt. eigenvalues --    0.23960   0.26227   0.26277   0.27129   0.27824
 Alpha virt. eigenvalues --    0.28739   0.29960   0.31207   0.31524   0.31814

 Mulliken charges:
               1
     1  C   -0.171427
     2  C   -0.217340
     3  C   -0.172489
     4  C    0.158613
     5  C   -0.170854
     6  C   -0.218216
     7  H    0.225634
     8  H    0.224530
     9  H    0.278232
    10  H    0.275695
    11  H    0.223574
    12  N    0.487860
    13  O   -0.460367
    14  O   -0.460381
    15  C   -0.298923
    16  C   -0.299546
    17  C   -0.478930
    18  H    0.152171
    19  H    0.148204
    20  H    0.156651
    21  H    0.146448
    22  H    0.152520
    23  H    0.162079
    24  H    0.155790
    25  C   -0.297951
    26  C   -0.299837
    27  C   -0.475744
    28  H    0.151278
    29  H    0.146886
    30  H    0.153404
    31  H    0.151476
    32  H    0.153919
    33  H    0.156023
    34  H    0.161018
 Sum of Mulliken charges =  -0.00000

 Dipole moment (field-independent basis, Debye):
    X=              2.1922    Y=              3.9942    Z=              2.4653  Tot=              5.1804
 Quadrupole moment (field-independent basis, Debye-Ang):
   XX=           -107.7711   YY=            -92.0577   ZZ=            -93.3986
   XY=            -13.8482   XZ=             -6.1562   YZ=             -1.5714

 Normal termination of Gaussian 16 at Wed May  5 17:24:50 2021.
