 Gaussian 16, Revision A.03,
 Gaussian 16:  EM64L-G16RevA.03 25-Dec-2016

 -------------
 #p 6-31g* mp2
 -------------

 ------------------------------------------------------
 Input file generated by CHIRIPA (05-May-2021 14:55:23)
 ------------------------------------------------------
 Symbolic Z-matrix:
 Charge =  0 Multiplicity = 1

                         Standard orientation:
 ---------------------------------------------------------------------
 Center     Atomic      Atomic             Coordinates (Angstroms)
 Number     Number       Type             X           Y           Z
 ---------------------------------------------------------------------
      1          6           0        2.163186    2.409802    0.973152
      2          6           0        1.832971    1.178813    1.549471
      3          6           0        2.279539   -0.015848    0.976837
      4          6           0        3.057976    0.057735   -0.177248
      5          6           0        3.403731    1.268675   -0.775050
      6          6           0        2.946132    2.450733   -0.185227
      7          1           0        1.811996    3.332948    1.424664
      8          1           0        1.225076    1.143992    2.449080
      9          1           0        2.038681   -0.982538    1.402179
     10          1           0        4.011301    1.271417   -1.671860
     11          1           0        3.204131    3.405300   -0.634986
     12          7           0        3.536577   -1.200327   -0.792569
     13          8           0        4.221037   -1.108510   -1.809289
     14          8           0        3.218181   -2.254393   -0.246485
     15          6           0       -4.572271   -0.327809    0.012346
     16          6           0       -5.055091    0.724860   -0.986033
     17          6           0       -6.575786    0.735593   -1.144668
     18          1           0       -4.915223   -1.318883   -0.314912
     19          1           0       -5.042299   -0.140771    0.987787
     20          1           0       -4.583221    0.536719   -1.958945
     21          1           0       -4.710786    1.713521   -0.656462
     22          1           0       -7.061607    0.945854   -0.186352
     23          1           0       -6.933317   -0.237635   -1.496236
     24          1           0       -6.899151    1.495482   -1.862904
     25          6           0       -3.054216   -0.350794    0.181793
     26          6           0       -2.571396   -1.403462    1.180172
     27          6           0       -1.050701   -1.414195    1.338807
     28          1           0       -2.584187   -0.537831   -0.793648
     29          1           0       -2.711264    0.640281    0.509052
     30          1           0       -2.915701   -2.392124    0.850601
     31          1           0       -3.043266   -1.215322    2.153084
     32          1           0       -0.693170   -0.440967    1.690375
     33          1           0       -0.564880   -1.624457    0.380491
     34          1           0       -0.727336   -2.174086    2.057042
 ---------------------------------------------------------------------

 SCF Done:  E(RHF) =  -669.534848402     A.U. after   15 cycles
 E2 =    -0.2092200256D+01 EUMP2 =    -0.67162704865799D+03

 The electronic state is 1-A.
 Alpha  occ. eigenvalues --  -20.60734 -20.60729 -15.85786 -11.31122 -11.27716
 Alpha  occ. eigenvalues --  -11.27670 -11.27465 -11.26719 -11.26697 -11.21901
 Alpha  occ. eigenvalues --  -11.21804 -11.21655 -11.21577 -11.21474 -11.21239
 Alpha  occ. eigenvalues --   -1.59809  -1.39363  -1.19312  -1.08714  -1.08680
 Alpha  occ. eigenvalues --   -1.04721  -1.03794  -0.96269  -0.95544  -0.87298
 Alpha  occ. eigenvalues --   -0.86112  -0.82386  -0.79881  -0.78491  -0.77414
 Alpha  occ. eigenvalues --   -0.72004  -0.71133  -0.70421  -0.65320  -0.64966
 Alpha  occ. eigenvalues --   -0.64725  -0.62088  -0.61182  -0.59624  -0.57865
 Alpha  occ. eigenvalues --   -0.55558  -0.55227  -0.53211  -0.52998  -0.52756
 Alpha  occ. eigenvalues --   -0.52530  -0.50193  -0.48763  -0.48758  -0.48174
 Alpha  occ. eigenvalues --   -0.46888  -0.46035  -0.45947  -0.44771  -0.44051
 Alpha  occ. eigenvalues --   -0.37303  -0.36252
 Alpha virt. eigenvalues --    0.05094   0.11256   0.16485   0.20931   0.22673
 Alpha virt. eigenvalues --    0.24061   0.25981   0.26422   0.27246   0.27937
 Alpha virt. eigenvalues --    0.29033   0.29363   0.31378   0.31602   0.32117

 Mulliken charges:
               1
     1  C   -0.171377
     2  C   -0.220157
     3  C   -0.166315
     4  C    0.156178
     5  C   -0.170871
     6  C   -0.218916
     7  H    0.225215
     8  H    0.223046
     9  H    0.279943
    10  H    0.275341
    11  H    0.223114
    12  N    0.488158
    13  O   -0.460715
    14  O   -0.460653
    15  C   -0.298595
    16  C   -0.299653
    17  C   -0.475825
    18  H    0.151446
    19  H    0.148880
    20  H    0.153160
    21  H    0.150264
    22  H    0.154879
    23  H    0.156274
    24  H    0.160508
    25  C   -0.298046
    26  C   -0.300623
    27  C   -0.482159
    28  H    0.152424
    29  H    0.146222
    30  H    0.155873
    31  H    0.150608
    32  H    0.147245
    33  H    0.164132
    34  H    0.160997
 Sum of Mulliken charges =  -0.00000

 Dipole moment (field-independent basis, Debye):
    X=             -1.7478    Y=              4.3682    Z=              2.1096  Tot=              5.1562
 Quadrupole moment (field-independent basis, Debye-Ang):
   XX=           -105.7975   YY=            -92.7815   ZZ=            -92.9667
   XY=             15.1767   XZ=              4.9233   YZ=             -2.2316

 Normal termination of Gaussian 16 at Thu May  6 06:19:46 2021.
