 Gaussian 16, Revision A.03,
 Gaussian 16:  EM64L-G16RevA.03 25-Dec-2016

 -------------
 #p 6-31g* mp2
 -------------

 ------------------------------------------------------
 Input file generated by CHIRIPA (05-May-2021 14:55:20)
 ------------------------------------------------------
 Symbolic Z-matrix:
 Charge =  0 Multiplicity = 1

                         Standard orientation:
 ---------------------------------------------------------------------
 Center     Atomic      Atomic             Coordinates (Angstroms)
 Number     Number       Type             X           Y           Z
 ---------------------------------------------------------------------
      1          6           0       -2.283733   -1.571740   -1.859373
      2          6           0       -1.712270   -2.178030   -0.735823
      3          6           0       -1.468065   -1.436584    0.423992
      4          6           0       -1.809241   -0.084960    0.425498
      5          6           0       -2.379860    0.547722   -0.677859
      6          6           0       -2.615119   -0.213194   -1.826862
      7          1           0       -2.469962   -2.155275   -2.756145
      8          1           0       -1.453893   -3.232916   -0.758215
      9          1           0       -1.026768   -1.880700    1.307980
     10          1           0       -2.626696    1.601165   -0.625438
     11          1           0       -3.059040    0.260306   -2.697940
     12          7           0       -1.555447    0.710281    1.647619
     13          8           0       -1.865080    1.899476    1.623535
     14          8           0       -1.051696    0.129338    2.606461
     15          6           0        2.540717    1.018874   -0.341328
     16          6           0        1.409822    1.860297   -0.933835
     17          6           0        1.767696    3.343261   -1.036482
     18          1           0        2.794078    1.406210    0.655027
     19          1           0        3.440298    1.137890   -0.960994
     20          1           0        0.512244    1.738643   -0.314019
     21          1           0        1.158994    1.470795   -1.928817
     22          1           0        2.648150    3.484005   -1.671772
     23          1           0        1.997727    3.753375   -0.047799
     24          1           0        0.945202    3.926179   -1.462592
     25          6           0        2.198019   -0.465848   -0.232311
     26          6           0        3.328916   -1.307271    0.360196
     27          6           0        2.971040   -2.790235    0.462843
     28          1           0        1.298439   -0.584863    0.387355
     29          1           0        1.944658   -0.853183   -1.228667
     30          1           0        3.579744   -0.917768    1.355178
     31          1           0        4.226493   -1.185617   -0.259620
     32          1           0        2.741009   -3.200349   -0.525840
     33          1           0        2.090587   -2.930978    1.098132
     34          1           0        3.793535   -3.373153    0.888952
 ---------------------------------------------------------------------

 SCF Done:  E(RHF) =  -669.534876392     A.U. after   15 cycles
 E2 =    -0.2095531186D+01 EUMP2 =    -0.67163040757774D+03

 The electronic state is 1-A.
 Alpha  occ. eigenvalues --  -20.60952 -20.60947 -15.85953 -11.31202 -11.27798
 Alpha  occ. eigenvalues --  -11.27794 -11.27537 -11.26794 -11.26783 -11.21526
 Alpha  occ. eigenvalues --  -11.21350 -11.21238 -11.21214 -11.21114 -11.20757
 Alpha  occ. eigenvalues --   -1.60003  -1.39561  -1.19410  -1.08826  -1.08263
 Alpha  occ. eigenvalues --   -1.04801  -1.03396  -0.95854  -0.95670  -0.86879
 Alpha  occ. eigenvalues --   -0.86206  -0.82504  -0.79475  -0.78121  -0.77550
 Alpha  occ. eigenvalues --   -0.72187  -0.71340  -0.70530  -0.65065  -0.64914
 Alpha  occ. eigenvalues --   -0.64766  -0.62159  -0.60783  -0.59233  -0.57478
 Alpha  occ. eigenvalues --   -0.55314  -0.55149  -0.53219  -0.52891  -0.52522
 Alpha  occ. eigenvalues --   -0.52294  -0.49807  -0.48957  -0.48940  -0.47829
 Alpha  occ. eigenvalues --   -0.46546  -0.45580  -0.45536  -0.44896  -0.43634
 Alpha  occ. eigenvalues --   -0.37314  -0.36326
 Alpha virt. eigenvalues --    0.04942   0.11125   0.16432   0.20833   0.23009
 Alpha virt. eigenvalues --    0.24049   0.25943   0.27168   0.27504   0.27836
 Alpha virt. eigenvalues --    0.28985   0.30633   0.31136   0.31769   0.32163

 Mulliken charges:
               1
     1  C   -0.170856
     2  C   -0.216865
     3  C   -0.172555
     4  C    0.158789
     5  C   -0.170166
     6  C   -0.217975
     7  H    0.225774
     8  H    0.224195
     9  H    0.275433
    10  H    0.275428
    11  H    0.223563
    12  N    0.490611
    13  O   -0.458783
    14  O   -0.459866
    15  C   -0.299229
    16  C   -0.302227
    17  C   -0.474334
    18  H    0.155555
    19  H    0.147502
    20  H    0.154032
    21  H    0.146786
    22  H    0.152452
    23  H    0.160879
    24  H    0.158063
    25  C   -0.301655
    26  C   -0.299243
    27  C   -0.475050
    28  H    0.152952
    29  H    0.145286
    30  H    0.156930
    31  H    0.151213
    32  H    0.150980
    33  H    0.150581
    34  H    0.161799
 Sum of Mulliken charges =  -0.00000

 Dipole moment (field-independent basis, Debye):
    X=             -0.9603    Y=             -2.7514    Z=             -4.2208  Tot=              5.1291
 Quadrupole moment (field-independent basis, Debye-Ang):
   XX=            -91.3140   YY=            -92.4772   ZZ=            -97.1492
   XY=              3.4225   XZ=              8.4936   YZ=             -2.3933

 Normal termination of Gaussian 16 at Thu May  6 01:21:56 2021.
