 Gaussian 16, Revision A.03,
 Gaussian 16:  EM64L-G16RevA.03 25-Dec-2016

 -------------
 #p 6-31g* mp2
 -------------

 ------------------------------------------------------
 Input file generated by CHIRIPA (05-May-2021 14:53:12)
 ------------------------------------------------------
 Symbolic Z-matrix:
 Charge =  0 Multiplicity = 1

                         Standard orientation:
 ---------------------------------------------------------------------
 Center     Atomic      Atomic             Coordinates (Angstroms)
 Number     Number       Type             X           Y           Z
 ---------------------------------------------------------------------
      1          6           0       -2.470280    1.343002    0.273647
      2          6           0       -2.217170    2.481356   -0.715328
      3          6           0       -1.774649    3.773721   -0.028479
      4          1           0       -3.236226    1.656858    0.995981
      5          1           0       -1.553802    1.157388    0.850718
      6          1           0       -3.133438    2.663840   -1.291321
      7          1           0       -1.451875    2.164683   -1.435507
      8          1           0       -0.847644    3.614329    0.531752
      9          1           0       -2.538761    4.116322    0.676757
     10          1           0       -1.599241    4.574199   -0.753963
     11          6           0       -2.913350    0.044367   -0.397891
     12          6           0       -3.166460   -1.093986    0.591084
     13          6           0       -3.608981   -2.386351   -0.095765
     14          1           0       -3.829828    0.229981   -0.974962
     15          1           0       -2.147404   -0.269488   -1.120225
     16          1           0       -3.931754   -0.777313    1.311263
     17          1           0       -2.250192   -1.276470    1.167077
     18          1           0       -2.844869   -2.728952   -0.801001
     19          1           0       -4.535985   -2.226959   -0.655995
     20          1           0       -3.784389   -3.186829    0.629719
     21          6           0        3.628804    1.464497    0.158024
     22          6           0        3.507027    0.741877   -1.033408
     23          6           0        2.664578   -0.371504   -1.105582
     24          6           0        1.955469   -0.735916    0.037948
     25          6           0        2.055512   -0.036305    1.239541
     26          6           0        2.903936    1.073788    1.288703
     27          1           0        4.285560    2.328121    0.205153
     28          1           0        4.068758    1.043007   -1.913081
     29          1           0        2.551518   -0.948890   -2.015120
     30          1           0        1.482789   -0.360715    2.099868
     31          1           0        2.996542    1.633102    2.215330
     32          7           0        1.060443   -1.912863   -0.026279
     33          8           0        0.446493   -2.213455    0.995164
     34          8           0        0.989822   -2.512476   -1.096845
 ---------------------------------------------------------------------

 SCF Done:  E(RHF) =  -669.536587911     A.U. after   15 cycles
 E2 =    -0.2092339293D+01 EUMP2 =    -0.67162892720452D+03

 The electronic state is 1-A.
 Alpha  occ. eigenvalues --  -20.61046 -20.61041 -15.86065 -11.31367 -11.27924
 Alpha  occ. eigenvalues --  -11.27913 -11.27644 -11.26920 -11.26910 -11.21394
 Alpha  occ. eigenvalues --  -11.21046 -11.20991 -11.20663 -11.20423 -11.19823
 Alpha  occ. eigenvalues --   -1.60098  -1.39655  -1.19526  -1.08933  -1.07852
 Alpha  occ. eigenvalues --   -1.04917  -1.02868  -0.95779  -0.95354  -0.86378
 Alpha  occ. eigenvalues --   -0.86316  -0.82613  -0.79008  -0.77692  -0.77562
 Alpha  occ. eigenvalues --   -0.72285  -0.71418  -0.70629  -0.65182  -0.64915
 Alpha  occ. eigenvalues --   -0.64479  -0.62263  -0.60244  -0.58799  -0.56935
 Alpha  occ. eigenvalues --   -0.55417  -0.54646  -0.53244  -0.53005  -0.52054
 Alpha  occ. eigenvalues --   -0.51776  -0.49311  -0.49049  -0.49040  -0.47305
 Alpha  occ. eigenvalues --   -0.46081  -0.45407  -0.45124  -0.44588  -0.43148
 Alpha  occ. eigenvalues --   -0.37496  -0.36513
 Alpha virt. eigenvalues --    0.04812   0.11095   0.16283   0.21205   0.23152
 Alpha virt. eigenvalues --    0.24982   0.26626   0.27306   0.27855   0.28477
 Alpha virt. eigenvalues --    0.28647   0.30898   0.31990   0.32093   0.32658

 Mulliken charges:
               1
     1  C   -0.297420
     2  C   -0.298504
     3  C   -0.474820
     4  H    0.148575
     5  H    0.144945
     6  H    0.152328
     7  H    0.150331
     8  H    0.151144
     9  H    0.155227
    10  H    0.158167
    11  C   -0.298967
    12  C   -0.307106
    13  C   -0.475294
    14  H    0.146955
    15  H    0.150103
    16  H    0.144520
    17  H    0.170652
    18  H    0.166139
    19  H    0.147256
    20  H    0.159804
    21  C   -0.170333
    22  C   -0.218341
    23  C   -0.170938
    24  C    0.158301
    25  C   -0.171346
    26  C   -0.218723
    27  H    0.226500
    28  H    0.224220
    29  H    0.276012
    30  H    0.276102
    31  H    0.224419
    32  N    0.488539
    33  O   -0.459373
    34  O   -0.459074
 Sum of Mulliken charges =  -0.00000

 Dipole moment (field-independent basis, Debye):
    X=              3.3739    Y=              3.9720    Z=              0.2279  Tot=              5.2165
 Quadrupole moment (field-independent basis, Debye-Ang):
   XX=            -82.4526   YY=           -102.5117   ZZ=            -90.3019
   XY=              5.3927   XZ=             -1.0530   YZ=              0.4442

 Normal termination of Gaussian 16 at Thu May  6 08:49:38 2021.
