 Gaussian 16, Revision A.03,
 Gaussian 16:  EM64L-G16RevA.03 25-Dec-2016

 -------------
 #p 6-31g* mp2
 -------------

 ------------------------------------------------------
 Input file generated by CHIRIPA (05-May-2021 14:51:11)
 ------------------------------------------------------
 Symbolic Z-matrix:
 Charge =  0 Multiplicity = 1

                         Standard orientation:
 ---------------------------------------------------------------------
 Center     Atomic      Atomic             Coordinates (Angstroms)
 Number     Number       Type             X           Y           Z
 ---------------------------------------------------------------------
      1          6           0       -3.404229    1.131019    0.336301
      2          6           0       -2.822705    2.278943   -0.489584
      3          6           0       -3.040831    3.645159    0.161315
      4          1           0       -4.479589    1.301376    0.483015
      5          1           0       -2.947262    1.139293    1.335554
      6          1           0       -3.279619    2.267662   -1.487440
      7          1           0       -1.748642    2.105736   -0.634511
      8          1           0       -2.569930    3.680904    1.149028
      9          1           0       -4.109606    3.843750    0.291252
     10          1           0       -2.617326    4.451321   -0.445814
     11          6           0       -3.194094   -0.241176   -0.301391
     12          6           0       -3.775618   -1.389100    0.524493
     13          6           0       -3.557492   -2.755315   -0.126406
     14          1           0       -3.651061   -0.249449   -1.300645
     15          1           0       -2.118734   -0.411532   -0.448105
     16          1           0       -4.849681   -1.215892    0.669420
     17          1           0       -3.318704   -1.377818    1.522350
     18          1           0       -2.488717   -2.953906   -0.256342
     19          1           0       -4.028393   -2.791060   -1.114118
     20          1           0       -3.980997   -3.561477    0.480723
     21          6           0        3.656714    0.199134   -0.219397
     22          6           0        5.053681    0.333069    0.387669
     23          6           0        5.756276    1.626665   -0.025567
     24          1           0        3.734024    0.242407   -1.314430
     25          1           0        3.047883    1.061622    0.085292
     26          1           0        5.659271   -0.530116    0.083056
     27          1           0        4.973056    0.289280    1.481378
     28          1           0        5.175916    2.498810    0.292469
     29          1           0        5.866029    1.674757   -1.113796
     30          1           0        6.753276    1.701892    0.419620
     31          6           0        2.941609   -1.088977    0.184487
     32          6           0        1.544642   -1.222913   -0.422578
     33          6           0        0.842047   -2.516509   -0.009342
     34          1           0        3.550441   -1.951466   -0.120202
     35          1           0        2.864299   -1.132251    1.279520
     36          1           0        1.625267   -1.179124   -1.516287
     37          1           0        0.939054   -0.359728   -0.117967
     38          1           0        0.732294   -2.564601    1.078887
     39          1           0        1.422407   -3.388653   -0.327379
     40          1           0       -0.154953   -2.591736   -0.454529
 ---------------------------------------------------------------------

 SCF Done:  E(RHF) =  -470.733281920     A.U. after   11 cycles
 E2 =    -0.1583002937D+01 EUMP2 =    -0.47231628485648D+03

 The electronic state is 1-A.
 Alpha  occ. eigenvalues --  -11.21680 -11.21632 -11.21603 -11.21581 -11.21454
 Alpha  occ. eigenvalues --  -11.21397 -11.21392 -11.21337 -11.21139 -11.21094
 Alpha  occ. eigenvalues --  -11.21076 -11.21030  -1.08482  -1.08420  -1.03589
 Alpha  occ. eigenvalues --   -1.03514  -0.96039  -0.95963  -0.87064  -0.86973
 Alpha  occ. eigenvalues --   -0.79658  -0.79569  -0.78296  -0.78231  -0.65141
 Alpha  occ. eigenvalues --   -0.65032  -0.61009  -0.60925  -0.59462  -0.59277
 Alpha  occ. eigenvalues --   -0.57676  -0.57548  -0.55314  -0.55273  -0.52790
 Alpha  occ. eigenvalues --   -0.52660  -0.52475  -0.52334  -0.49976  -0.49899
 Alpha  occ. eigenvalues --   -0.48017  -0.47839  -0.46682  -0.46602  -0.45864
 Alpha  occ. eigenvalues --   -0.45798  -0.45746  -0.45634  -0.43809  -0.43768
 Alpha virt. eigenvalues --    0.20274   0.23133   0.23417   0.24683   0.25877
 Alpha virt. eigenvalues --    0.26617   0.26974   0.27176   0.28094   0.29078
 Alpha virt. eigenvalues --    0.30088   0.31413   0.31722   0.31802   0.32203

 Mulliken charges:
               1
     1  C   -0.298077
     2  C   -0.299900
     3  C   -0.475689
     4  H    0.149759
     5  H    0.149234
     6  H    0.152082
     7  H    0.151920
     8  H    0.154966
     9  H    0.155255
    10  H    0.160300
    11  C   -0.302641
    12  C   -0.298874
    13  C   -0.482441
    14  H    0.149455
    15  H    0.153610
    16  H    0.151878
    17  H    0.151902
    18  H    0.161287
    19  H    0.154920
    20  H    0.160480
    21  C   -0.298283
    22  C   -0.299682
    23  C   -0.475742
    24  H    0.149856
    25  H    0.149418
    26  H    0.152038
    27  H    0.151972
    28  H    0.155232
    29  H    0.155266
    30  H    0.160368
    31  C   -0.298677
    32  C   -0.300431
    33  C   -0.483963
    34  H    0.149919
    35  H    0.149716
    36  H    0.152583
    37  H    0.152117
    38  H    0.155346
    39  H    0.156048
    40  H    0.167473
 Sum of Mulliken charges =  -0.00000

 Dipole moment (field-independent basis, Debye):
    X=              0.0282    Y=             -0.0106    Z=             -0.0076  Tot=              0.0311
 Quadrupole moment (field-independent basis, Debye-Ang):
   XX=            -84.2321   YY=            -86.4454   ZZ=            -84.0251
   XY=             -0.7980   XZ=              0.2679   YZ=              0.1741

 Normal termination of Gaussian 16 at Thu May  6 02:17:10 2021.
