 Gaussian 16, Revision A.03,
 Gaussian 16:  EM64L-G16RevA.03 25-Dec-2016

 -------------
 #p 6-31g* mp2
 -------------

 ------------------------------------------------------
 Input file generated by CHIRIPA (05-May-2021 14:57:25)
 ------------------------------------------------------
 Symbolic Z-matrix:
 Charge =  0 Multiplicity = 1

                         Standard orientation:
 ---------------------------------------------------------------------
 Center     Atomic      Atomic             Coordinates (Angstroms)
 Number     Number       Type             X           Y           Z
 ---------------------------------------------------------------------
      1          6           0       -1.972670    1.604326    0.272247
      2          6           0       -1.998453    0.312217    0.807327
      3          6           0       -3.155208   -0.468362    0.722694
      4          6           0       -4.273093    0.077125    0.093355
      5          6           0       -4.278594    1.361100   -0.449480
      6          6           0       -3.110816    2.123728   -0.353346
      7          1           0       -1.069793    2.203726    0.342459
      8          1           0       -1.116041   -0.093747    1.293729
      9          1           0       -3.202689   -1.471657    1.128356
     10          1           0       -5.173895    1.738502   -0.928458
     11          1           0       -3.093677    3.126883   -0.769795
     12          7           0       -5.503532   -0.739737   -0.002330
     13          8           0       -6.475161   -0.236128   -0.561753
     14          8           0       -5.473023   -1.868134    0.483906
     15          6           0        1.711303   -1.010725   -0.512475
     16          6           0        2.767052   -1.928039   -0.491278
     17          6           0        4.078114   -1.496627   -0.268687
     18          6           0        4.298361   -0.134512   -0.070130
     19          6           0        3.267619    0.803905   -0.085472
     20          6           0        1.964509    0.349919   -0.309861
     21          1           0        0.695926   -1.354624   -0.686087
     22          1           0        2.573371   -2.985333   -0.648324
     23          1           0        4.914083   -2.185185   -0.247180
     24          1           0        3.491904    1.851561    0.074307
     25          1           0        1.146553    1.064581   -0.325788
     26          7           0        5.682114    0.334153    0.166468
     27          8           0        5.849798    1.539501    0.338672
     28          8           0        6.572816   -0.512731    0.175232
 ---------------------------------------------------------------------

 SCF Done:  E(RHF) =  -868.336912731     A.U. after   16 cycles
 E2 =    -0.2600601502D+01 EUMP2 =    -0.87093751423320D+03

 The electronic state is 1-A.
 Alpha  occ. eigenvalues --  -20.61481 -20.61472 -20.61325 -20.61315 -15.86538
 Alpha  occ. eigenvalues --  -15.86383 -11.32082 -11.31878 -11.28692 -11.28629
 Alpha  occ. eigenvalues --  -11.28527 -11.28519 -11.28432 -11.28246 -11.27782
 Alpha  occ. eigenvalues --  -11.27693 -11.27619 -11.27450  -1.60551  -1.60396
 Alpha  occ. eigenvalues --   -1.40099  -1.39946  -1.20280  -1.20075  -1.09666
 Alpha  occ. eigenvalues --   -1.09445  -1.05701  -1.05505  -0.96464  -0.96253
 Alpha  occ. eigenvalues --   -0.87121  -0.86880  -0.83292  -0.83080  -0.78287
 Alpha  occ. eigenvalues --   -0.78112  -0.72753  -0.72598  -0.71876  -0.71721
 Alpha  occ. eigenvalues --   -0.71452  -0.71173  -0.65971  -0.65833  -0.65706
 Alpha  occ. eigenvalues --   -0.65395  -0.63043  -0.62828  -0.56328  -0.55943
 Alpha  occ. eigenvalues --   -0.54037  -0.53880  -0.53716  -0.53577  -0.49526
 Alpha  occ. eigenvalues --   -0.49497  -0.49368  -0.49344  -0.45464  -0.45323
 Alpha  occ. eigenvalues --   -0.38302  -0.38066  -0.37298  -0.37107
 Alpha virt. eigenvalues --    0.04213   0.04426   0.10186   0.10492   0.15545
 Alpha virt. eigenvalues --    0.15870   0.18486   0.22009   0.24621   0.25905
 Alpha virt. eigenvalues --    0.27885   0.28743   0.29539   0.31376   0.31865

 Mulliken charges:
               1
     1  C   -0.175872
     2  C   -0.226000
     3  C   -0.171532
     4  C    0.159826
     5  C   -0.169580
     6  C   -0.217367
     7  H    0.222647
     8  H    0.225045
     9  H    0.277220
    10  H    0.278898
    11  H    0.227034
    12  N    0.487918
    13  O   -0.457509
    14  O   -0.458976
    15  C   -0.176178
    16  C   -0.218146
    17  C   -0.169588
    18  C    0.159257
    19  C   -0.170795
    20  C   -0.223565
    21  H    0.228300
    22  H    0.226848
    23  H    0.278286
    24  H    0.275900
    25  H    0.217671
    26  N    0.488057
    27  O   -0.459740
    28  O   -0.458057
 Sum of Mulliken charges =  -0.00000

 Dipole moment (field-independent basis, Debye):
    X=             -0.6329    Y=              1.1497    Z=             -0.5421  Tot=              1.4199
 Quadrupole moment (field-independent basis, Debye-Ang):
   XX=           -181.1787   YY=            -96.6949   ZZ=           -104.9697
   XY=            -22.7271   XZ=             -3.1450   YZ=             -1.1563

 Normal termination of Gaussian 16 at Wed May  5 19:30:43 2021.
