 Gaussian 16, Revision A.03,
 Gaussian 16:  EM64L-G16RevA.03 25-Dec-2016

 -------------
 #p 6-31g* mp2
 -------------

 ------------------------------------------------------
 Input file generated by CHIRIPA (05-May-2021 14:51:11)
 ------------------------------------------------------
 Symbolic Z-matrix:
 Charge =  0 Multiplicity = 1

                         Standard orientation:
 ---------------------------------------------------------------------
 Center     Atomic      Atomic             Coordinates (Angstroms)
 Number     Number       Type             X           Y           Z
 ---------------------------------------------------------------------
      1          6           0       -2.594728    0.832078    0.024291
      2          6           0       -2.500638    2.352859   -0.103593
      3          6           0       -1.060566    2.863160   -0.043748
      4          1           0       -2.132986    0.520860    0.971330
      5          1           0       -2.006105    0.366491   -0.778297
      6          1           0       -3.090392    2.815438    0.698172
      7          1           0       -2.962829    2.660511   -1.050348
      8          1           0       -0.464047    2.428893   -0.852561
      9          1           0       -0.592335    2.584700    0.905895
     10          1           0       -1.016541    3.952752   -0.137079
     11          6           0       -4.028052    0.306772   -0.033732
     12          6           0       -4.122142   -1.214009    0.094152
     13          6           0       -5.562214   -1.724310    0.034306
     14          1           0       -4.616675    0.772359    0.768855
     15          1           0       -4.489794    0.617990   -0.980771
     16          1           0       -3.659951   -1.521661    1.040907
     17          1           0       -3.532388   -1.676588   -0.707614
     18          1           0       -6.030445   -1.445850   -0.915336
     19          1           0       -6.158733   -1.290043    0.843119
     20          1           0       -5.606239   -2.813902    0.127637
     21          6           0        2.769244   -1.071945   -0.187589
     22          6           0        1.369012   -0.655931    0.264371
     23          6           0        0.295244   -1.671372   -0.127671
     24          1           0        2.770729   -1.206818   -1.277889
     25          1           0        3.012107   -2.050722    0.248770
     26          1           0        1.129413    0.322406   -0.171594
     27          1           0        1.370908   -0.521848    1.353698
     28          1           0        0.507075   -2.648033    0.319386
     29          1           0        0.264206   -1.798984   -1.214572
     30          1           0       -0.697950   -1.354133    0.205171
     31          6           0        3.853536   -0.066905    0.197030
     32          6           0        5.253768   -0.482919   -0.254930
     33          6           0        6.327536    0.532522    0.137113
     34          1           0        3.610673    0.911872   -0.239328
     35          1           0        3.852051    0.067968    1.287329
     36          1           0        5.251872   -0.617002   -1.344257
     37          1           0        5.493367   -1.461256    0.181035
     38          1           0        6.358573    0.660134    1.224013
     39          1           0        6.115705    1.509183   -0.309945
     40          1           0        7.320730    0.215283   -0.195730
 ---------------------------------------------------------------------

 SCF Done:  E(RHF) =  -470.732082317     A.U. after   11 cycles
 E2 =    -0.1584393084D+01 EUMP2 =    -0.47231647540075D+03

 The electronic state is 1-A.
 Alpha  occ. eigenvalues --  -11.21626 -11.21621 -11.21556 -11.21472 -11.21419
 Alpha  occ. eigenvalues --  -11.21356 -11.21335 -11.21273 -11.21097 -11.21084
 Alpha  occ. eigenvalues --  -11.21035 -11.20836  -1.08479  -1.08342  -1.03563
 Alpha  occ. eigenvalues --   -1.03434  -0.96028  -0.95876  -0.87051  -0.86888
 Alpha  occ. eigenvalues --   -0.79644  -0.79497  -0.78320  -0.78156  -0.65118
 Alpha  occ. eigenvalues --   -0.64965  -0.60976  -0.60825  -0.59410  -0.59262
 Alpha  occ. eigenvalues --   -0.57740  -0.57410  -0.55306  -0.55174  -0.52835
 Alpha  occ. eigenvalues --   -0.52608  -0.52467  -0.52168  -0.49975  -0.49807
 Alpha  occ. eigenvalues --   -0.47983  -0.47787  -0.46674  -0.46511  -0.45796
 Alpha  occ. eigenvalues --   -0.45747  -0.45695  -0.45552  -0.43828  -0.43596
 Alpha virt. eigenvalues --    0.21482   0.23109   0.23595   0.24340   0.25599
 Alpha virt. eigenvalues --    0.26327   0.26632   0.27177   0.28606   0.29541
 Alpha virt. eigenvalues --    0.30749   0.31204   0.31570   0.31692   0.32443

 Mulliken charges:
               1
     1  C   -0.304162
     2  C   -0.299021
     3  C   -0.477690
     4  H    0.150573
     5  H    0.155369
     6  H    0.151880
     7  H    0.151805
     8  H    0.155921
     9  H    0.156990
    10  H    0.160274
    11  C   -0.297527
    12  C   -0.301886
    13  C   -0.475643
    14  H    0.149382
    15  H    0.149588
    16  H    0.152026
    17  H    0.153802
    18  H    0.155250
    19  H    0.155176
    20  H    0.160573
    21  C   -0.297883
    22  C   -0.303829
    23  C   -0.484089
    24  H    0.149052
    25  H    0.149276
    26  H    0.156920
    27  H    0.150462
    28  H    0.153602
    29  H    0.152211
    30  H    0.172152
    31  C   -0.298153
    32  C   -0.299553
    33  C   -0.475653
    34  H    0.149547
    35  H    0.149388
    36  H    0.151749
    37  H    0.151808
    38  H    0.155084
    39  H    0.155170
    40  H    0.160060
 Sum of Mulliken charges =  -0.00000

 Dipole moment (field-independent basis, Debye):
    X=             -0.0753    Y=              0.0378    Z=              0.0005  Tot=              0.0842
 Quadrupole moment (field-independent basis, Debye-Ang):
   XX=            -86.5886   YY=            -85.3124   ZZ=            -82.9813
   XY=             -1.0651   XZ=             -0.1354   YZ=             -0.5086

 Normal termination of Gaussian 16 at Wed May  5 16:43:50 2021.
