 Gaussian 16, Revision A.03,
 Gaussian 16:  EM64L-G16RevA.03 25-Dec-2016

 -------------
 #p 6-31g* mp2
 -------------

 ------------------------------------------------------
 Input file generated by CHIRIPA (05-May-2021 14:53:14)
 ------------------------------------------------------
 Symbolic Z-matrix:
 Charge =  0 Multiplicity = 1

                         Standard orientation:
 ---------------------------------------------------------------------
 Center     Atomic      Atomic             Coordinates (Angstroms)
 Number     Number       Type             X           Y           Z
 ---------------------------------------------------------------------
      1          6           0       -4.129356    0.629272    0.299798
      2          6           0       -3.646534    2.026369   -0.091337
      3          6           0       -4.558045    3.135593    0.434558
      4          1           0       -5.148580    0.480204   -0.082180
      5          1           0       -4.193318    0.564246    1.394821
      6          1           0       -3.582178    2.088297   -1.185248
      7          1           0       -2.628270    2.172057    0.291452
      8          1           0       -4.614087    3.102419    1.527425
      9          1           0       -5.573416    3.018183    0.042335
     10          1           0       -4.194293    4.125935    0.143410
     11          6           0       -3.228460   -0.490245   -0.218656
     12          6           0       -3.711282   -1.887343    0.172479
     13          6           0       -2.799772   -2.996566   -0.353416
     14          1           0       -3.164499   -0.425219   -1.313679
     15          1           0       -2.209237   -0.341178    0.163322
     16          1           0       -4.729547   -2.033030   -0.210310
     17          1           0       -3.775638   -1.949270    1.266390
     18          1           0       -1.784401   -2.879156    0.038807
     19          1           0       -2.743730   -2.963393   -1.446283
     20          1           0       -3.163523   -3.986908   -0.062268
     21          6           0        4.798598    1.576598    0.018872
     22          6           0        3.582101    1.947185   -0.563642
     23          6           0        2.509027    1.051680   -0.597293
     24          6           0        2.688098   -0.211977   -0.036584
     25          6           0        3.887715   -0.610757    0.550940
     26          6           0        4.947261    0.301059    0.573326
     27          1           0        5.626933    2.278584    0.040637
     28          1           0        3.463785    2.937120   -0.995004
     29          1           0        1.556305    1.312496   -1.041944
     30          1           0        3.975490   -1.604586    0.972863
     31          1           0        5.890860    0.010523    1.026374
     32          7           0        1.559244   -1.168642   -0.066247
     33          8           0        1.742475   -2.276006    0.434560
     34          8           0        0.512592   -0.792998   -0.589742
 ---------------------------------------------------------------------

 SCF Done:  E(RHF) =  -669.536491869     A.U. after   15 cycles
 E2 =    -0.2091660091D+01 EUMP2 =    -0.67162815195915D+03

 The electronic state is 1-A.
 Alpha  occ. eigenvalues --  -20.61070 -20.61064 -15.86071 -11.31358 -11.27914
 Alpha  occ. eigenvalues --  -11.27909 -11.27645 -11.26911 -11.26901 -11.20933
 Alpha  occ. eigenvalues --  -11.20584 -11.20420 -11.20220 -11.19887 -11.19303
 Alpha  occ. eigenvalues --   -1.60114  -1.39671  -1.19521  -1.08934  -1.07318
 Alpha  occ. eigenvalues --   -1.04910  -1.02427  -0.95780  -0.94853  -0.86312
 Alpha  occ. eigenvalues --   -0.85865  -0.82617  -0.78562  -0.77681  -0.77017
 Alpha  occ. eigenvalues --   -0.72283  -0.71420  -0.70628  -0.65177  -0.64912
 Alpha  occ. eigenvalues --   -0.63962  -0.62256  -0.59834  -0.58307  -0.56446
 Alpha  occ. eigenvalues --   -0.55416  -0.54131  -0.53245  -0.53000  -0.51609
 Alpha  occ. eigenvalues --   -0.51245  -0.49116  -0.49052  -0.48758  -0.46827
 Alpha  occ. eigenvalues --   -0.45610  -0.45188  -0.44577  -0.44279  -0.42663
 Alpha  occ. eigenvalues --   -0.37498  -0.36509
 Alpha virt. eigenvalues --    0.04826   0.11147   0.16313   0.21262   0.23852
 Alpha virt. eigenvalues --    0.25490   0.27152   0.27628   0.28025   0.28871
 Alpha virt. eigenvalues --    0.29131   0.30938   0.32396   0.32506   0.32630

 Mulliken charges:
               1
     1  C   -0.297599
     2  C   -0.297715
     3  C   -0.474751
     4  H    0.145923
     5  H    0.146429
     6  H    0.150150
     7  H    0.149333
     8  H    0.154025
     9  H    0.154528
    10  H    0.155885
    11  C   -0.303035
    12  C   -0.299001
    13  C   -0.479133
    14  H    0.146696
    15  H    0.169742
    16  H    0.144553
    17  H    0.147033
    18  H    0.178134
    19  H    0.151434
    20  H    0.151082
    21  C   -0.170439
    22  C   -0.218580
    23  C   -0.170920
    24  C    0.157700
    25  C   -0.170552
    26  C   -0.218615
    27  H    0.226258
    28  H    0.224192
    29  H    0.276352
    30  H    0.275983
    31  H    0.224038
    32  N    0.490404
    33  O   -0.458946
    34  O   -0.460590
 Sum of Mulliken charges =  -0.00000

 Dipole moment (field-independent basis, Debye):
    X=              4.4335    Y=              3.3116    Z=              0.0927  Tot=              5.5345
 Quadrupole moment (field-independent basis, Debye-Ang):
   XX=            -73.7133   YY=            -95.6810   ZZ=            -93.8361
   XY=              6.7161   XZ=              2.4289   YZ=             -2.3623

 Normal termination of Gaussian 16 at Thu May  6 15:25:42 2021.
