 Gaussian 16, Revision A.03,
 Gaussian 16:  EM64L-G16RevA.03 25-Dec-2016

 -------------
 #p 6-31g* mp2
 -------------

 ------------------------------------------------------
 Input file generated by CHIRIPA (05-May-2021 14:51:10)
 ------------------------------------------------------
 Symbolic Z-matrix:
 Charge =  0 Multiplicity = 1

                         Standard orientation:
 ---------------------------------------------------------------------
 Center     Atomic      Atomic             Coordinates (Angstroms)
 Number     Number       Type             X           Y           Z
 ---------------------------------------------------------------------
      1          6           0        2.725916   -0.784182   -0.291746
      2          6           0        1.921304   -1.774990    0.550207
      3          6           0        0.519207   -2.022351   -0.007226
      4          1           0        2.179403    0.167134   -0.348897
      5          1           0        2.800906   -1.163848   -1.320154
      6          1           0        1.849033   -1.394239    1.577057
      7          1           0        2.469887   -2.723997    0.605520
      8          1           0        0.574314   -2.425333   -1.023676
      9          1           0       -0.050068   -1.088020   -0.046618
     10          1           0       -0.038474   -2.733647    0.609953
     11          6           0        4.129781   -0.526581    0.252802
     12          6           0        4.934393    0.464227   -0.589150
     13          6           0        6.336489    0.711588   -0.031717
     14          1           0        4.054791   -0.146915    1.281211
     15          1           0        4.676294   -1.477897    0.309954
     16          1           0        4.385810    1.413234   -0.644463
     17          1           0        5.006664    0.083476   -1.616000
     18          1           0        6.905765   -0.222743    0.007675
     19          1           0        6.281383    1.114570    0.984733
     20          1           0        6.894171    1.422884   -0.648896
     21          6           0       -3.010132    1.230585   -0.259967
     22          6           0       -1.860882    1.647375    0.658452
     23          6           0       -1.034386    2.799185    0.085712
     24          1           0       -2.602653    0.940443   -1.238090
     25          1           0       -3.661388    2.097637   -0.437399
     26          1           0       -1.212754    0.779447    0.835214
     27          1           0       -2.271127    1.936376    1.634564
     28          1           0       -1.662346    3.681603   -0.074307
     29          1           0       -0.597958    2.518101   -0.878198
     30          1           0       -0.218305    3.081001    0.758358
     31          6           0       -3.845565    0.080178    0.298910
     32          6           0       -4.994815   -0.336612   -0.619509
     33          6           0       -5.821311   -1.488423   -0.046769
     34          1           0       -3.194309   -0.786873    0.476342
     35          1           0       -4.253044    0.370319    1.277033
     36          1           0       -4.584569   -0.625613   -1.595620
     37          1           0       -5.642943    0.531315   -0.796271
     38          1           0       -6.257738   -1.207338    0.917141
     39          1           0       -5.193352   -2.370840    0.113250
     40          1           0       -6.637393   -1.770237   -0.719414
 ---------------------------------------------------------------------

 SCF Done:  E(RHF) =  -470.733381825     A.U. after   11 cycles
 E2 =    -0.1582873912D+01 EUMP2 =    -0.47231625573758D+03

 The electronic state is 1-A.
 Alpha  occ. eigenvalues --  -11.21644 -11.21618 -11.21608 -11.21576 -11.21426
 Alpha  occ. eigenvalues --  -11.21395 -11.21365 -11.21329 -11.21129 -11.21117
 Alpha  occ. eigenvalues --  -11.21075 -11.21046  -1.08458  -1.08422  -1.03570
 Alpha  occ. eigenvalues --   -1.03523  -0.96011  -0.95980  -0.87039  -0.86988
 Alpha  occ. eigenvalues --   -0.79648  -0.79573  -0.78277  -0.78223  -0.65184
 Alpha  occ. eigenvalues --   -0.64980  -0.61112  -0.60794  -0.59380  -0.59344
 Alpha  occ. eigenvalues --   -0.57622  -0.57586  -0.55309  -0.55265  -0.52708
 Alpha  occ. eigenvalues --   -0.52677  -0.52450  -0.52395  -0.50070  -0.49833
 Alpha  occ. eigenvalues --   -0.48013  -0.47853  -0.46789  -0.46508  -0.45876
 Alpha  occ. eigenvalues --   -0.45760  -0.45743  -0.45536  -0.43811  -0.43783
 Alpha virt. eigenvalues --    0.20169   0.23044   0.23858   0.24757   0.26018
 Alpha virt. eigenvalues --    0.26663   0.27069   0.27510   0.28463   0.29200
 Alpha virt. eigenvalues --    0.30518   0.31473   0.31682   0.31793   0.32110

 Mulliken charges:
               1
     1  C   -0.299097
     2  C   -0.299427
     3  C   -0.483329
     4  H    0.150341
     5  H    0.149482
     6  H    0.152175
     7  H    0.152291
     8  H    0.155453
     9  H    0.161635
    10  H    0.160356
    11  C   -0.298305
    12  C   -0.299775
    13  C   -0.475724
    14  H    0.149632
    15  H    0.149677
    16  H    0.152282
    17  H    0.151882
    18  H    0.155149
    19  H    0.155217
    20  H    0.160330
    21  C   -0.298154
    22  C   -0.306459
    23  C   -0.476131
    24  H    0.149984
    25  H    0.149618
    26  H    0.157292
    27  H    0.152426
    28  H    0.155753
    29  H    0.155367
    30  H    0.159758
    31  C   -0.299686
    32  C   -0.299617
    33  C   -0.475749
    34  H    0.151388
    35  H    0.149421
    36  H    0.152202
    37  H    0.151724
    38  H    0.155023
    39  H    0.155436
    40  H    0.160156
 Sum of Mulliken charges =  -0.00000

 Dipole moment (field-independent basis, Debye):
    X=              0.0065    Y=             -0.0035    Z=             -0.0015  Tot=              0.0075
 Quadrupole moment (field-independent basis, Debye-Ang):
   XX=            -85.8257   YY=            -84.5000   ZZ=            -84.4083
   XY=             -1.5681   XZ=             -0.5882   YZ=              0.9133

 Normal termination of Gaussian 16 at Wed May  5 21:23:37 2021.
