 Gaussian 16, Revision A.03,
 Gaussian 16:  EM64L-G16RevA.03 25-Dec-2016

 -------------
 #p 6-31g* mp2
 -------------

 ------------------------------------------------------
 Input file generated by CHIRIPA (05-May-2021 14:53:14)
 ------------------------------------------------------
 Symbolic Z-matrix:
 Charge =  0 Multiplicity = 1

                         Standard orientation:
 ---------------------------------------------------------------------
 Center     Atomic      Atomic             Coordinates (Angstroms)
 Number     Number       Type             X           Y           Z
 ---------------------------------------------------------------------
      1          6           0        3.156615   -0.332549   -0.140045
      2          6           0        4.425106   -1.078690   -0.555000
      3          6           0        4.164079   -2.547461   -0.890217
      4          1           0        2.711157   -0.835010    0.729464
      5          1           0        2.418577   -0.398870   -0.951400
      6          1           0        5.161040   -1.009804    0.256340
      7          1           0        4.867701   -0.574281   -1.423503
      8          1           0        3.449039   -2.633216   -1.714818
      9          1           0        3.744045   -3.071213   -0.025430
     10          1           0        5.084314   -3.061816   -1.184266
     11          6           0        3.401384    1.136943    0.198199
     12          6           0        2.132893    1.883084    0.613154
     13          6           0        2.393921    3.351855    0.948372
     14          1           0        4.139422    1.203265    1.009554
     15          1           0        3.846843    1.639405   -0.671309
     16          1           0        1.690298    1.378676    1.481658
     17          1           0        1.396959    1.814198   -0.198185
     18          1           0        2.813954    3.875607    0.083585
     19          1           0        3.108960    3.437610    1.772972
     20          1           0        1.473685    3.866211    1.242420
     21          6           0       -1.613295   -2.479028    0.860463
     22          6           0       -2.998464   -2.292483    0.805444
     23          6           0       -3.535090   -1.097096    0.317969
     24          6           0       -2.653408   -0.104931   -0.108099
     25          6           0       -1.268773   -0.260774   -0.065814
     26          6           0       -0.754384   -1.464368    0.425425
     27          1           0       -1.205067   -3.410821    1.240607
     28          1           0       -3.667903   -3.078747    1.142617
     29          1           0       -4.603422   -0.926195    0.264317
     30          1           0       -0.626712    0.541301   -0.409108
     31          1           0        0.321778   -1.606464    0.466995
     32          7           0       -3.209740    1.164915   -0.626159
     33          8           0       -2.411644    2.023575   -0.995463
     34          8           0       -4.433354    1.277517   -0.653101
 ---------------------------------------------------------------------

 SCF Done:  E(RHF) =  -669.535444859     A.U. after   15 cycles
 E2 =    -0.2092715198D+01 EUMP2 =    -0.67162816005729D+03

 The electronic state is 1-A.
 Alpha  occ. eigenvalues --  -20.60690 -20.60684 -15.85739 -11.31055 -11.27638
 Alpha  occ. eigenvalues --  -11.27570 -11.27361 -11.26651 -11.26552 -11.22369
 Alpha  occ. eigenvalues --  -11.22307 -11.22162 -11.21992 -11.21819 -11.21275
 Alpha  occ. eigenvalues --   -1.59765  -1.39320  -1.19226  -1.09153  -1.08633
 Alpha  occ. eigenvalues --   -1.04618  -1.04126  -0.96572  -0.95476  -0.87585
 Alpha  occ. eigenvalues --   -0.86023  -0.82313  -0.80230  -0.79053  -0.77325
 Alpha  occ. eigenvalues --   -0.71960  -0.71086  -0.70348  -0.65786  -0.64875
 Alpha  occ. eigenvalues --   -0.64619  -0.62009  -0.61483  -0.59944  -0.58191
 Alpha  occ. eigenvalues --   -0.55862  -0.55139  -0.53211  -0.53099  -0.52956
 Alpha  occ. eigenvalues --   -0.52622  -0.50507  -0.48722  -0.48718  -0.48493
 Alpha  occ. eigenvalues --   -0.47259  -0.46483  -0.46427  -0.44735  -0.44409
 Alpha  occ. eigenvalues --   -0.37217  -0.36215
 Alpha virt. eigenvalues --    0.05152   0.11417   0.16616   0.19912   0.22790
 Alpha virt. eigenvalues --    0.23162   0.24795   0.25185   0.27384   0.28436
 Alpha virt. eigenvalues --    0.29370   0.30571   0.30995   0.31536   0.32011

 Mulliken charges:
               1
     1  C   -0.306146
     2  C   -0.298940
     3  C   -0.477446
     4  H    0.144675
     5  H    0.148175
     6  H    0.154720
     7  H    0.156371
     8  H    0.156033
     9  H    0.150958
    10  H    0.164444
    11  C   -0.297093
    12  C   -0.308983
    13  C   -0.475464
    14  H    0.152230
    15  H    0.154200
    16  H    0.150728
    17  H    0.154868
    18  H    0.158051
    19  H    0.155012
    20  H    0.167797
    21  C   -0.171962
    22  C   -0.218891
    23  C   -0.170600
    24  C    0.158131
    25  C   -0.179879
    26  C   -0.228691
    27  H    0.225317
    28  H    0.222761
    29  H    0.275047
    30  H    0.285858
    31  H    0.233606
    32  N    0.487241
    33  O   -0.461354
    34  O   -0.460774
 Sum of Mulliken charges =  -0.00000

 Dipole moment (field-independent basis, Debye):
    X=              2.2145    Y=             -4.3140    Z=              1.8035  Tot=              5.1737
 Quadrupole moment (field-independent basis, Debye-Ang):
   XX=           -100.1768   YY=            -94.4251   ZZ=            -94.9585
   XY=             13.7392   XZ=             -5.9602   YZ=             -0.4667

 Normal termination of Gaussian 16 at Thu May  6 20:21:55 2021.
