 Gaussian 16, Revision A.03,
 Gaussian 16:  EM64L-G16RevA.03 25-Dec-2016

 -------------
 #p 6-31g* mp2
 -------------

 ------------------------------------------------------
 Input file generated by CHIRIPA (05-May-2021 14:57:26)
 ------------------------------------------------------
 Symbolic Z-matrix:
 Charge =  0 Multiplicity = 1

                         Standard orientation:
 ---------------------------------------------------------------------
 Center     Atomic      Atomic             Coordinates (Angstroms)
 Number     Number       Type             X           Y           Z
 ---------------------------------------------------------------------
      1          6           0        5.545048   -1.577320    0.680874
      2          6           0        5.375474   -1.245691   -0.667379
      3          6           0        4.361250   -0.367372   -1.060384
      4          6           0        3.530970    0.163229   -0.074286
      5          6           0        3.674610   -0.147823    1.276974
      6          6           0        4.695572   -1.028296    1.647044
      7          1           0        6.335538   -2.260456    0.977262
      8          1           0        6.033701   -1.670553   -1.419891
      9          1           0        4.207639   -0.093554   -2.097132
     10          1           0        3.002792    0.291689    2.004234
     11          1           0        4.824924   -1.284053    2.694852
     12          7           0        2.453690    1.094206   -0.478203
     13          8           0        1.735438    1.548169    0.409867
     14          8           0        2.347967    1.352316   -1.675216
     15          6           0       -1.984510    1.826735    0.152232
     16          6           0       -1.932120    0.898078   -0.892457
     17          6           0       -2.882109   -0.123668   -0.982485
     18          6           0       -3.875190   -0.187342   -0.006255
     19          6           0       -3.954021    0.722904    1.046612
     20          6           0       -2.993516    1.736343    1.116731
     21          1           0       -1.242452    2.617225    0.214434
     22          1           0       -1.149644    0.965837   -1.642913
     23          1           0       -2.865050   -0.855837   -1.780642
     24          1           0       -4.745937    0.629644    1.779817
     25          1           0       -3.036666    2.456163    1.929162
     26          7           0       -4.886468   -1.264622   -0.091026
     27          8           0       -5.751322   -1.299009    0.781602
     28          8           0       -4.795103   -2.054208   -1.028492
 ---------------------------------------------------------------------

 SCF Done:  E(RHF) =  -868.341147421     A.U. after   16 cycles
 E2 =    -0.2598487338D+01 EUMP2 =    -0.87093963475860D+03

 The electronic state is 1-A.
 Alpha  occ. eigenvalues --  -20.61903 -20.61890 -20.60003 -20.59997 -15.86899
 Alpha  occ. eigenvalues --  -15.85048 -11.31900 -11.30141 -11.28425 -11.28421
 Alpha  occ. eigenvalues --  -11.28097 -11.27355 -11.27345 -11.26735 -11.26664
 Alpha  occ. eigenvalues --  -11.26152 -11.25618 -11.25438  -1.60955  -1.59086
 Alpha  occ. eigenvalues --   -1.40514  -1.38648  -1.20038  -1.18270  -1.09503
 Alpha  occ. eigenvalues --   -1.07660  -1.05385  -1.03641  -0.96399  -0.94550
 Alpha  occ. eigenvalues --   -0.86800  -0.85014  -0.83245  -0.81411  -0.78329
 Alpha  occ. eigenvalues --   -0.76537  -0.73146  -0.72242  -0.71270  -0.71140
 Alpha  occ. eigenvalues --   -0.70410  -0.69246  -0.65694  -0.65384  -0.63892
 Alpha  occ. eigenvalues --   -0.63594  -0.62736  -0.61000  -0.55899  -0.53970
 Alpha  occ. eigenvalues --   -0.53732  -0.53470  -0.51985  -0.51698  -0.49905
 Alpha  occ. eigenvalues --   -0.49870  -0.48043  -0.47998  -0.45991  -0.44116
 Alpha  occ. eigenvalues --   -0.37994  -0.36969  -0.36142  -0.35275
 Alpha virt. eigenvalues --    0.04161   0.06002   0.10692   0.12403   0.15739
 Alpha virt. eigenvalues --    0.17598   0.20866   0.22770   0.26803   0.27722
 Alpha virt. eigenvalues --    0.28502   0.29701   0.30504   0.31870   0.32451

 Mulliken charges:
               1
     1  C   -0.169319
     2  C   -0.218477
     3  C   -0.170326
     4  C    0.157736
     5  C   -0.169828
     6  C   -0.218418
     7  H    0.228437
     8  H    0.225849
     9  H    0.275920
    10  H    0.275655
    11  H    0.225904
    12  N    0.489763
    13  O   -0.466339
    14  O   -0.463279
    15  C   -0.166299
    16  C   -0.223999
    17  C   -0.174056
    18  C    0.156601
    19  C   -0.172871
    20  C   -0.221686
    21  H    0.241402
    22  H    0.234692
    23  H    0.271544
    24  H    0.271139
    25  H    0.219687
    26  N    0.488302
    27  O   -0.464033
    28  O   -0.463699
 Sum of Mulliken charges =  -0.00000

 Dipole moment (field-independent basis, Debye):
    X=              8.0029    Y=              0.6006    Z=              1.7109  Tot=              8.2057
 Quadrupole moment (field-independent basis, Debye-Ang):
   XX=           -106.1025   YY=           -107.8826   ZZ=            -97.3155
   XY=            -28.4701   XZ=              0.2892   YZ=              2.3850

 Normal termination of Gaussian 16 at Fri May  7 03:31:52 2021.
