 Gaussian 16, Revision A.03,
 Gaussian 16:  EM64L-G16RevA.03 25-Dec-2016

 -------------
 #p 6-31g* mp2
 -------------

 ------------------------------------------------------
 Input file generated by CHIRIPA (05-May-2021 14:53:13)
 ------------------------------------------------------
 Symbolic Z-matrix:
 Charge =  0 Multiplicity = 1

                         Standard orientation:
 ---------------------------------------------------------------------
 Center     Atomic      Atomic             Coordinates (Angstroms)
 Number     Number       Type             X           Y           Z
 ---------------------------------------------------------------------
      1          6           0        3.518601   -0.586469   -0.104616
      2          6           0        3.208387   -1.443198   -1.332528
      3          6           0        3.564682   -2.916347   -1.130833
      4          1           0        4.586344   -0.677107    0.137570
      5          1           0        2.967386   -0.983030    0.759268
      6          1           0        3.758944   -1.044305   -2.194147
      7          1           0        2.141297   -1.350359   -1.571934
      8          1           0        3.005176   -3.336199   -0.288646
      9          1           0        4.632014   -3.028406   -0.914394
     10          1           0        3.334779   -3.510479   -2.020783
     11          6           0        3.167876    0.888671   -0.290851
     12          6           0        3.478090    1.745400    0.937061
     13          6           0        3.121795    3.218549    0.735366
     14          1           0        3.719091    1.285232   -1.154735
     15          1           0        2.100133    0.979309   -0.533037
     16          1           0        4.545180    1.652561    1.176467
     17          1           0        2.927533    1.346507    1.798680
     18          1           0        2.054463    3.330609    0.518928
     19          1           0        3.681301    3.638401   -0.106820
     20          1           0        3.351698    3.812682    1.625316
     21          6           0       -1.067512   -1.357751    1.717781
     22          6           0       -2.436743   -1.643609    1.714003
     23          6           0       -3.301790   -0.962949    0.852062
     24          6           0       -2.761211    0.001802    0.003345
     25          6           0       -1.401634    0.309134   -0.016345
     26          6           0       -0.555232   -0.384007    0.854117
     27          1           0       -0.402764   -1.891351    2.390667
     28          1           0       -2.837378   -2.399330    2.383647
     29          1           0       -4.365879   -1.164378    0.828441
     30          1           0       -1.031673    1.067748   -0.695353
     31          1           0        0.507703   -0.159923    0.854882
     32          7           0       -3.667129    0.728993   -0.913664
     33          8           0       -3.166047    1.574488   -1.651697
     34          8           0       -4.861115    0.439701   -0.877020
 ---------------------------------------------------------------------

 SCF Done:  E(RHF) =  -669.535203578     A.U. after   15 cycles
 E2 =    -0.2092514883D+01 EUMP2 =    -0.67162771846105D+03

 The electronic state is 1-A.
 Alpha  occ. eigenvalues --  -20.60762 -20.60757 -15.85816 -11.31189 -11.27760
 Alpha  occ. eigenvalues --  -11.27757 -11.27498 -11.26774 -11.26727 -11.22484
 Alpha  occ. eigenvalues --  -11.22417 -11.22370 -11.22325 -11.21729 -11.21718
 Alpha  occ. eigenvalues --   -1.59838  -1.39391  -1.19361  -1.09364  -1.08751
 Alpha  occ. eigenvalues --   -1.04766  -1.04313  -0.96770  -0.95589  -0.87772
 Alpha  occ. eigenvalues --   -0.86165  -0.82426  -0.80375  -0.79172  -0.77475
 Alpha  occ. eigenvalues --   -0.72034  -0.71161  -0.70474  -0.66252  -0.65012
 Alpha  occ. eigenvalues --   -0.64617  -0.62085  -0.61707  -0.60122  -0.58368
 Alpha  occ. eigenvalues --   -0.56091  -0.55248  -0.53402  -0.53181  -0.53090
 Alpha  occ. eigenvalues --   -0.52813  -0.50719  -0.48793  -0.48789  -0.48679
 Alpha  occ. eigenvalues --   -0.47427  -0.46680  -0.46664  -0.44795  -0.44612
 Alpha  occ. eigenvalues --   -0.37340  -0.36364
 Alpha virt. eigenvalues --    0.05059   0.11244   0.16496   0.18292   0.23174
 Alpha virt. eigenvalues --    0.23316   0.24728   0.25361   0.27012   0.28720
 Alpha virt. eigenvalues --    0.29626   0.30654   0.31206   0.31367   0.31679

 Mulliken charges:
               1
     1  C   -0.300393
     2  C   -0.301126
     3  C   -0.475443
     4  H    0.155430
     5  H    0.139694
     6  H    0.156242
     7  H    0.152675
     8  H    0.152310
     9  H    0.156791
    10  H    0.164172
    11  C   -0.303915
    12  C   -0.301010
    13  C   -0.475717
    14  H    0.158084
    15  H    0.141634
    16  H    0.156209
    17  H    0.146886
    18  H    0.155024
    19  H    0.158722
    20  H    0.163460
    21  C   -0.172847
    22  C   -0.218374
    23  C   -0.171055
    24  C    0.159150
    25  C   -0.174871
    26  C   -0.227578
    27  H    0.225575
    28  H    0.223453
    29  H    0.275665
    30  H    0.275681
    31  H    0.238181
    32  N    0.488128
    33  O   -0.460344
    34  O   -0.460495
 Sum of Mulliken charges =  -0.00000

 Dipole moment (field-independent basis, Debye):
    X=              3.4002    Y=             -2.5226    Z=              3.1489  Tot=              5.2764
 Quadrupole moment (field-independent basis, Debye-Ang):
   XX=           -107.7851   YY=            -94.7216   ZZ=            -94.5419
   XY=             10.0933   XZ=            -11.2197   YZ=             -1.0831

 Normal termination of Gaussian 16 at Thu May  6 13:45:35 2021.
