 Gaussian 16, Revision A.03,
 Gaussian 16:  EM64L-G16RevA.03 25-Dec-2016

 -------------
 #p 6-31g* mp2
 -------------

 ------------------------------------------------------
 Input file generated by CHIRIPA (05-May-2021 14:55:20)
 ------------------------------------------------------
 Symbolic Z-matrix:
 Charge =  0 Multiplicity = 1

                         Standard orientation:
 ---------------------------------------------------------------------
 Center     Atomic      Atomic             Coordinates (Angstroms)
 Number     Number       Type             X           Y           Z
 ---------------------------------------------------------------------
      1          6           0       -2.159472    1.985106    0.275749
      2          6           0       -1.757299    0.761808    0.821934
      3          6           0       -2.572572   -0.368328    0.709372
      4          6           0       -3.789080   -0.238764    0.041082
      5          6           0       -4.217581    0.966166   -0.513733
      6          6           0       -3.386167    2.083208   -0.389170
      7          1           0       -1.519879    2.857937    0.367851
      8          1           0       -0.805156    0.682677    1.338856
      9          1           0       -2.285758   -1.327605    1.122825
     10          1           0       -5.172258    1.014034   -1.023359
     11          1           0       -3.701072    3.031954   -0.814328
     12          7           0       -4.660718   -1.428257   -0.084435
     13          8           0       -5.727791   -1.287928   -0.677983
     14          8           0       -4.260329   -2.478388    0.413110
     15          6           0        5.130564   -0.512559   -0.293496
     16          6           0        6.571099   -0.330881    0.185917
     17          6           0        7.488092   -1.473719   -0.250934
     18          1           0        4.740356   -1.464971    0.090686
     19          1           0        5.123396   -0.591166   -1.389473
     20          1           0        6.575405   -0.251253    1.280566
     21          1           0        6.957859    0.621299   -0.199292
     22          1           0        7.513531   -1.551385   -1.342685
     23          1           0        7.128904   -2.428895    0.145581
     24          1           0        8.512990   -1.323563    0.102475
     25          6           0        4.201721    0.621926    0.135367
     26          6           0        2.761187    0.440247   -0.344047
     27          6           0        1.844193    1.583085    0.092804
     28          1           0        4.208890    0.700532    1.231344
     29          1           0        4.591930    1.574337   -0.248815
     30          1           0        2.374426   -0.511933    0.041164
     31          1           0        2.756882    0.360620   -1.438695
     32          1           0        2.203382    2.538261   -0.303711
     33          1           0        1.818754    1.660751    1.184557
     34          1           0        0.819296    1.432930   -0.260604
 ---------------------------------------------------------------------

 SCF Done:  E(RHF) =  -669.534855923     A.U. after   15 cycles
 E2 =    -0.2091923437D+01 EUMP2 =    -0.67162677936009D+03

 The electronic state is 1-A.
 Alpha  occ. eigenvalues --  -20.60752 -20.60747 -15.85804 -11.31173 -11.27737
 Alpha  occ. eigenvalues --  -11.27720 -11.27454 -11.26751 -11.26680 -11.22381
 Alpha  occ. eigenvalues --  -11.22100 -11.21993 -11.21977 -11.21825 -11.21366
 Alpha  occ. eigenvalues --   -1.59827  -1.39380  -1.19342  -1.09004  -1.08735
 Alpha  occ. eigenvalues --   -1.04746  -1.04141  -0.96623  -0.95567  -0.87663
 Alpha  occ. eigenvalues --   -0.86129  -0.82397  -0.80220  -0.78774  -0.77449
 Alpha  occ. eigenvalues --   -0.72023  -0.71150  -0.70442  -0.65643  -0.64995
 Alpha  occ. eigenvalues --   -0.64784  -0.62157  -0.61515  -0.59965  -0.58195
 Alpha  occ. eigenvalues --   -0.55916  -0.55219  -0.53519  -0.53114  -0.52922
 Alpha  occ. eigenvalues --   -0.52674  -0.50545  -0.48780  -0.48778  -0.48518
 Alpha  occ. eigenvalues --   -0.47232  -0.46327  -0.46227  -0.44786  -0.44386
 Alpha  occ. eigenvalues --   -0.37293  -0.36328
 Alpha virt. eigenvalues --    0.05068   0.11169   0.16553   0.20615   0.22508
 Alpha virt. eigenvalues --    0.23856   0.25939   0.26533   0.27040   0.27654
 Alpha virt. eigenvalues --    0.28934   0.30008   0.30954   0.31489   0.32416

 Mulliken charges:
               1
     1  C   -0.173072
     2  C   -0.221121
     3  C   -0.173006
     4  C    0.158573
     5  C   -0.171148
     6  C   -0.218716
     7  H    0.227913
     8  H    0.230968
     9  H    0.275538
    10  H    0.275535
    11  H    0.223445
    12  N    0.488090
    13  O   -0.460474
    14  O   -0.460438
    15  C   -0.298884
    16  C   -0.300040
    17  C   -0.476056
    18  H    0.150697
    19  H    0.150918
    20  H    0.152103
    21  H    0.152243
    22  H    0.155929
    23  H    0.156015
    24  H    0.161287
    25  C   -0.298855
    26  C   -0.298656
    27  C   -0.488902
    28  H    0.149342
    29  H    0.150629
    30  H    0.151904
    31  H    0.156125
    32  H    0.158152
    33  H    0.150401
    34  H    0.163560
 Sum of Mulliken charges =  -0.00000

 Dipole moment (field-independent basis, Debye):
    X=              3.2119    Y=              4.1709    Z=              0.3954  Tot=              5.2791
 Quadrupole moment (field-independent basis, Debye-Ang):
   XX=           -116.1240   YY=            -96.0578   ZZ=            -93.4529
   XY=            -18.3066   XZ=              0.2403   YZ=             -2.2065

 Normal termination of Gaussian 16 at Wed May  5 18:56:44 2021.
