 Gaussian 16, Revision A.03,
 Gaussian 16:  EM64L-G16RevA.03 25-Dec-2016

 -------------
 #p 6-31g* mp2
 -------------

 ------------------------------------------------------
 Input file generated by CHIRIPA (05-May-2021 14:51:10)
 ------------------------------------------------------
 Symbolic Z-matrix:
 Charge =  0 Multiplicity = 1

                         Standard orientation:
 ---------------------------------------------------------------------
 Center     Atomic      Atomic             Coordinates (Angstroms)
 Number     Number       Type             X           Y           Z
 ---------------------------------------------------------------------
      1          6           0        2.542749   -0.028520   -0.413517
      2          6           0        3.918518    0.614350   -0.592293
      3          6           0        3.984131    1.542591   -1.805494
      4          1           0        2.287202   -0.591256   -1.321795
      5          1           0        1.786535    0.762275   -0.312634
      6          1           0        4.672094   -0.177428   -0.691424
      7          1           0        4.170902    1.175462    0.316591
      8          1           0        3.253842    2.352706   -1.710666
      9          1           0        3.757881    0.992129   -2.724408
     10          1           0        4.976402    1.991357   -1.914434
     11          6           0        2.461403   -0.959221    0.795163
     12          6           0        1.085634   -1.602092    0.973939
     13          6           0        1.020021   -2.530333    2.187140
     14          1           0        3.217618   -1.750017    0.694280
     15          1           0        2.716950   -0.396486    1.703441
     16          1           0        0.833250   -2.163204    0.065055
     17          1           0        0.332058   -0.810313    1.073070
     18          1           0        1.246271   -1.979870    3.106054
     19          1           0        1.750310   -3.340448    2.092312
     20          1           0        0.027750   -2.979098    2.296080
     21          6           0       -2.683961   -0.247897   -0.202242
     22          6           0       -2.799300   -0.822272   -1.614607
     23          6           0       -3.163707   -2.307182   -1.620960
     24          1           0       -1.927075   -0.815049    0.356693
     25          1           0       -3.636897   -0.394795    0.324760
     26          1           0       -1.846878   -0.673094   -2.139254
     27          1           0       -3.555863   -0.253564   -2.170305
     28          1           0       -4.124234   -2.470269   -1.121569
     29          1           0       -2.405539   -2.892183   -1.090342
     30          1           0       -3.240936   -2.697248   -2.640639
     31          6           0       -2.320191    1.235639   -0.179404
     32          6           0       -2.204853    1.810013    1.232961
     33          6           0       -1.840445    3.294924    1.239314
     34          1           0       -1.367255    1.382537   -0.706406
     35          1           0       -3.077077    1.802791   -0.738339
     36          1           0       -1.448289    1.241306    1.788659
     37          1           0       -3.157274    1.660835    1.757608
     38          1           0       -2.598613    3.879925    0.708696
     39          1           0       -0.879918    3.458011    0.739923
     40          1           0       -1.763216    3.684990    2.258993
 ---------------------------------------------------------------------

 SCF Done:  E(RHF) =  -470.733185016     A.U. after   11 cycles
 E2 =    -0.1583963849D+01 EUMP2 =    -0.47231714886505D+03

 The electronic state is 1-A.
 Alpha  occ. eigenvalues --  -11.21692 -11.21662 -11.21636 -11.21555 -11.21490
 Alpha  occ. eigenvalues --  -11.21430 -11.21377 -11.21278 -11.21149 -11.21118
 Alpha  occ. eigenvalues --  -11.21109 -11.21045  -1.08525  -1.08402  -1.03609
 Alpha  occ. eigenvalues --   -1.03522  -0.96052  -0.95969  -0.87067  -0.86986
 Alpha  occ. eigenvalues --   -0.79695  -0.79581  -0.78380  -0.78173  -0.65281
 Alpha  occ. eigenvalues --   -0.64931  -0.61020  -0.60909  -0.59423  -0.59336
 Alpha  occ. eigenvalues --   -0.57688  -0.57561  -0.55351  -0.55248  -0.52743
 Alpha  occ. eigenvalues --   -0.52671  -0.52475  -0.52397  -0.50007  -0.49907
 Alpha  occ. eigenvalues --   -0.48051  -0.47894  -0.46797  -0.46626  -0.46111
 Alpha  occ. eigenvalues --   -0.45818  -0.45686  -0.45290  -0.43856  -0.43767
 Alpha virt. eigenvalues --    0.19567   0.22623   0.23593   0.24198   0.25699
 Alpha virt. eigenvalues --    0.26440   0.26810   0.27617   0.28507   0.30091
 Alpha virt. eigenvalues --    0.30206   0.31457   0.31565   0.31895   0.32165

 Mulliken charges:
               1
     1  C   -0.299568
     2  C   -0.299726
     3  C   -0.475763
     4  H    0.149728
     5  H    0.149627
     6  H    0.152274
     7  H    0.152211
     8  H    0.155120
     9  H    0.155295
    10  H    0.160581
    11  C   -0.297534
    12  C   -0.308249
    13  C   -0.476297
    14  H    0.150003
    15  H    0.149909
    16  H    0.152059
    17  H    0.158994
    18  H    0.155512
    19  H    0.155812
    20  H    0.160809
    21  C   -0.304961
    22  C   -0.299216
    23  C   -0.476199
    24  H    0.157785
    25  H    0.148910
    26  H    0.152264
    27  H    0.151599
    28  H    0.155059
    29  H    0.155332
    30  H    0.160008
    31  C   -0.299601
    32  C   -0.302379
    33  C   -0.475490
    34  H    0.150591
    35  H    0.149878
    36  H    0.152812
    37  H    0.152437
    38  H    0.155615
    39  H    0.154485
    40  H    0.160276
 Sum of Mulliken charges =  -0.00000

 Dipole moment (field-independent basis, Debye):
    X=              0.0320    Y=             -0.0126    Z=              0.0121  Tot=              0.0364
 Quadrupole moment (field-independent basis, Debye-Ang):
   XX=            -83.7913   YY=            -85.7419   ZZ=            -85.1681
   XY=             -0.9332   XZ=             -0.0503   YZ=              0.8387

 Normal termination of Gaussian 16 at Thu May  6 00:38:07 2021.
