 Gaussian 16, Revision A.03,
 Gaussian 16:  EM64L-G16RevA.03 25-Dec-2016

 -------------
 #p 6-31g* mp2
 -------------

 ------------------------------------------------------
 Input file generated by CHIRIPA (05-May-2021 14:57:26)
 ------------------------------------------------------
 Symbolic Z-matrix:
 Charge =  0 Multiplicity = 1

                         Standard orientation:
 ---------------------------------------------------------------------
 Center     Atomic      Atomic             Coordinates (Angstroms)
 Number     Number       Type             X           Y           Z
 ---------------------------------------------------------------------
      1          6           0       -5.250059    0.857486    0.970480
      2          6           0       -5.417839   -0.403463    0.388776
      3          6           0       -4.343150   -1.048258   -0.230763
      4          6           0       -3.109061   -0.400239   -0.250397
      5          6           0       -2.910265    0.855961    0.320332
      6          6           0       -3.999013    1.482073    0.934464
      7          1           0       -6.090364    1.351122    1.449653
      8          1           0       -6.388274   -0.890904    0.415244
      9          1           0       -4.445127   -2.024544   -0.688896
     10          1           0       -1.930842    1.316793    0.278112
     11          1           0       -3.865788    2.461331    1.385405
     12          7           0       -1.963893   -1.072966   -0.903414
     13          8           0       -0.886828   -0.480891   -0.907342
     14          8           0       -2.165060   -2.179585   -1.398956
     15          6           0        1.918863    2.238545   -0.672801
     16          6           0        3.082640    1.870018   -1.355687
     17          6           0        3.854427    0.791714   -0.912799
     18          6           0        3.431108    0.100927    0.221619
     19          6           0        2.276533    0.443798    0.923534
     20          6           0        1.520227    1.525516    0.462628
     21          1           0        1.325332    3.077524   -1.023845
     22          1           0        3.394644    2.421951   -2.237768
     23          1           0        4.759729    0.484969   -1.422461
     24          1           0        1.990995   -0.125519    1.799756
     25          1           0        0.616878    1.809471    0.994958
     26          7           0        4.239971   -1.042433    0.700022
     27          8           0        3.845511   -1.634874    1.702046
     28          8           0        5.253102   -1.324509    0.063911
 ---------------------------------------------------------------------

 SCF Done:  E(RHF) =  -868.336552885     A.U. after   16 cycles
 E2 =    -0.2600876086D+01 EUMP2 =    -0.87093742897118D+03

 The electronic state is 1-A.
 Alpha  occ. eigenvalues --  -20.61235 -20.61208 -20.60034 -20.60029 -15.86269
 Alpha  occ. eigenvalues --  -15.85087 -11.31744 -11.30366 -11.28410 -11.28253
 Alpha  occ. eigenvalues --  -11.28022 -11.27376 -11.27282 -11.26957 -11.26949
 Alpha  occ. eigenvalues --  -11.26759 -11.26075 -11.25986  -1.60297  -1.59106
 Alpha  occ. eigenvalues --   -1.39852  -1.38665  -1.19910  -1.18543  -1.09275
 Alpha  occ. eigenvalues --   -1.07980  -1.05335  -1.03965  -0.96102  -0.94826
 Alpha  occ. eigenvalues --   -0.86724  -0.85401  -0.82936  -0.81680  -0.77991
 Alpha  occ. eigenvalues --   -0.76719  -0.72490  -0.71624  -0.71321  -0.71017
 Alpha  occ. eigenvalues --   -0.70415  -0.69729  -0.65560  -0.65347  -0.64242
 Alpha  occ. eigenvalues --   -0.64066  -0.62694  -0.61350  -0.55802  -0.54547
 Alpha  occ. eigenvalues --   -0.53642  -0.53437  -0.52223  -0.52121  -0.49257
 Alpha  occ. eigenvalues --   -0.49237  -0.48071  -0.48068  -0.45238  -0.44090
 Alpha  occ. eigenvalues --   -0.37869  -0.36939  -0.36504  -0.35471
 Alpha virt. eigenvalues --    0.04538   0.05875   0.10704   0.12055   0.16037
 Alpha virt. eigenvalues --    0.17355   0.19623   0.22060   0.25411   0.27253
 Alpha virt. eigenvalues --    0.28804   0.29025   0.30533   0.31158   0.32594

 Mulliken charges:
               1
     1  C   -0.170494
     2  C   -0.217977
     3  C   -0.169859
     4  C    0.158748
     5  C   -0.173821
     6  C   -0.218834
     7  H    0.227354
     8  H    0.225848
     9  H    0.277999
    10  H    0.269086
    11  H    0.222329
    12  N    0.489746
    13  O   -0.464359
    14  O   -0.456298
    15  C   -0.167572
    16  C   -0.217271
    17  C   -0.169839
    18  C    0.159630
    19  C   -0.163295
    20  C   -0.200140
    21  H    0.218779
    22  H    0.220465
    23  H    0.273605
    24  H    0.272835
    25  H    0.209012
    26  N    0.488516
    27  O   -0.461844
    28  O   -0.462349
 Sum of Mulliken charges =  -0.00000

 Dipole moment (field-independent basis, Debye):
    X=             -7.1000    Y=              6.1953    Z=              0.5327  Tot=              9.4380
 Quadrupole moment (field-independent basis, Debye-Ang):
   XX=            -95.8493   YY=           -104.0698   ZZ=           -104.8722
   XY=             11.0456   XZ=            -14.8731   YZ=             -0.3506

 Normal termination of Gaussian 16 at Thu May  6 19:42:48 2021.
