 Gaussian 16, Revision A.03,
 Gaussian 16:  EM64L-G16RevA.03 25-Dec-2016

 -------------
 #p 6-31g* mp2
 -------------

 ------------------------------------------------------
 Input file generated by CHIRIPA (05-May-2021 14:57:25)
 ------------------------------------------------------
 Symbolic Z-matrix:
 Charge =  0 Multiplicity = 1

                         Standard orientation:
 ---------------------------------------------------------------------
 Center     Atomic      Atomic             Coordinates (Angstroms)
 Number     Number       Type             X           Y           Z
 ---------------------------------------------------------------------
      1          6           0        3.534164   -2.366782   -0.837413
      2          6           0        4.739605   -1.818893   -0.386579
      3          6           0        4.813584   -0.472354   -0.017925
      4          6           0        3.657557    0.300855   -0.113000
      5          6           0        2.441863   -0.215888   -0.558370
      6          6           0        2.391155   -1.564944   -0.921721
      7          1           0        3.485735   -3.413784   -1.121733
      8          1           0        5.628874   -2.439236   -0.320080
      9          1           0        5.733839   -0.022492    0.334456
     10          1           0        1.572177    0.427528   -0.613864
     11          1           0        1.453636   -1.987747   -1.271492
     12          7           0        3.723556    1.727709    0.274471
     13          8           0        2.690927    2.387776    0.181595
     14          8           0        4.806665    2.158991    0.663709
     15          6           0       -5.731868    0.841530   -0.916236
     16          6           0       -4.542231    1.575928   -0.960330
     17          6           0       -3.380803    1.083021   -0.358104
     18          6           0       -3.445091   -0.153400    0.282536
     19          6           0       -4.615164   -0.908716    0.343503
     20          6           0       -5.764479   -0.396266   -0.265607
     21          1           0       -6.629388    1.232023   -1.386734
     22          1           0       -4.513963    2.537511   -1.464915
     23          1           0       -2.446421    1.630728   -0.377210
     24          1           0       -4.612355   -1.864176    0.853901
     25          1           0       -6.686962   -0.968793   -0.229787
     26          7           0       -2.221950   -0.685563    0.923730
     27          8           0       -2.304749   -1.777462    1.481885
     28          8           0       -1.203614   -0.000696    0.856002
 ---------------------------------------------------------------------

 SCF Done:  E(RHF) =  -868.339184024     A.U. after   16 cycles
 E2 =    -0.2598585878D+01 EUMP2 =    -0.87093776990225D+03

 The electronic state is 1-A.
 Alpha  occ. eigenvalues --  -20.61245 -20.61222 -20.59958 -20.59943 -15.86274
 Alpha  occ. eigenvalues --  -15.85002 -11.31473 -11.30215 -11.28036 -11.27997
 Alpha  occ. eigenvalues --  -11.27738 -11.27012 -11.26978 -11.26858 -11.26680
 Alpha  occ. eigenvalues --  -11.26575 -11.25862 -11.25729  -1.60308  -1.59029
 Alpha  occ. eigenvalues --   -1.39864  -1.38586  -1.19633  -1.18399  -1.09060
 Alpha  occ. eigenvalues --   -1.07839  -1.05007  -1.03772  -0.95919  -0.94687
 Alpha  occ. eigenvalues --   -0.86413  -0.85192  -0.82752  -0.81519  -0.77819
 Alpha  occ. eigenvalues --   -0.76568  -0.72495  -0.71629  -0.71232  -0.70735
 Alpha  occ. eigenvalues --   -0.70344  -0.69526  -0.65286  -0.65003  -0.64060
 Alpha  occ. eigenvalues --   -0.63792  -0.62349  -0.61111  -0.55514  -0.54333
 Alpha  occ. eigenvalues --   -0.53353  -0.53091  -0.52123  -0.51872  -0.49252
 Alpha  occ. eigenvalues --   -0.49234  -0.47988  -0.47974  -0.45305  -0.44024
 Alpha  occ. eigenvalues --   -0.37611  -0.36605  -0.36409  -0.35353
 Alpha virt. eigenvalues --    0.04673   0.05956   0.11050   0.12286   0.16188
 Alpha virt. eigenvalues --    0.17455   0.21177   0.22355   0.27102   0.27721
 Alpha virt. eigenvalues --    0.28422   0.29259   0.30811   0.31737   0.32305

 Mulliken charges:
               1
     1  C   -0.170869
     2  C   -0.219472
     3  C   -0.171672
     4  C    0.156260
     5  C   -0.165249
     6  C   -0.216797
     7  H    0.222668
     8  H    0.219756
     9  H    0.272435
    10  H    0.283807
    11  H    0.223960
    12  N    0.488380
    13  O   -0.460527
    14  O   -0.464403
    15  C   -0.170294
    16  C   -0.218719
    17  C   -0.171905
    18  C    0.156774
    19  C   -0.171192
    20  C   -0.218686
    21  H    0.226881
    22  H    0.226016
    23  H    0.278757
    24  H    0.275242
    25  H    0.224089
    26  N    0.489140
    27  O   -0.459737
    28  O   -0.464644
 Sum of Mulliken charges =  -0.00000

 Dipole moment (field-independent basis, Debye):
    X=             -4.9292    Y=             -3.1075    Z=             -3.6194  Tot=              6.8596
 Quadrupole moment (field-independent basis, Debye-Ang):
   XX=            -72.0446   YY=           -106.0897   ZZ=           -106.7517
   XY=            -22.8915   XZ=              2.3186   YZ=             -0.5934

 Normal termination of Gaussian 16 at Fri May  7 01:58:03 2021.
