 Gaussian 16, Revision A.03,
 Gaussian 16:  EM64L-G16RevA.03 25-Dec-2016

 -------------
 #p 6-31g* mp2
 -------------

 ------------------------------------------------------
 Input file generated by CHIRIPA (05-May-2021 14:55:20)
 ------------------------------------------------------
 Symbolic Z-matrix:
 Charge =  0 Multiplicity = 1

                         Standard orientation:
 ---------------------------------------------------------------------
 Center     Atomic      Atomic             Coordinates (Angstroms)
 Number     Number       Type             X           Y           Z
 ---------------------------------------------------------------------
      1          6           0        4.736915   -1.572550   -0.479055
      2          6           0        3.350948   -1.760221   -0.498940
      3          6           0        2.485654   -0.685903   -0.271664
      4          6           0        3.043054    0.568102   -0.026583
      5          6           0        4.419532    0.786982   -0.000298
      6          6           0        5.265851   -0.301788   -0.230236
      7          1           0        5.401727   -2.412720   -0.656642
      8          1           0        2.937357   -2.745994   -0.691914
      9          1           0        1.408806   -0.803046   -0.281346
     10          1           0        4.802185    1.781428    0.194821
     11          1           0        6.341805   -0.153090   -0.214194
     12          7           0        2.137050    1.713085    0.215432
     13          8           0        2.653141    2.807920    0.429026
     14          8           0        0.927988    1.494006    0.186948
     15          6           0       -4.755450   -0.377332   -0.266858
     16          6           0       -5.354513    1.007240   -0.017723
     17          6           0       -6.693223    1.208732   -0.728390
     18          1           0       -4.624156   -0.523971   -1.347693
     19          1           0       -5.468436   -1.143363    0.068169
     20          1           0       -4.640030    1.770451   -0.351848
     21          1           0       -5.484218    1.150674    1.062657
     22          1           0       -7.425165    0.469073   -0.388143
     23          1           0       -6.576181    1.092371   -1.810686
     24          1           0       -7.103542    2.205102   -0.536704
     25          6           0       -3.417030   -0.593920    0.437022
     26          6           0       -2.817967   -1.978492    0.187887
     27          6           0       -1.479256   -2.179984    0.898555
     28          1           0       -2.704044    0.172110    0.101995
     29          1           0       -3.548324   -0.447281    1.517858
     30          1           0       -2.688261   -2.121926   -0.892492
     31          1           0       -3.532450   -2.741703    0.522013
     32          1           0       -1.596300   -2.063623    1.980850
     33          1           0       -0.747315   -1.440326    0.558308
     34          1           0       -1.068938   -3.176355    0.706869
 ---------------------------------------------------------------------

 SCF Done:  E(RHF) =  -669.535776937     A.U. after   15 cycles
 E2 =    -0.2091144105D+01 EUMP2 =    -0.67162692104145D+03

 The electronic state is 1-A.
 Alpha  occ. eigenvalues --  -20.60818 -20.60812 -15.85865 -11.31194 -11.27765
 Alpha  occ. eigenvalues --  -11.27745 -11.27506 -11.26778 -11.26762 -11.21463
 Alpha  occ. eigenvalues --  -11.21146 -11.21142 -11.20997 -11.20902 -11.20693
 Alpha  occ. eigenvalues --   -1.59887  -1.39443  -1.19368  -1.08770  -1.08080
 Alpha  occ. eigenvalues --   -1.04766  -1.03268  -0.95733  -0.95607  -0.86759
 Alpha  occ. eigenvalues --   -0.86167  -0.82442  -0.79330  -0.77857  -0.77491
 Alpha  occ. eigenvalues --   -0.72087  -0.71206  -0.70487  -0.65022  -0.64813
 Alpha  occ. eigenvalues --   -0.64677  -0.62147  -0.60655  -0.59105  -0.57321
 Alpha  occ. eigenvalues --   -0.55314  -0.54987  -0.53098  -0.52884  -0.52461
 Alpha  occ. eigenvalues --   -0.52125  -0.49666  -0.48845  -0.48836  -0.47637
 Alpha  occ. eigenvalues --   -0.46338  -0.45416  -0.45296  -0.44852  -0.43497
 Alpha  occ. eigenvalues --   -0.37351  -0.36365
 Alpha virt. eigenvalues --    0.05031   0.11274   0.16538   0.20591   0.23170
 Alpha virt. eigenvalues --    0.24170   0.26002   0.27214   0.27650   0.28175
 Alpha virt. eigenvalues --    0.29431   0.30141   0.31539   0.31857   0.32239

 Mulliken charges:
               1
     1  C   -0.170421
     2  C   -0.222533
     3  C   -0.176596
     4  C    0.156320
     5  C   -0.169980
     6  C   -0.219009
     7  H    0.225666
     8  H    0.224332
     9  H    0.288628
    10  H    0.275586
    11  H    0.223444
    12  N    0.487443
    13  O   -0.459749
    14  O   -0.463323
    15  C   -0.298238
    16  C   -0.300287
    17  C   -0.475603
    18  H    0.148435
    19  H    0.147076
    20  H    0.156732
    21  H    0.152030
    22  H    0.153516
    23  H    0.154429
    24  H    0.160318
    25  C   -0.301885
    26  C   -0.298156
    27  C   -0.484871
    28  H    0.162672
    29  H    0.150020
    30  H    0.149662
    31  H    0.151054
    32  H    0.159570
    33  H    0.160619
    34  H    0.153098
 Sum of Mulliken charges =  -0.00000

 Dipole moment (field-independent basis, Debye):
    X=              3.2156    Y=             -3.9239    Z=             -0.8247  Tot=              5.1398
 Quadrupole moment (field-independent basis, Debye-Ang):
   XX=            -73.2691   YY=            -98.2103   ZZ=            -95.0681
   XY=             -7.7300   XZ=             -3.1859   YZ=             -0.1105

 Normal termination of Gaussian 16 at Thu May  6 09:16:37 2021.
