 Gaussian 16, Revision A.03,
 Gaussian 16:  EM64L-G16RevA.03 25-Dec-2016

 -------------
 #p 6-31g* mp2
 -------------

 ------------------------------------------------------
 Input file generated by CHIRIPA (05-May-2021 14:55:25)
 ------------------------------------------------------
 Symbolic Z-matrix:
 Charge =  0 Multiplicity = 1

                         Standard orientation:
 ---------------------------------------------------------------------
 Center     Atomic      Atomic             Coordinates (Angstroms)
 Number     Number       Type             X           Y           Z
 ---------------------------------------------------------------------
      1          6           0       -2.312031   -2.203746    1.431445
      2          6           0       -3.536256   -1.939258    0.808677
      3          6           0       -3.690011   -0.813236   -0.005561
      4          6           0       -2.593739    0.030839   -0.175900
      5          6           0       -1.361246   -0.205633    0.431003
      6          6           0       -1.230340   -1.337617    1.240957
      7          1           0       -2.201465   -3.080783    2.062300
      8          1           0       -4.378027   -2.610160    0.954814
      9          1           0       -4.626499   -0.584615   -0.499667
     10          1           0       -0.540211    0.481547    0.266371
     11          1           0       -0.278410   -1.540521    1.723351
     12          7           0       -2.744418    1.226064   -1.035629
     13          8           0       -1.763333    1.954168   -1.169695
     14          8           0       -3.840752    1.412145   -1.559139
     15          6           0        2.760008    0.601139    0.435623
     16          6           0        3.175100    2.038267    0.752397
     17          6           0        2.108048    2.802565    1.536645
     18          1           0        1.822036    0.614721   -0.136188
     19          1           0        2.545690    0.073214    1.375175
     20          1           0        3.389908    2.562921   -0.187397
     21          1           0        4.112294    2.021270    1.323356
     22          1           0        1.899180    2.304469    2.488945
     23          1           0        1.172689    2.849198    0.969609
     24          1           0        2.425479    3.827539    1.752347
     25          6           0        3.816389   -0.175800   -0.348056
     26          6           0        3.401299   -1.612928   -0.664830
     27          6           0        4.468350   -2.377225   -1.449078
     28          1           0        4.030709    0.352125   -1.287607
     29          1           0        4.754362   -0.189382    0.223755
     30          1           0        2.464104   -1.595931   -1.235788
     31          1           0        3.186491   -2.137582    0.274964
     32          1           0        5.403709   -2.423858   -0.882042
     33          1           0        4.677219   -1.879130   -2.401378
     34          1           0        4.150920   -3.402200   -1.664780
 ---------------------------------------------------------------------

 SCF Done:  E(RHF) =  -669.535892969     A.U. after   15 cycles
 E2 =    -0.2091956930D+01 EUMP2 =    -0.67162784989872D+03

 The electronic state is 1-A.
 Alpha  occ. eigenvalues --  -20.60772 -20.60765 -15.85818 -11.31132 -11.27710
 Alpha  occ. eigenvalues --  -11.27658 -11.27446 -11.26723 -11.26688 -11.22029
 Alpha  occ. eigenvalues --  -11.21955 -11.21814 -11.21750 -11.21383 -11.21163
 Alpha  occ. eigenvalues --   -1.59842  -1.39398  -1.19306  -1.08822  -1.08713
 Alpha  occ. eigenvalues --   -1.04699  -1.03828  -0.96278  -0.95555  -0.87292
 Alpha  occ. eigenvalues --   -0.86105  -0.82386  -0.79900  -0.78710  -0.77421
 Alpha  occ. eigenvalues --   -0.72039  -0.71162  -0.70426  -0.65464  -0.64959
 Alpha  occ. eigenvalues --   -0.64688  -0.62068  -0.61195  -0.59653  -0.57901
 Alpha  occ. eigenvalues --   -0.55555  -0.55215  -0.53039  -0.52935  -0.52826
 Alpha  occ. eigenvalues --   -0.52686  -0.50209  -0.48796  -0.48791  -0.48207
 Alpha  occ. eigenvalues --   -0.46918  -0.46187  -0.46114  -0.44812  -0.44117
 Alpha  occ. eigenvalues --   -0.37294  -0.36298
 Alpha virt. eigenvalues --    0.05072   0.11328   0.16574   0.19821   0.22906
 Alpha virt. eigenvalues --    0.23426   0.24927   0.25480   0.27499   0.28389
 Alpha virt. eigenvalues --    0.29862   0.30764   0.31441   0.31610   0.31912

 Mulliken charges:
               1
     1  C   -0.170639
     2  C   -0.218925
     3  C   -0.170268
     4  C    0.158860
     5  C   -0.180230
     6  C   -0.222637
     7  H    0.225388
     8  H    0.223187
     9  H    0.275310
    10  H    0.287831
    11  H    0.225300
    12  N    0.487401
    13  O   -0.462246
    14  O   -0.460071
    15  C   -0.306513
    16  C   -0.298822
    17  C   -0.482534
    18  H    0.151834
    19  H    0.142235
    20  H    0.157504
    21  H    0.152277
    22  H    0.150509
    23  H    0.165654
    24  H    0.164077
    25  C   -0.297393
    26  C   -0.300680
    27  C   -0.475853
    28  H    0.154460
    29  H    0.151093
    30  H    0.153456
    31  H    0.146333
    32  H    0.155703
    33  H    0.158034
    34  H    0.160364
 Sum of Mulliken charges =  -0.00000

 Dipole moment (field-independent basis, Debye):
    X=              0.6560    Y=             -4.1106    Z=              2.9411  Tot=              5.0968
 Quadrupole moment (field-independent basis, Debye-Ang):
   XX=            -92.8526   YY=            -95.3771   ZZ=            -96.0435
   XY=             13.0349   XZ=             -6.6232   YZ=              0.3770

 Normal termination of Gaussian 16 at Thu May  6 01:36:30 2021.
