 Gaussian 16, Revision A.03,
 Gaussian 16:  EM64L-G16RevA.03 25-Dec-2016

 -------------
 #p 6-31g* mp2
 -------------

 ------------------------------------------------------
 Input file generated by CHIRIPA (05-May-2021 14:51:14)
 ------------------------------------------------------
 Symbolic Z-matrix:
 Charge =  0 Multiplicity = 1

                         Standard orientation:
 ---------------------------------------------------------------------
 Center     Atomic      Atomic             Coordinates (Angstroms)
 Number     Number       Type             X           Y           Z
 ---------------------------------------------------------------------
      1          6           0       -3.624983    0.400478    0.331301
      2          6           0       -2.215976    0.151827   -0.208010
      3          6           0       -1.179389    1.107527    0.383529
      4          1           0       -3.915449    1.437836    0.115750
      5          1           0       -3.614329    0.299787    1.425441
      6          1           0       -2.229574    0.251595   -1.300932
      7          1           0       -1.928906   -0.885117    0.008681
      8          1           0       -1.136447    1.003239    1.472510
      9          1           0       -1.438824    2.146410    0.155457
     10          1           0       -0.179241    0.912122   -0.015698
     11          6           0       -4.672400   -0.547105   -0.250706
     12          6           0       -6.081407   -0.298454    0.288605
     13          6           0       -7.117994   -1.254154   -0.302934
     14          1           0       -4.683054   -0.446414   -1.344846
     15          1           0       -4.381934   -1.584464   -0.035155
     16          1           0       -6.368477    0.738489    0.071914
     17          1           0       -6.067809   -0.398223    1.381527
     18          1           0       -6.858559   -2.293037   -0.074862
     19          1           0       -7.160936   -1.149867   -1.391915
     20          1           0       -8.118142   -1.058749    0.096293
     21          6           0        4.133610    0.830909   -0.136498
     22          6           0        2.732672    1.430411   -0.010182
     23          6           0        2.718816    2.946855   -0.205123
     24          1           0        4.795554    1.303066    0.602313
     25          1           0        4.542797    1.078092   -1.125872
     26          1           0        2.325699    1.180995    0.978141
     27          1           0        2.073938    0.956635   -0.749251
     28          1           0        3.100084    3.211286   -1.196744
     29          1           0        3.353276    3.436920    0.540461
     30          1           0        1.707513    3.354540   -0.110681
     31          6           0        4.163774   -0.684281    0.055903
     32          6           0        5.564711   -1.283784   -0.070413
     33          6           0        5.578567   -2.800227    0.124529
     34          1           0        3.754586   -0.931465    1.045278
     35          1           0        3.501829   -1.156439   -0.682907
     36          1           0        6.223445   -0.810008    0.668655
     37          1           0        5.971683   -1.034368   -1.058735
     38          1           0        4.944107   -3.290293   -0.621056
     39          1           0        5.197299   -3.064658    1.116149
     40          1           0        6.589870   -3.207913    0.030087
 ---------------------------------------------------------------------

 SCF Done:  E(RHF) =  -470.732899086     A.U. after   11 cycles
 E2 =    -0.1582787597D+01 EUMP2 =    -0.47231568668371D+03

 The electronic state is 1-A.
 Alpha  occ. eigenvalues --  -11.21603 -11.21594 -11.21585 -11.21557 -11.21403
 Alpha  occ. eigenvalues --  -11.21376 -11.21343 -11.21316 -11.21074 -11.21059
 Alpha  occ. eigenvalues --  -11.21041 -11.20943  -1.08437  -1.08395  -1.03554
 Alpha  occ. eigenvalues --   -1.03469  -0.96004  -0.95910  -0.86996  -0.86954
 Alpha  occ. eigenvalues --   -0.79678  -0.79492  -0.78261  -0.78203  -0.65065
 Alpha  occ. eigenvalues --   -0.65028  -0.60942  -0.60882  -0.59600  -0.59117
 Alpha  occ. eigenvalues --   -0.57710  -0.57408  -0.55265  -0.55221  -0.52739
 Alpha  occ. eigenvalues --   -0.52551  -0.52425  -0.52343  -0.49921  -0.49878
 Alpha  occ. eigenvalues --   -0.48046  -0.47736  -0.46641  -0.46577  -0.45798
 Alpha  occ. eigenvalues --   -0.45749  -0.45707  -0.45676  -0.43818  -0.43644
 Alpha virt. eigenvalues --    0.22177   0.23030   0.23488   0.24872   0.26421
 Alpha virt. eigenvalues --    0.26637   0.26711   0.27435   0.27840   0.28900
 Alpha virt. eigenvalues --    0.30499   0.30843   0.31291   0.31847   0.32320

 Mulliken charges:
               1
     1  C   -0.298417
     2  C   -0.299179
     3  C   -0.484717
     4  H    0.149494
     5  H    0.149393
     6  H    0.151309
     7  H    0.151695
     8  H    0.154194
     9  H    0.153888
    10  H    0.172146
    11  C   -0.298174
    12  C   -0.299589
    13  C   -0.475677
    14  H    0.149383
    15  H    0.149556
    16  H    0.151894
    17  H    0.151880
    18  H    0.155143
    19  H    0.155132
    20  H    0.160188
    21  C   -0.297109
    22  C   -0.303182
    23  C   -0.477274
    24  H    0.149674
    25  H    0.149398
    26  H    0.154104
    27  H    0.152364
    28  H    0.154798
    29  H    0.155222
    30  H    0.162741
    31  C   -0.298430
    32  C   -0.299623
    33  C   -0.475705
    34  H    0.149556
    35  H    0.149391
    36  H    0.151987
    37  H    0.151946
    38  H    0.155167
    39  H    0.155160
    40  H    0.160270
 Sum of Mulliken charges =  -0.00000

 Dipole moment (field-independent basis, Debye):
    X=              0.0385    Y=              0.0065    Z=              0.0038  Tot=              0.0392
 Quadrupole moment (field-independent basis, Debye-Ang):
   XX=            -85.6656   YY=            -85.9145   ZZ=            -83.3087
   XY=             -0.4030   XZ=              0.0094   YZ=             -0.4607

 Normal termination of Gaussian 16 at Thu May  6 02:24:42 2021.
