 Gaussian 16, Revision A.03,
 Gaussian 16:  EM64L-G16RevA.03 25-Dec-2016

 -------------
 #p 6-31g* mp2
 -------------

 ------------------------------------------------------
 Input file generated by CHIRIPA (05-May-2021 14:51:07)
 ------------------------------------------------------
 Symbolic Z-matrix:
 Charge =  0 Multiplicity = 1

                         Standard orientation:
 ---------------------------------------------------------------------
 Center     Atomic      Atomic             Coordinates (Angstroms)
 Number     Number       Type             X           Y           Z
 ---------------------------------------------------------------------
      1          6           0       -2.715348   -0.608674    0.848173
      2          6           0       -1.240113   -0.814075    1.193827
      3          6           0       -1.006689   -2.031154    2.089386
      4          1           0       -3.291083   -0.497870    1.777257
      5          1           0       -3.096948   -1.510479    0.349652
      6          1           0       -0.861046    0.088384    1.690308
      7          1           0       -0.667796   -0.924210    0.263806
      8          1           0       -1.358175   -2.944141    1.597947
      9          1           0       -1.552523   -1.925794    3.032554
     10          1           0        0.054614   -2.159253    2.324092
     11          6           0       -2.964754    0.604175   -0.046547
     12          6           0       -4.439989    0.809576   -0.392202
     13          6           0       -4.673413    2.026655   -1.287760
     14          1           0       -2.583154    1.505980    0.451973
     15          1           0       -2.389020    0.493371   -0.975632
     16          1           0       -5.012306    0.919711    0.537819
     17          1           0       -4.819056   -0.092883   -0.888683
     18          1           0       -4.127580    1.921295   -2.230928
     19          1           0       -4.321927    2.939642   -0.796321
     20          1           0       -5.734716    2.154754   -1.522467
     21          6           0        3.413051    0.507223   -0.390543
     22          6           0        3.231434    1.609262    0.653731
     23          6           0        4.385848    2.611784    0.662103
     24          1           0        4.357207   -0.020209   -0.197332
     25          1           0        3.508907    0.965769   -1.384496
     26          1           0        3.134561    1.148701    1.645253
     27          1           0        2.287507    2.134007    0.458127
     28          1           0        4.480870    3.098057   -0.314171
     29          1           0        5.332737    2.107152    0.879701
     30          1           0        4.235545    3.390855    1.415972
     31          6           0        2.267051   -0.502724   -0.411082
     32          6           0        2.448669   -1.604764   -1.455357
     33          6           0        1.294254   -2.607285   -1.463729
     34          1           0        2.171195   -0.961269    0.582871
     35          1           0        1.322896    0.024708   -0.604294
     36          1           0        3.392596   -2.129508   -1.259752
     37          1           0        2.545541   -1.144202   -2.446878
     38          1           0        0.347366   -2.102653   -1.681326
     39          1           0        1.199232   -3.093558   -0.487455
     40          1           0        1.444557   -3.386355   -2.217598
 ---------------------------------------------------------------------

 SCF Done:  E(RHF) =  -470.732145974     A.U. after   11 cycles
 E2 =    -0.1584530892D+01 EUMP2 =    -0.47231667686600D+03

 The electronic state is 1-A.
 Alpha  occ. eigenvalues --  -11.21627 -11.21596 -11.21594 -11.21415 -11.21387
 Alpha  occ. eigenvalues --  -11.21380 -11.21323 -11.21290 -11.21117 -11.21073
 Alpha  occ. eigenvalues --  -11.21069 -11.21015  -1.08467  -1.08359  -1.03584
 Alpha  occ. eigenvalues --   -1.03447  -0.95998  -0.95943  -0.87020  -0.86956
 Alpha  occ. eigenvalues --   -0.79720  -0.79490  -0.78437  -0.77991  -0.65123
 Alpha  occ. eigenvalues --   -0.64978  -0.60995  -0.60872  -0.59476  -0.59199
 Alpha  occ. eigenvalues --   -0.57616  -0.57542  -0.55306  -0.55215  -0.52698
 Alpha  occ. eigenvalues --   -0.52634  -0.52428  -0.52371  -0.49983  -0.49856
 Alpha  occ. eigenvalues --   -0.48176  -0.47770  -0.46812  -0.46501  -0.46124
 Alpha  occ. eigenvalues --   -0.45718  -0.45677  -0.45028  -0.43793  -0.43730
 Alpha virt. eigenvalues --    0.20832   0.23053   0.23359   0.24325   0.25380
 Alpha virt. eigenvalues --    0.26233   0.26745   0.27909   0.28508   0.29777
 Alpha virt. eigenvalues --    0.30926   0.31196   0.31382   0.32085   0.32142

 Mulliken charges:
               1
     1  C   -0.297920
     2  C   -0.307984
     3  C   -0.476580
     4  H    0.149090
     5  H    0.149101
     6  H    0.150980
     7  H    0.164688
     8  H    0.155230
     9  H    0.154663
    10  H    0.159467
    11  C   -0.298121
    12  C   -0.299500
    13  C   -0.475692
    14  H    0.149408
    15  H    0.147844
    16  H    0.152145
    17  H    0.151985
    18  H    0.154919
    19  H    0.155103
    20  H    0.160291
    21  C   -0.297714
    22  C   -0.299666
    23  C   -0.475690
    24  H    0.149355
    25  H    0.149345
    26  H    0.151731
    27  H    0.152234
    28  H    0.155191
    29  H    0.155150
    30  H    0.160188
    31  C   -0.302762
    32  C   -0.299607
    33  C   -0.479321
    34  H    0.151556
    35  H    0.153212
    36  H    0.151957
    37  H    0.151725
    38  H    0.155099
    39  H    0.158216
    40  H    0.160684
 Sum of Mulliken charges =  -0.00000

 Dipole moment (field-independent basis, Debye):
    X=              0.0300    Y=             -0.0097    Z=             -0.0152  Tot=              0.0350
 Quadrupole moment (field-independent basis, Debye-Ang):
   XX=            -85.3459   YY=            -85.4829   ZZ=            -84.1333
   XY=             -0.7134   XZ=             -0.0330   YZ=              0.5662

 Normal termination of Gaussian 16 at Thu May  6 00:28:53 2021.
