 Gaussian 16, Revision A.03,
 Gaussian 16:  EM64L-G16RevA.03 25-Dec-2016

 -------------
 #p 6-31g* mp2
 -------------

 ------------------------------------------------------
 Input file generated by CHIRIPA (05-May-2021 14:53:15)
 ------------------------------------------------------
 Symbolic Z-matrix:
 Charge =  0 Multiplicity = 1

                         Standard orientation:
 ---------------------------------------------------------------------
 Center     Atomic      Atomic             Coordinates (Angstroms)
 Number     Number       Type             X           Y           Z
 ---------------------------------------------------------------------
      1          6           0       -4.122561   -0.258694    0.254441
      2          6           0       -4.588383   -1.520675   -0.472469
      3          6           0       -5.330962   -2.491788    0.445850
      4          1           0       -3.471141   -0.544749    1.091560
      5          1           0       -4.994111    0.245288    0.694666
      6          1           0       -3.716378   -2.021387   -0.912368
      7          1           0       -5.238616   -1.231572   -1.308072
      8          1           0       -6.218023   -2.014488    0.874697
      9          1           0       -4.687135   -2.808791    1.272649
     10          1           0       -5.654974   -3.386864   -0.094256
     11          6           0       -3.378581    0.721885   -0.650372
     12          6           0       -2.912760    1.983867    0.076538
     13          6           0       -2.170181    2.954979   -0.841781
     14          1           0       -2.507031    0.217904   -1.090598
     15          1           0       -4.030002    1.007940   -1.487491
     16          1           0       -2.262527    1.694763    0.912141
     17          1           0       -3.784765    2.484579    0.516437
     18          1           0       -2.814008    3.271983   -1.668580
     19          1           0       -1.283120    2.477680   -1.270628
     20          1           0       -1.846169    3.850055   -0.301675
     21          6           0        0.677236    0.309797    1.179140
     22          6           0        1.841333    0.471732    1.937544
     23          6           0        3.094972    0.202779    1.380227
     24          6           0        3.147936   -0.228376    0.055618
     25          6           0        2.006178   -0.399294   -0.725705
     26          6           0        0.763222   -0.124434   -0.147726
     27          1           0       -0.292471    0.521021    1.620103
     28          1           0        1.777579    0.808825    2.968247
     29          1           0        4.012111    0.319692    1.944676
     30          1           0        2.101605   -0.736767   -1.750608
     31          1           0       -0.139159   -0.251081   -0.739090
     32          7           0        4.469452   -0.516232   -0.545326
     33          8           0        4.489203   -0.894862   -1.714465
     34          8           0        5.460482   -0.357772    0.164172
 ---------------------------------------------------------------------

 SCF Done:  E(RHF) =  -669.534957744     A.U. after   15 cycles
 E2 =    -0.2092732480D+01 EUMP2 =    -0.67162769022442D+03

 The electronic state is 1-A.
 Alpha  occ. eigenvalues --  -20.60760 -20.60755 -15.85813 -11.31185 -11.27760
 Alpha  occ. eigenvalues --  -11.27756 -11.27485 -11.26766 -11.26755 -11.22785
 Alpha  occ. eigenvalues --  -11.22578 -11.22448 -11.22385 -11.21977 -11.21748
 Alpha  occ. eigenvalues --   -1.59835  -1.39388  -1.19360  -1.09493  -1.08750
 Alpha  occ. eigenvalues --   -1.04768  -1.04472  -0.96900  -0.95588  -0.87911
 Alpha  occ. eigenvalues --   -0.86165  -0.82428  -0.80553  -0.79303  -0.77468
 Alpha  occ. eigenvalues --   -0.72032  -0.71158  -0.70506  -0.66236  -0.65007
 Alpha  occ. eigenvalues --   -0.64711  -0.62179  -0.61788  -0.60273  -0.58513
 Alpha  occ. eigenvalues --   -0.56213  -0.55289  -0.53553  -0.53319  -0.53077
 Alpha  occ. eigenvalues --   -0.52868  -0.50843  -0.48844  -0.48802  -0.48785
 Alpha  occ. eigenvalues --   -0.47590  -0.46810  -0.46751  -0.44793  -0.44752
 Alpha  occ. eigenvalues --   -0.37329  -0.36366
 Alpha virt. eigenvalues --    0.05061   0.11189   0.16509   0.17933   0.22966
 Alpha virt. eigenvalues --    0.23715   0.23952   0.25116   0.27046   0.28450
 Alpha virt. eigenvalues --    0.29661   0.30178   0.31008   0.31381   0.31763

 Mulliken charges:
               1
     1  C   -0.298175
     2  C   -0.299975
     3  C   -0.476293
     4  H    0.144378
     5  H    0.153702
     6  H    0.150655
     7  H    0.154853
     8  H    0.156727
     9  H    0.155402
    10  H    0.163355
    11  C   -0.303339
    12  C   -0.303388
    13  C   -0.476990
    14  H    0.143276
    15  H    0.156610
    16  H    0.142887
    17  H    0.157866
    18  H    0.159241
    19  H    0.155246
    20  H    0.163827
    21  C   -0.175979
    22  C   -0.219385
    23  C   -0.170683
    24  C    0.158810
    25  C   -0.172360
    26  C   -0.226029
    27  H    0.231541
    28  H    0.223759
    29  H    0.275613
    30  H    0.276207
    31  H    0.231487
    32  N    0.487971
    33  O   -0.460375
    34  O   -0.460441
 Sum of Mulliken charges =  -0.00000

 Dipole moment (field-independent basis, Debye):
    X=             -4.8777    Y=              1.0630    Z=              2.0740  Tot=              5.4058
 Quadrupole moment (field-independent basis, Debye-Ang):
   XX=           -122.0084   YY=            -95.7177   ZZ=            -91.1855
   XY=              3.9827   XZ=              9.3633   YZ=              1.0455

 Normal termination of Gaussian 16 at Thu May  6 15:28:27 2021.
