 Gaussian 16, Revision A.03,
 Gaussian 16:  EM64L-G16RevA.03 25-Dec-2016

 -------------
 #p 6-31g* mp2
 -------------

 ------------------------------------------------------
 Input file generated by CHIRIPA (05-May-2021 14:55:18)
 ------------------------------------------------------
 Symbolic Z-matrix:
 Charge =  0 Multiplicity = 1

                         Standard orientation:
 ---------------------------------------------------------------------
 Center     Atomic      Atomic             Coordinates (Angstroms)
 Number     Number       Type             X           Y           Z
 ---------------------------------------------------------------------
      1          6           0       -6.059850    0.321759   -0.036987
      2          6           0       -5.675047   -1.015989    0.100411
      3          6           0       -4.322262   -1.368838    0.104438
      4          6           0       -3.376574   -0.353735   -0.031685
      5          6           0       -3.728401    0.988008   -0.170371
      6          6           0       -5.087014    1.317732   -0.171702
      7          1           0       -7.112990    0.586878   -0.039068
      8          1           0       -6.428384   -1.791583    0.205209
      9          1           0       -3.996512   -2.396615    0.209224
     10          1           0       -2.954464    1.738947   -0.272985
     11          1           0       -5.382938    2.357469   -0.278573
     12          7           0       -1.941356   -0.715039   -0.028849
     13          8           0       -1.127600    0.198020   -0.150339
     14          8           0       -1.657364   -1.904449    0.094810
     15          6           0        5.275280    0.143386   -0.284302
     16          6           0        5.840166   -1.134400    0.337109
     17          6           0        7.141638   -1.588276   -0.324680
     18          1           0        5.104504   -0.022505   -1.356804
     19          1           0        6.025149    0.942851   -0.207187
     20          1           0        5.088929   -1.930845    0.260085
     21          1           0        6.009439   -0.965507    1.408294
     22          1           0        7.909821   -0.813329   -0.235502
     23          1           0        6.984080   -1.784151   -1.390236
     24          1           0        7.527899   -2.503352    0.134992
     25          6           0        3.974295    0.609733    0.366612
     26          6           0        3.409408    1.887519   -0.254799
     27          6           0        2.107937    2.341396    0.406989
     28          1           0        3.224426   -0.189732    0.289497
     29          1           0        4.145072    0.775625    1.439113
     30          1           0        3.240137    1.718627   -1.325985
     31          1           0        4.160647    2.683964   -0.177774
     32          1           0        2.265495    2.537271    1.472545
     33          1           0        1.339755    1.566449    0.317812
     34          1           0        1.721676    3.256471   -0.052683
 ---------------------------------------------------------------------

 SCF Done:  E(RHF) =  -669.536277938     A.U. after   15 cycles
 E2 =    -0.2090642858D+01 EUMP2 =    -0.67162692079509D+03

 The electronic state is 1-A.
 Alpha  occ. eigenvalues --  -20.60959 -20.60953 -15.85999 -11.31297 -11.27860
 Alpha  occ. eigenvalues --  -11.27853 -11.27596 -11.26864 -11.26853 -11.20820
 Alpha  occ. eigenvalues --  -11.20505 -11.20483 -11.20428 -11.20270 -11.19653
 Alpha  occ. eigenvalues --   -1.60022  -1.39579  -1.19465  -1.08873  -1.07455
 Alpha  occ. eigenvalues --   -1.04858  -1.02544  -0.95720  -0.94985  -0.86260
 Alpha  occ. eigenvalues --   -0.86003  -0.82553  -0.78631  -0.77606  -0.77248
 Alpha  occ. eigenvalues --   -0.72227  -0.71335  -0.70574  -0.65122  -0.64862
 Alpha  occ. eigenvalues --   -0.64081  -0.62205  -0.59929  -0.58394  -0.56601
 Alpha  occ. eigenvalues --   -0.55365  -0.54249  -0.53191  -0.52950  -0.51709
 Alpha  occ. eigenvalues --   -0.51405  -0.49097  -0.48974  -0.48776  -0.46931
 Alpha  occ. eigenvalues --   -0.45651  -0.44998  -0.44801  -0.44668  -0.42813
 Alpha  occ. eigenvalues --   -0.37444  -0.36459
 Alpha virt. eigenvalues --    0.04922   0.11197   0.16420   0.21318   0.23826
 Alpha virt. eigenvalues --    0.25324   0.27251   0.27613   0.28108   0.28505
 Alpha virt. eigenvalues --    0.29075   0.30890   0.32224   0.32546   0.32736

 Mulliken charges:
               1
     1  C   -0.170548
     2  C   -0.218640
     3  C   -0.170448
     4  C    0.157356
     5  C   -0.170725
     6  C   -0.218583
     7  H    0.226009
     8  H    0.223796
     9  H    0.275814
    10  H    0.276313
    11  H    0.223939
    12  N    0.494533
    13  O   -0.466146
    14  O   -0.459293
    15  C   -0.297628
    16  C   -0.299490
    17  C   -0.475196
    18  H    0.148993
    19  H    0.146266
    20  H    0.154377
    21  H    0.150417
    22  H    0.153344
    23  H    0.154533
    24  H    0.158402
    25  C   -0.300064
    26  C   -0.297416
    27  C   -0.487987
    28  H    0.159452
    29  H    0.146480
    30  H    0.150997
    31  H    0.145626
    32  H    0.148266
    33  H    0.185772
    34  H    0.151480
 Sum of Mulliken charges =  -0.00000

 Dipole moment (field-independent basis, Debye):
    X=             -5.4045    Y=              1.1354    Z=             -0.0230  Tot=              5.5225
 Quadrupole moment (field-independent basis, Debye-Ang):
   XX=            -62.6784   YY=            -91.5006   ZZ=            -95.4265
   XY=             -0.9350   XZ=              0.7047   YZ=             -0.5399

 Normal termination of Gaussian 16 at Thu May  6 06:03:35 2021.
