 Gaussian 16, Revision A.03,
 Gaussian 16:  EM64L-G16RevA.03 25-Dec-2016

 -------------
 #p 6-31g* mp2
 -------------

 ------------------------------------------------------
 Input file generated by CHIRIPA (05-May-2021 14:55:20)
 ------------------------------------------------------
 Symbolic Z-matrix:
 Charge =  0 Multiplicity = 1

                         Standard orientation:
 ---------------------------------------------------------------------
 Center     Atomic      Atomic             Coordinates (Angstroms)
 Number     Number       Type             X           Y           Z
 ---------------------------------------------------------------------
      1          6           0       -5.640500    1.476634   -0.075133
      2          6           0       -4.439066    2.056996    0.344695
      3          6           0       -3.263101    1.302182    0.388408
      4          6           0       -3.325040   -0.036225    0.003542
      5          6           0       -4.506635   -0.643079   -0.419367
      6          6           0       -5.670398    0.130822   -0.455155
      7          1           0       -6.549279    2.070405   -0.106012
      8          1           0       -4.412873    3.101944    0.640402
      9          1           0       -2.319380    1.726219    0.709345
     10          1           0       -4.501410   -1.687132   -0.708060
     11          1           0       -6.602021   -0.322542   -0.781626
     12          7           0       -2.086558   -0.845416    0.045624
     13          8           0       -2.167580   -2.022530   -0.298578
     14          8           0       -1.058263   -0.287224    0.422013
     15          6           0        4.053601   -0.555361    0.431678
     16          6           0        2.845355   -1.091793   -0.336674
     17          6           0        1.927041   -1.952255    0.531715
     18          1           0        4.622256   -1.399988    0.844210
     19          1           0        3.701568    0.033431    1.290044
     20          1           0        3.199557   -1.678248   -1.194129
     21          1           0        2.279617   -0.245800   -0.747587
     22          1           0        1.545699   -1.374106    1.379608
     23          1           0        2.470866   -2.814694    0.930529
     24          1           0        1.069887   -2.325293   -0.037485
     25          6           0        4.981041    0.306684   -0.422992
     26          6           0        6.189287    0.843116    0.345361
     27          6           0        7.107602    1.703578   -0.523028
     28          1           0        5.333074   -0.282108   -1.281357
     29          1           0        4.412386    1.151310   -0.835524
     30          1           0        6.755026   -0.002878    0.756273
     31          1           0        5.835085    1.429571    1.202815
     32          1           0        6.563776    2.566017   -0.921843
     33          1           0        7.488944    1.125430   -1.370922
     34          1           0        7.964755    2.076616    0.046173
 ---------------------------------------------------------------------

 SCF Done:  E(RHF) =  -669.536058648     A.U. after   15 cycles
 E2 =    -0.2091593554D+01 EUMP2 =    -0.67162765220176D+03

 The electronic state is 1-A.
 Alpha  occ. eigenvalues --  -20.61023 -20.61004 -15.86031 -11.31340 -11.27899
 Alpha  occ. eigenvalues --  -11.27894 -11.27631 -11.26901 -11.26891 -11.20910
 Alpha  occ. eigenvalues --  -11.20525 -11.20493 -11.20201 -11.20001 -11.18857
 Alpha  occ. eigenvalues --   -1.60063  -1.39620  -1.19504  -1.08911  -1.07356
 Alpha  occ. eigenvalues --   -1.04897  -1.02309  -0.95760  -0.94727  -0.86299
 Alpha  occ. eigenvalues --   -0.85752  -0.82589  -0.78455  -0.77647  -0.77092
 Alpha  occ. eigenvalues --   -0.72247  -0.71373  -0.70612  -0.65160  -0.64901
 Alpha  occ. eigenvalues --   -0.64000  -0.62245  -0.59711  -0.58226  -0.56323
 Alpha  occ. eigenvalues --   -0.55400  -0.54046  -0.53230  -0.52987  -0.51426
 Alpha  occ. eigenvalues --   -0.51180  -0.49140  -0.49000  -0.48464  -0.46727
 Alpha  occ. eigenvalues --   -0.45523  -0.45040  -0.44633  -0.44499  -0.42528
 Alpha  occ. eigenvalues --   -0.37482  -0.36497
 Alpha virt. eigenvalues --    0.04879   0.11158   0.16379   0.21293   0.23826
 Alpha virt. eigenvalues --    0.25626   0.27215   0.27632   0.28186   0.28487
 Alpha virt. eigenvalues --    0.29365   0.30878   0.32361   0.32570   0.32681

 Mulliken charges:
               1
     1  C   -0.170516
     2  C   -0.218540
     3  C   -0.170832
     4  C    0.158631
     5  C   -0.170562
     6  C   -0.218577
     7  H    0.226154
     8  H    0.223943
     9  H    0.275591
    10  H    0.275977
    11  H    0.223989
    12  N    0.489263
    13  O   -0.459616
    14  O   -0.458509
    15  C   -0.297161
    16  C   -0.300498
    17  C   -0.470326
    18  H    0.146453
    19  H    0.147830
    20  H    0.145010
    21  H    0.154220
    22  H    0.159343
    23  H    0.139841
    24  H    0.177056
    25  C   -0.297035
    26  C   -0.298651
    27  C   -0.474976
    28  H    0.147678
    29  H    0.147629
    30  H    0.150911
    31  H    0.150420
    32  H    0.153675
    33  H    0.154332
    34  H    0.157853
 Sum of Mulliken charges =  -0.00000

 Dipole moment (field-independent basis, Debye):
    X=             -4.8479    Y=              2.8611    Z=             -0.1458  Tot=              5.6311
 Quadrupole moment (field-independent basis, Debye-Ang):
   XX=            -66.7759   YY=            -91.9981   ZZ=            -95.3627
   XY=             -8.0375   XZ=              1.7271   YZ=              2.2142

 Normal termination of Gaussian 16 at Thu May  6 10:48:42 2021.
