 Gaussian 16, Revision A.03,
 Gaussian 16:  EM64L-G16RevA.03 25-Dec-2016

 -------------
 #p 6-31g* mp2
 -------------

 ------------------------------------------------------
 Input file generated by CHIRIPA (05-May-2021 14:51:13)
 ------------------------------------------------------
 Symbolic Z-matrix:
 Charge =  0 Multiplicity = 1

                         Standard orientation:
 ---------------------------------------------------------------------
 Center     Atomic      Atomic             Coordinates (Angstroms)
 Number     Number       Type             X           Y           Z
 ---------------------------------------------------------------------
      1          6           0        3.857370    0.815301    0.393196
      2          6           0        2.780711    1.473563   -0.470216
      3          6           0        2.009479    2.563150    0.275302
      4          1           0        3.388318    0.386626    1.289395
      5          1           0        4.557289    1.585875    0.744940
      6          1           0        2.083820    0.701776   -0.821362
      7          1           0        3.252354    1.900554   -1.364558
      8          1           0        2.687987    3.353640    0.611981
      9          1           0        1.512815    2.148051    1.158263
     10          1           0        1.244893    3.020350   -0.360494
     11          6           0        4.636990   -0.276046   -0.338162
     12          6           0        5.713650   -0.934309    0.525250
     13          6           0        6.484881   -2.023895   -0.220268
     14          1           0        3.937072   -1.046621   -0.689906
     15          1           0        5.106042    0.152629   -1.234361
     16          1           0        5.242007   -1.361299    1.419592
     17          1           0        6.410540   -0.162521    0.876396
     18          1           0        6.981545   -1.608796   -1.103229
     19          1           0        5.806373   -2.814385   -0.556947
     20          1           0        7.249467   -2.481095    0.415528
     21          6           0       -3.558014   -0.471130    0.233018
     22          6           0       -2.405768    0.165749   -0.544606
     23          6           0       -1.033432   -0.246954   -0.011537
     24          1           0       -3.475482   -0.192062    1.292383
     25          1           0       -3.460380   -1.564728    0.189350
     26          1           0       -2.506321    1.257798   -0.500648
     27          1           0       -2.491160   -0.114713   -1.602277
     28          1           0       -0.907815   -1.332919   -0.070721
     29          1           0       -0.923062    0.047389    1.037167
     30          1           0       -0.224250    0.219750   -0.581864
     31          6           0       -4.936347   -0.068125   -0.288052
     32          6           0       -6.088592   -0.705004    0.489573
     33          6           0       -7.460929   -0.292300   -0.043497
     34          1           0       -5.033981    1.025473   -0.244384
     35          1           0       -5.018877   -0.347193   -1.347417
     36          1           0       -6.003200   -0.424543    1.547242
     37          1           0       -5.988039   -1.797054    0.445615
     38          1           0       -7.571298   -0.586645   -1.092201
     39          1           0       -7.586546    0.793664    0.015687
     40          1           0       -8.270109   -0.759005    0.526831
 ---------------------------------------------------------------------

 SCF Done:  E(RHF) =  -470.733187561     A.U. after   11 cycles
 E2 =    -0.1582657810D+01 EUMP2 =    -0.47231584537175D+03

 The electronic state is 1-A.
 Alpha  occ. eigenvalues --  -11.21611 -11.21606 -11.21576 -11.21559 -11.21411
 Alpha  occ. eigenvalues --  -11.21371 -11.21352 -11.21312 -11.21074 -11.21070
 Alpha  occ. eigenvalues --  -11.21051 -11.21035  -1.08439  -1.08397  -1.03557
 Alpha  occ. eigenvalues --   -1.03483  -0.96018  -0.95922  -0.87013  -0.86961
 Alpha  occ. eigenvalues --   -0.79622  -0.79549  -0.78250  -0.78213  -0.65074
 Alpha  occ. eigenvalues --   -0.65034  -0.61009  -0.60894  -0.59447  -0.59210
 Alpha  occ. eigenvalues --   -0.57677  -0.57475  -0.55343  -0.55171  -0.52699
 Alpha  occ. eigenvalues --   -0.52617  -0.52419  -0.52366  -0.49984  -0.49832
 Alpha  occ. eigenvalues --   -0.47960  -0.47853  -0.46651  -0.46570  -0.45793
 Alpha  occ. eigenvalues --   -0.45757  -0.45715  -0.45676  -0.43786  -0.43715
 Alpha virt. eigenvalues --    0.21434   0.23039   0.23561   0.25170   0.26367
 Alpha virt. eigenvalues --    0.26517   0.26986   0.27604   0.27670   0.29083
 Alpha virt. eigenvalues --    0.30137   0.30789   0.31477   0.31937   0.32294

 Mulliken charges:
               1
     1  C   -0.297821
     2  C   -0.305355
     3  C   -0.476028
     4  H    0.150095
     5  H    0.149314
     6  H    0.156427
     7  H    0.151746
     8  H    0.154944
     9  H    0.156681
    10  H    0.159643
    11  C   -0.298470
    12  C   -0.299655
    13  C   -0.475698
    14  H    0.149844
    15  H    0.149463
    16  H    0.152033
    17  H    0.151828
    18  H    0.155099
    19  H    0.155184
    20  H    0.160168
    21  C   -0.298627
    22  C   -0.299127
    23  C   -0.482943
    24  H    0.149657
    25  H    0.149428
    26  H    0.152255
    27  H    0.151839
    28  H    0.154438
    29  H    0.155113
    30  H    0.168361
    31  C   -0.298245
    32  C   -0.299632
    33  C   -0.475707
    34  H    0.149604
    35  H    0.149637
    36  H    0.151956
    37  H    0.151895
    38  H    0.155178
    39  H    0.155218
    40  H    0.160260
 Sum of Mulliken charges =  -0.00000

 Dipole moment (field-independent basis, Debye):
    X=             -0.0087    Y=              0.0001    Z=              0.0023  Tot=              0.0090
 Quadrupole moment (field-independent basis, Debye-Ang):
   XX=            -85.9590   YY=            -84.3981   ZZ=            -84.5110
   XY=              1.1792   XZ=             -0.2286   YZ=              0.0405

 Normal termination of Gaussian 16 at Thu May  6 03:59:05 2021.
