 Gaussian 16, Revision A.03,
 Gaussian 16:  EM64L-G16RevA.03 25-Dec-2016

 -------------
 #p 6-31g* mp2
 -------------

 ------------------------------------------------------
 Input file generated by CHIRIPA (05-May-2021 14:57:24)
 ------------------------------------------------------
 Symbolic Z-matrix:
 Charge =  0 Multiplicity = 1

                         Standard orientation:
 ---------------------------------------------------------------------
 Center     Atomic      Atomic             Coordinates (Angstroms)
 Number     Number       Type             X           Y           Z
 ---------------------------------------------------------------------
      1          6           0       -2.039512    1.767206    1.188071
      2          6           0       -2.922931    0.979948    1.933937
      3          6           0       -3.708761    0.007524    1.308310
      4          6           0       -3.585214   -0.151551   -0.071081
      5          6           0       -2.714234    0.617201   -0.841602
      6          6           0       -1.938162    1.583644   -0.194881
      7          1           0       -1.432850    2.520285    1.682266
      8          1           0       -3.003728    1.120303    3.008096
      9          1           0       -4.400784   -0.615721    1.861563
     10          1           0       -2.655686    0.454081   -1.910893
     11          1           0       -1.252937    2.193595   -0.776664
     12          7           0       -4.411972   -1.177847   -0.744570
     13          8           0       -4.284558   -1.298399   -1.961069
     14          8           0       -5.171745   -1.842273   -0.043200
     15          6           0        2.130340    2.053956   -0.619446
     16          6           0        1.726098    1.241943    0.445328
     17          6           0        2.449092    0.091776    0.775393
     18          6           0        3.576433   -0.217865    0.016109
     19          6           0        4.004508    0.571048   -1.050502
     20          6           0        3.266251    1.716513   -1.362652
     21          1           0        1.562773    2.945607   -0.868890
     22          1           0        0.844339    1.501549    1.024251
     23          1           0        2.158480   -0.554608    1.594631
     24          1           0        4.887771    0.286372   -1.609271
     25          1           0        3.582533    2.345272   -2.190101
     26          7           0        4.349914   -1.433005    0.356051
     27          8           0        5.339486   -1.683943   -0.328356
     28          8           0        3.951948   -2.111487    1.300468
 ---------------------------------------------------------------------

 SCF Done:  E(RHF) =  -868.335492580     A.U. after   16 cycles
 E2 =    -0.2601869171D+01 EUMP2 =    -0.87093736175136D+03

 The electronic state is 1-A.
 Alpha  occ. eigenvalues --  -20.61291 -20.61285 -20.61138 -20.61133 -15.86350
 Alpha  occ. eigenvalues --  -15.86195 -11.31939 -11.31709 -11.28516 -11.28478
 Alpha  occ. eigenvalues --  -11.28403 -11.28278 -11.28259 -11.28161 -11.27697
 Alpha  occ. eigenvalues --  -11.27596 -11.27372 -11.27354  -1.60359  -1.60209
 Alpha  occ. eigenvalues --   -1.39906  -1.39758  -1.20144  -1.19900  -1.09547
 Alpha  occ. eigenvalues --   -1.09292  -1.05569  -1.05312  -0.96326  -0.96103
 Alpha  occ. eigenvalues --   -0.87028  -0.86691  -0.83145  -0.82913  -0.78128
 Alpha  occ. eigenvalues --   -0.77919  -0.72569  -0.72414  -0.71682  -0.71531
 Alpha  occ. eigenvalues --   -0.71338  -0.71075  -0.65882  -0.65717  -0.65539
 Alpha  occ. eigenvalues --   -0.65200  -0.62915  -0.62632  -0.56214  -0.55878
 Alpha  occ. eigenvalues --   -0.54034  -0.53736  -0.53549  -0.53282  -0.49344
 Alpha  occ. eigenvalues --   -0.49305  -0.49184  -0.49157  -0.45262  -0.45130
 Alpha  occ. eigenvalues --   -0.38261  -0.37899  -0.37212  -0.36761
 Alpha virt. eigenvalues --    0.04344   0.04590   0.10088   0.11057   0.15622
 Alpha virt. eigenvalues --    0.15953   0.18560   0.22146   0.24991   0.25729
 Alpha virt. eigenvalues --    0.27877   0.28836   0.30021   0.31442   0.32712

 Mulliken charges:
               1
     1  C   -0.180998
     2  C   -0.218290
     3  C   -0.169883
     4  C    0.160339
     5  C   -0.169904
     6  C   -0.214242
     7  H    0.220995
     8  H    0.226561
     9  H    0.279025
    10  H    0.278439
    11  H    0.218923
    12  N    0.487951
    13  O   -0.458034
    14  O   -0.457547
    15  C   -0.177332
    16  C   -0.216319
    17  C   -0.172410
    18  C    0.159942
    19  C   -0.170505
    20  C   -0.217296
    21  H    0.218468
    22  H    0.221297
    23  H    0.277513
    24  H    0.277730
    25  H    0.224959
    26  N    0.487987
    27  O   -0.458615
    28  O   -0.458753
 Sum of Mulliken charges =  -0.00000

 Dipole moment (field-independent basis, Debye):
    X=              0.0673    Y=              7.6161    Z=              1.1366  Tot=              7.7007
 Quadrupole moment (field-independent basis, Debye-Ang):
   XX=           -141.8339   YY=           -109.0961   ZZ=            -98.8232
   XY=              3.8906   XZ=            -18.0572   YZ=             -2.5048

 Normal termination of Gaussian 16 at Thu May  6 14:39:14 2021.
