 Gaussian 16, Revision A.03,
 Gaussian 16:  EM64L-G16RevA.03 25-Dec-2016

 -------------
 #p 6-31g* mp2
 -------------

 ------------------------------------------------------
 Input file generated by CHIRIPA (05-May-2021 14:57:27)
 ------------------------------------------------------
 Symbolic Z-matrix:
 Charge =  0 Multiplicity = 1

                         Standard orientation:
 ---------------------------------------------------------------------
 Center     Atomic      Atomic             Coordinates (Angstroms)
 Number     Number       Type             X           Y           Z
 ---------------------------------------------------------------------
      1          6           0        2.075138    2.138042    0.323877
      2          6           0        1.611721    0.863820   -0.019813
      3          6           0        2.511124   -0.184731   -0.234672
      4          6           0        3.873298    0.077460   -0.096730
      5          6           0        4.365961    1.336057    0.244599
      6          6           0        3.448358    2.369686    0.454755
      7          1           0        1.369391    2.946785    0.488958
      8          1           0        0.545815    0.681018   -0.122153
      9          1           0        2.179670   -1.180846   -0.501714
     10          1           0        5.434355    1.487683    0.339263
     11          1           0        3.811117    3.358251    0.721568
     12          7           0        4.835089   -1.024695   -0.321702
     13          8           0        6.030230   -0.767871   -0.193968
     14          8           0        4.375588   -2.124518   -0.621510
     15          6           0       -5.005662    1.828981   -0.522963
     16          6           0       -3.681745    1.924702   -0.081826
     17          6           0       -2.956918    0.774413    0.243760
     18          6           0       -3.589985   -0.460977    0.115977
     19          6           0       -4.907613   -0.589043   -0.320770
     20          6           0       -5.613300    0.574625   -0.640818
     21          1           0       -5.561291    2.727750   -0.773735
     22          1           0       -3.207287    2.897523    0.010660
     23          1           0       -1.930727    0.819666    0.587715
     24          1           0       -5.353616   -1.572790   -0.402868
     25          1           0       -6.641340    0.497263   -0.983154
     26          7           0       -2.832775   -1.685818    0.457730
     27          8           0       -3.413271   -2.762385    0.336627
     28          8           0       -1.673116   -1.546090    0.840227
 ---------------------------------------------------------------------

 SCF Done:  E(RHF) =  -868.337500502     A.U. after   16 cycles
 E2 =    -0.2599723432D+01 EUMP2 =    -0.87093722393456D+03

 The electronic state is 1-A.
 Alpha  occ. eigenvalues --  -20.61572 -20.61518 -20.60403 -20.60383 -15.86593
 Alpha  occ. eigenvalues --  -15.85450 -11.31979 -11.30854 -11.28645 -11.28470
 Alpha  occ. eigenvalues --  -11.28229 -11.27596 -11.27483 -11.27473 -11.27358
 Alpha  occ. eigenvalues --  -11.27303 -11.26538 -11.26471  -1.60609  -1.59471
 Alpha  occ. eigenvalues --   -1.40169  -1.39021  -1.20135  -1.19051  -1.09514
 Alpha  occ. eigenvalues --   -1.08470  -1.05551  -1.04445  -0.96356  -0.95285
 Alpha  occ. eigenvalues --   -0.86946  -0.85871  -0.83195  -0.82098  -0.78263
 Alpha  occ. eigenvalues --   -0.77113  -0.72809  -0.71926  -0.71670  -0.71245
 Alpha  occ. eigenvalues --   -0.70793  -0.70213  -0.65790  -0.65571  -0.64713
 Alpha  occ. eigenvalues --   -0.64482  -0.62919  -0.61761  -0.56018  -0.55047
 Alpha  occ. eigenvalues --   -0.53856  -0.53659  -0.52793  -0.52529  -0.49574
 Alpha  occ. eigenvalues --   -0.49550  -0.48438  -0.48414  -0.45567  -0.44416
 Alpha  occ. eigenvalues --   -0.38084  -0.37148  -0.37088  -0.36034
 Alpha virt. eigenvalues --    0.04265   0.05405   0.10462   0.11575   0.15801
 Alpha virt. eigenvalues --    0.16855   0.19097   0.21959   0.25102   0.26977
 Alpha virt. eigenvalues --    0.28385   0.29069   0.30044   0.31001   0.32277

 Mulliken charges:
               1
     1  C   -0.172028
     2  C   -0.222686
     3  C   -0.170165
     4  C    0.158354
     5  C   -0.171329
     6  C   -0.218511
     7  H    0.217225
     8  H    0.229070
     9  H    0.284316
    10  H    0.274780
    11  H    0.221228
    12  N    0.487825
    13  O   -0.462329
    14  O   -0.457369
    15  C   -0.170131
    16  C   -0.218502
    17  C   -0.175936
    18  C    0.158872
    19  C   -0.169555
    20  C   -0.217762
    21  H    0.228038
    22  H    0.221679
    23  H    0.272700
    24  H    0.278375
    25  H    0.226617
    26  N    0.488728
    27  O   -0.454034
    28  O   -0.467469
 Sum of Mulliken charges =  -0.00000

 Dipole moment (field-independent basis, Debye):
    X=             -6.3741    Y=              7.9582    Z=             -0.4745  Tot=             10.2072
 Quadrupole moment (field-independent basis, Debye-Ang):
   XX=           -104.9028   YY=           -105.5295   ZZ=           -106.5005
   XY=              5.4478   XZ=              9.5780   YZ=              2.1392

 Normal termination of Gaussian 16 at Fri May  7 03:35:12 2021.
