 Gaussian 16, Revision A.03,
 Gaussian 16:  EM64L-G16RevA.03 25-Dec-2016

 -------------
 #p 6-31g* mp2
 -------------

 ------------------------------------------------------
 Input file generated by CHIRIPA (05-May-2021 14:51:12)
 ------------------------------------------------------
 Symbolic Z-matrix:
 Charge =  0 Multiplicity = 1

                         Standard orientation:
 ---------------------------------------------------------------------
 Center     Atomic      Atomic             Coordinates (Angstroms)
 Number     Number       Type             X           Y           Z
 ---------------------------------------------------------------------
      1          6           0       -3.028871   -0.316205    0.057565
      2          6           0       -2.176677   -1.393897    0.728630
      3          6           0       -0.681599   -1.076428    0.686809
      4          1           0       -2.706340   -0.199838   -0.986167
      5          1           0       -2.843852    0.647879    0.551229
      6          1           0       -2.364287   -2.355924    0.234745
      7          1           0       -2.501402   -1.507847    1.770832
      8          1           0       -0.474296   -0.130138    1.196869
      9          1           0       -0.336402   -0.983033   -0.347946
     10          1           0       -0.091104   -1.859836    1.172039
     11          6           0       -4.525768   -0.619340    0.091310
     12          6           0       -5.377963    0.458352   -0.579755
     13          6           0       -6.873041    0.140883   -0.537934
     14          1           0       -4.710787   -1.583425   -0.402354
     15          1           0       -4.848299   -0.735707    1.135042
     16          1           0       -5.053237    0.572301   -1.621957
     17          1           0       -5.190352    1.420378   -0.085869
     18          1           0       -7.218237    0.047488    0.496821
     19          1           0       -7.080343   -0.805408   -1.047994
     20          1           0       -7.463535    0.924291   -1.023164
     21          6           0        4.056270   -0.208010    0.146775
     22          6           0        5.170625   -0.730408   -0.760584
     23          6           0        5.718480   -2.083238   -0.305064
     24          1           0        4.437455   -0.123880    1.173696
     25          1           0        3.240899   -0.944046    0.175345
     26          1           0        5.983051    0.007020   -0.788530
     27          1           0        4.786798   -0.813122   -1.785499
     28          1           0        4.924294   -2.836738   -0.294610
     29          1           0        6.127343   -2.011936    0.708025
     30          1           0        6.513992   -2.437967   -0.967776
     31          6           0        3.498369    1.143556   -0.295651
     32          6           0        2.384014    1.665953    0.611709
     33          6           0        1.836160    3.018784    0.156188
     34          1           0        4.313740    1.879591   -0.324221
     35          1           0        3.117184    1.059426   -1.322570
     36          1           0        2.767841    1.748668    1.636624
     37          1           0        1.571588    0.928526    0.639655
     38          1           0        1.427296    2.947481   -0.856900
     39          1           0        2.630345    3.772283    0.145734
     40          1           0        1.040647    3.373513    0.818902
 ---------------------------------------------------------------------

 SCF Done:  E(RHF) =  -470.733087551     A.U. after   11 cycles
 E2 =    -0.1582783511D+01 EUMP2 =    -0.47231587106161D+03

 The electronic state is 1-A.
 Alpha  occ. eigenvalues --  -11.21657 -11.21623 -11.21549 -11.21441 -11.21435
 Alpha  occ. eigenvalues --  -11.21380 -11.21322 -11.21262 -11.21153 -11.21088
 Alpha  occ. eigenvalues --  -11.21032 -11.21001  -1.08470  -1.08346  -1.03582
 Alpha  occ. eigenvalues --   -1.03449  -0.96034  -0.95909  -0.87063  -0.86918
 Alpha  occ. eigenvalues --   -0.79698  -0.79473  -0.78295  -0.78140  -0.65102
 Alpha  occ. eigenvalues --   -0.64981  -0.61006  -0.60838  -0.59394  -0.59284
 Alpha  occ. eigenvalues --   -0.57666  -0.57495  -0.55340  -0.55178  -0.52740
 Alpha  occ. eigenvalues --   -0.52607  -0.52489  -0.52317  -0.50012  -0.49824
 Alpha  occ. eigenvalues --   -0.48109  -0.47736  -0.46727  -0.46460  -0.45902
 Alpha  occ. eigenvalues --   -0.45752  -0.45684  -0.45446  -0.43822  -0.43705
 Alpha virt. eigenvalues --    0.21919   0.22932   0.23861   0.24706   0.25710
 Alpha virt. eigenvalues --    0.26455   0.27174   0.27448   0.27919   0.29198
 Alpha virt. eigenvalues --    0.30564   0.31294   0.31737   0.31786   0.32194

 Mulliken charges:
               1
     1  C   -0.298375
     2  C   -0.300092
     3  C   -0.479091
     4  H    0.149584
     5  H    0.149770
     6  H    0.152028
     7  H    0.152314
     8  H    0.158594
     9  H    0.154786
    10  H    0.160999
    11  C   -0.298329
    12  C   -0.299677
    13  C   -0.475735
    14  H    0.149572
    15  H    0.149751
    16  H    0.151968
    17  H    0.152064
    18  H    0.155222
    19  H    0.155193
    20  H    0.160358
    21  C   -0.299176
    22  C   -0.299537
    23  C   -0.475644
    24  H    0.149339
    25  H    0.150766
    26  H    0.151785
    27  H    0.151684
    28  H    0.155086
    29  H    0.155070
    30  H    0.160021
    31  C   -0.297245
    32  C   -0.310535
    33  C   -0.475065
    34  H    0.148946
    35  H    0.148923
    36  H    0.150752
    37  H    0.165118
    38  H    0.154880
    39  H    0.154852
    40  H    0.159080
 Sum of Mulliken charges =  -0.00000

 Dipole moment (field-independent basis, Debye):
    X=             -0.0558    Y=             -0.0288    Z=              0.0132  Tot=              0.0642
 Quadrupole moment (field-independent basis, Debye-Ang):
   XX=            -85.9424   YY=            -85.3991   ZZ=            -83.6807
   XY=              0.6206   XZ=              0.1783   YZ=              0.9034

 Normal termination of Gaussian 16 at Wed May  5 16:48:58 2021.
