 Gaussian 16, Revision A.03,
 Gaussian 16:  EM64L-G16RevA.03 25-Dec-2016

 -------------
 #p 6-31g* mp2
 -------------

 ------------------------------------------------------
 Input file generated by CHIRIPA (05-May-2021 14:55:23)
 ------------------------------------------------------
 Symbolic Z-matrix:
 Charge =  0 Multiplicity = 1

                         Standard orientation:
 ---------------------------------------------------------------------
 Center     Atomic      Atomic             Coordinates (Angstroms)
 Number     Number       Type             X           Y           Z
 ---------------------------------------------------------------------
      1          6           0       -2.793235   -2.339063    0.179952
      2          6           0       -2.919583   -1.568353    1.340367
      3          6           0       -3.000680   -0.174865    1.261870
      4          6           0       -2.952056    0.417569    0.000938
      5          6           0       -2.826634   -0.322984   -1.173430
      6          6           0       -2.747245   -1.715019   -1.071037
      7          1           0       -2.730901   -3.420994    0.250212
      8          1           0       -2.955559   -2.050282    2.313247
      9          1           0       -3.098901    0.445904    2.144149
     10          1           0       -2.793503    0.185998   -2.129075
     11          1           0       -2.649164   -2.311035   -1.973916
     12          7           0       -3.037006    1.892023   -0.094812
     13          8           0       -2.991863    2.389836   -1.217657
     14          8           0       -3.147124    2.521969    0.954798
     15          6           0        3.006450   -0.165820    0.084440
     16          6           0        2.237493   -1.418229   -0.337650
     17          6           0        0.729747   -1.287634   -0.119845
     18          1           0        2.804198    0.041095    1.144264
     19          1           0        2.626801    0.696835   -0.480439
     20          1           0        2.619425   -2.278507    0.226855
     21          1           0        2.441752   -1.622297   -1.396542
     22          1           0        0.328671   -0.447362   -0.695763
     23          1           0        0.507353   -1.107302    0.936858
     24          1           0        0.199564   -2.194092   -0.428228
     25          6           0        4.514973   -0.281056   -0.127241
     26          6           0        5.283929    0.971353    0.294850
     27          6           0        6.791676    0.840758    0.077044
     28          1           0        4.894622   -1.143711    0.437637
     29          1           0        4.717225   -0.487971   -1.187065
     30          1           0        5.079671    1.175420    1.353742
     31          1           0        4.901997    1.831630   -0.269657
     32          1           0        7.014070    0.660425   -0.979660
     33          1           0        7.192752    0.000486    0.652962
     34          1           0        7.321858    1.747216    0.385427
 ---------------------------------------------------------------------

 SCF Done:  E(RHF) =  -669.534114654     A.U. after   15 cycles
 E2 =    -0.2093283187D+01 EUMP2 =    -0.67162739784010D+03

 The electronic state is 1-A.
 Alpha  occ. eigenvalues --  -20.60758 -20.60752 -15.85811 -11.31163 -11.27736
 Alpha  occ. eigenvalues --  -11.27718 -11.27467 -11.26753 -11.26729 -11.21685
 Alpha  occ. eigenvalues --  -11.21564 -11.21419 -11.21359 -11.21111 -11.21045
 Alpha  occ. eigenvalues --   -1.59834  -1.39388  -1.19342  -1.08745  -1.08452
 Alpha  occ. eigenvalues --   -1.04748  -1.03560  -0.96011  -0.95578  -0.87032
 Alpha  occ. eigenvalues --   -0.86150  -0.82411  -0.79631  -0.78263  -0.77457
 Alpha  occ. eigenvalues --   -0.72031  -0.71157  -0.70462  -0.65087  -0.64999
 Alpha  occ. eigenvalues --   -0.64759  -0.62098  -0.60966  -0.59420  -0.57629
 Alpha  occ. eigenvalues --   -0.55311  -0.55256  -0.53605  -0.52846  -0.52508
 Alpha  occ. eigenvalues --   -0.52101  -0.49962  -0.48789  -0.48785  -0.47934
 Alpha  occ. eigenvalues --   -0.46673  -0.45796  -0.45730  -0.44796  -0.43825
 Alpha  occ. eigenvalues --   -0.37233  -0.36279
 Alpha virt. eigenvalues --    0.05057   0.11226   0.16526   0.21303   0.22840
 Alpha virt. eigenvalues --    0.24252   0.26614   0.27201   0.27437   0.27871
 Alpha virt. eigenvalues --    0.28322   0.30885   0.31331   0.31771   0.31927

 Mulliken charges:
               1
     1  C   -0.169297
     2  C   -0.216804
     3  C   -0.171233
     4  C    0.160605
     5  C   -0.171734
     6  C   -0.214401
     7  H    0.225253
     8  H    0.223179
     9  H    0.275379
    10  H    0.275135
    11  H    0.223099
    12  N    0.487831
    13  O   -0.460918
    14  O   -0.460461
    15  C   -0.298811
    16  C   -0.300770
    17  C   -0.471498
    18  H    0.149669
    19  H    0.152248
    20  H    0.149240
    21  H    0.150111
    22  H    0.156834
    23  H    0.154189
    24  H    0.153118
    25  C   -0.298124
    26  C   -0.299891
    27  C   -0.475731
    28  H    0.148326
    29  H    0.149259
    30  H    0.152209
    31  H    0.153677
    32  H    0.155008
    33  H    0.154419
    34  H    0.160885
 Sum of Mulliken charges =  -0.00000

 Dipole moment (field-independent basis, Debye):
    X=              0.2290    Y=             -5.1706    Z=              0.3458  Tot=              5.1872
 Quadrupole moment (field-independent basis, Debye-Ang):
   XX=            -98.7061   YY=            -99.7265   ZZ=            -88.9127
   XY=             15.7910   XZ=             -1.2168   YZ=              0.0964

 Normal termination of Gaussian 16 at Thu May  6 14:18:11 2021.
