 Gaussian 16, Revision A.03,
 Gaussian 16:  EM64L-G16RevA.03 25-Dec-2016

 -------------
 #p 6-31g* mp2
 -------------

 ------------------------------------------------------
 Input file generated by CHIRIPA (05-May-2021 14:55:18)
 ------------------------------------------------------
 Symbolic Z-matrix:
 Charge =  0 Multiplicity = 1

                         Standard orientation:
 ---------------------------------------------------------------------
 Center     Atomic      Atomic             Coordinates (Angstroms)
 Number     Number       Type             X           Y           Z
 ---------------------------------------------------------------------
      1          6           0       -0.833530   -1.697088    0.008047
      2          6           0       -2.123419   -2.213514    0.169328
      3          6           0       -3.234273   -1.364705    0.160648
      4          6           0       -3.017734    0.001478   -0.012398
      5          6           0       -1.745009    0.546309   -0.175557
      6          6           0       -0.648767   -0.321250   -0.163579
      7          1           0        0.023732   -2.363746    0.016071
      8          1           0       -2.269910   -3.281582    0.302804
      9          1           0       -4.243824   -1.737766    0.283326
     10          1           0       -1.630610    1.615493   -0.306614
     11          1           0        0.351828    0.082615   -0.289060
     12          7           0       -4.186010    0.909999   -0.023333
     13          8           0       -3.968534    2.109825   -0.177474
     14          8           0       -5.297060    0.405069    0.122444
     15          6           0        4.005458    0.846070    0.048355
     16          6           0        3.107586    2.083686    0.059203
     17          6           0        3.900846    3.388927    0.129042
     18          1           0        4.632507    0.847900    0.950436
     19          1           0        4.690540    0.906169   -0.808643
     20          1           0        2.423466    2.020598    0.915134
     21          1           0        2.482464    2.078809   -0.842914
     22          1           0        4.571750    3.478501   -0.731460
     23          1           0        4.512418    3.419959    1.036576
     24          1           0        3.239375    4.260863    0.135715
     25          6           0        3.227022   -0.466531   -0.021230
     26          6           0        4.124895   -1.704148   -0.032078
     27          6           0        3.331634   -3.009389   -0.101918
     28          1           0        2.541940   -0.526631    0.835767
     29          1           0        2.599972   -0.468362   -0.923311
     30          1           0        4.750016   -1.699272    0.870038
     31          1           0        4.809013   -1.641060   -0.888009
     32          1           0        2.720062   -3.040420   -1.009451
     33          1           0        2.660730   -3.098962    0.758585
     34          1           0        3.993105   -3.881325   -0.108590
 ---------------------------------------------------------------------

 SCF Done:  E(RHF) =  -669.535348653     A.U. after   15 cycles
 E2 =    -0.2092837095D+01 EUMP2 =    -0.67162818574807D+03

 The electronic state is 1-A.
 Alpha  occ. eigenvalues --  -20.60650 -20.60645 -15.85700 -11.31026 -11.27596
 Alpha  occ. eigenvalues --  -11.27561 -11.27271 -11.26602 -11.26461 -11.22771
 Alpha  occ. eigenvalues --  -11.22704 -11.22600 -11.22398 -11.22367 -11.21778
 Alpha  occ. eigenvalues --   -1.59727  -1.39281  -1.19184  -1.09583  -1.08580
 Alpha  occ. eigenvalues --   -1.04595  -1.04575  -0.97056  -0.95428  -0.88067
 Alpha  occ. eigenvalues --   -0.85985  -0.82263  -0.80690  -0.79472  -0.77301
 Alpha  occ. eigenvalues --   -0.71919  -0.71049  -0.70285  -0.66188  -0.64828
 Alpha  occ. eigenvalues --   -0.64587  -0.61971  -0.61946  -0.60425  -0.58682
 Alpha  occ. eigenvalues --   -0.56340  -0.55080  -0.53708  -0.53478  -0.52918
 Alpha  occ. eigenvalues --   -0.52644  -0.50981  -0.48988  -0.48681  -0.48678
 Alpha  occ. eigenvalues --   -0.47708  -0.46861  -0.46843  -0.44860  -0.44696
 Alpha  occ. eigenvalues --   -0.37161  -0.36183
 Alpha virt. eigenvalues --    0.05200   0.11386   0.16689   0.19797   0.22179
 Alpha virt. eigenvalues --    0.22599   0.24973   0.25616   0.25955   0.28784
 Alpha virt. eigenvalues --    0.29956   0.30354   0.30450   0.31546   0.32112

 Mulliken charges:
               1
     1  C   -0.179935
     2  C   -0.219195
     3  C   -0.171508
     4  C    0.158794
     5  C   -0.173590
     6  C   -0.229174
     7  H    0.232265
     8  H    0.222848
     9  H    0.274812
    10  H    0.275209
    11  H    0.239004
    12  N    0.487993
    13  O   -0.460888
    14  O   -0.461015
    15  C   -0.297093
    16  C   -0.305171
    17  C   -0.476100
    18  H    0.154016
    19  H    0.153501
    20  H    0.152502
    21  H    0.149331
    22  H    0.157567
    23  H    0.157869
    24  H    0.164183
    25  C   -0.310298
    26  C   -0.298136
    27  C   -0.482124
    28  H    0.149842
    29  H    0.146780
    30  H    0.156942
    31  H    0.156848
    32  H    0.153887
    33  H    0.152581
    34  H    0.167452
 Sum of Mulliken charges =  -0.00000

 Dipole moment (field-independent basis, Debye):
    X=              4.5345    Y=             -3.1418    Z=              0.0607  Tot=              5.5169
 Quadrupole moment (field-independent basis, Debye-Ang):
   XX=           -116.9803   YY=            -92.4782   ZZ=            -94.4999
   XY=             12.0926   XZ=             -0.6403   YZ=             -0.6290

 Normal termination of Gaussian 16 at Thu May  6 10:44:59 2021.
