 Gaussian 16, Revision A.03,
 Gaussian 16:  EM64L-G16RevA.03 25-Dec-2016

 -------------
 #p 6-31g* mp2
 -------------

 ------------------------------------------------------
 Input file generated by CHIRIPA (05-May-2021 14:55:18)
 ------------------------------------------------------
 Symbolic Z-matrix:
 Charge =  0 Multiplicity = 1

                         Standard orientation:
 ---------------------------------------------------------------------
 Center     Atomic      Atomic             Coordinates (Angstroms)
 Number     Number       Type             X           Y           Z
 ---------------------------------------------------------------------
      1          6           0        1.980293    1.742747    1.670055
      2          6           0        1.928392    1.910735    0.282393
      3          6           0        2.127676    0.822601   -0.572475
      4          6           0        2.377716   -0.424999   -0.003032
      5          6           0        2.435580   -0.624372    1.375442
      6          6           0        2.233275    0.477960    2.211197
      7          1           0        1.824311    2.593550    2.326713
      8          1           0        1.732109    2.891825   -0.140667
      9          1           0        2.092926    0.924413   -1.650364
     10          1           0        2.633206   -1.614591    1.767650
     11          1           0        2.274151    0.344539    3.288496
     12          7           0        2.590288   -1.584473   -0.897926
     13          8           0        2.808918   -2.673292   -0.371324
     14          8           0        2.534247   -1.382494   -2.109000
     15          6           0       -3.169999   -0.235880    0.332342
     16          6           0       -4.346239   -1.122035   -0.078967
     17          6           0       -4.677019   -2.188035    0.966032
     18          1           0       -2.287528   -0.866522    0.506927
     19          1           0       -3.402520    0.248591    1.290787
     20          1           0       -4.112139   -1.603615   -1.037035
     21          1           0       -5.225962   -0.489190   -0.252779
     22          1           0       -4.936311   -1.722566    1.922436
     23          1           0       -3.816159   -2.843322    1.133724
     24          1           0       -5.520818   -2.810174    0.651700
     25          6           0       -2.827267    0.834674   -0.702152
     26          6           0       -1.651026    1.720828   -0.290843
     27          6           0       -1.320247    2.786828   -1.335842
     28          1           0       -2.594745    0.350201   -1.660596
     29          1           0       -3.709737    1.465316   -0.876737
     30          1           0       -0.771303    1.087983   -0.117031
     31          1           0       -1.885126    2.202408    0.667225
     32          1           0       -2.181106    3.442116   -1.503533
     33          1           0       -1.060955    2.321359   -2.292246
     34          1           0       -0.476447    3.408967   -1.021510
 ---------------------------------------------------------------------

 SCF Done:  E(RHF) =  -669.533914656     A.U. after   15 cycles
 E2 =    -0.2093992128D+01 EUMP2 =    -0.67162790678377D+03

 The electronic state is 1-A.
 Alpha  occ. eigenvalues --  -20.60837 -20.60831 -15.85889 -11.31269 -11.27810
 Alpha  occ. eigenvalues --  -11.27784 -11.27527 -11.26835 -11.26784 -11.21792
 Alpha  occ. eigenvalues --  -11.21647 -11.21619 -11.21527 -11.21453 -11.21069
 Alpha  occ. eigenvalues --   -1.59913  -1.39465  -1.19435  -1.08825  -1.08571
 Alpha  occ. eigenvalues --   -1.04845  -1.03717  -0.96205  -0.95652  -0.87224
 Alpha  occ. eigenvalues --   -0.86221  -0.82484  -0.79788  -0.78373  -0.77537
 Alpha  occ. eigenvalues --   -0.72105  -0.71239  -0.70517  -0.65226  -0.65060
 Alpha  occ. eigenvalues --   -0.64859  -0.62221  -0.61134  -0.59605  -0.57825
 Alpha  occ. eigenvalues --   -0.55498  -0.55309  -0.53209  -0.53132  -0.52763
 Alpha  occ. eigenvalues --   -0.52502  -0.50116  -0.48866  -0.48861  -0.48084
 Alpha  occ. eigenvalues --   -0.46779  -0.45910  -0.45814  -0.44866  -0.43975
 Alpha  occ. eigenvalues --   -0.37399  -0.36326
 Alpha virt. eigenvalues --    0.04982   0.11136   0.16438   0.20415   0.22904
 Alpha virt. eigenvalues --    0.24133   0.26204   0.26461   0.27209   0.28095
 Alpha virt. eigenvalues --    0.29102   0.29503   0.31249   0.31794   0.32107

 Mulliken charges:
               1
     1  C   -0.170501
     2  C   -0.215270
     3  C   -0.175147
     4  C    0.159886
     5  C   -0.171834
     6  C   -0.217755
     7  H    0.225974
     8  H    0.226409
     9  H    0.276318
    10  H    0.275755
    11  H    0.223857
    12  N    0.487988
    13  O   -0.460185
    14  O   -0.460370
    15  C   -0.298273
    16  C   -0.300034
    17  C   -0.476031
    18  H    0.151216
    19  H    0.147254
    20  H    0.154612
    21  H    0.151328
    22  H    0.153578
    23  H    0.156749
    24  H    0.161070
    25  C   -0.298585
    26  C   -0.305130
    27  C   -0.477320
    28  H    0.152623
    29  H    0.148721
    30  H    0.162707
    31  H    0.147204
    32  H    0.158512
    33  H    0.157620
    34  H    0.147054
 Sum of Mulliken charges =  -0.00000

 Dipole moment (field-independent basis, Debye):
    X=             -0.7288    Y=              4.0004    Z=              3.1607  Tot=              5.1502
 Quadrupole moment (field-independent basis, Debye-Ang):
   XX=            -98.7984   YY=            -97.4639   ZZ=            -92.0155
   XY=              9.1627   XZ=              8.2601   YZ=             -3.1022

 Normal termination of Gaussian 16 at Thu May  6 07:38:08 2021.
