 Gaussian 16, Revision A.03,
 Gaussian 16:  EM64L-G16RevA.03 25-Dec-2016

 -------------
 #p 6-31g* mp2
 -------------

 ------------------------------------------------------
 Input file generated by CHIRIPA (05-May-2021 14:55:21)
 ------------------------------------------------------
 Symbolic Z-matrix:
 Charge =  0 Multiplicity = 1

                         Standard orientation:
 ---------------------------------------------------------------------
 Center     Atomic      Atomic             Coordinates (Angstroms)
 Number     Number       Type             X           Y           Z
 ---------------------------------------------------------------------
      1          6           0       -5.746868    0.422471    0.048937
      2          6           0       -5.310422   -0.788873    0.595457
      3          6           0       -3.971585   -1.176068    0.485261
      4          6           0       -3.092355   -0.323832   -0.181027
      5          6           0       -3.496731    0.889282   -0.736115
      6          6           0       -4.840228    1.256212   -0.613935
      7          1           0       -6.788718    0.715382    0.139194
      8          1           0       -6.012303   -1.438361    1.110794
      9          1           0       -3.606821   -2.108358    0.899026
     10          1           0       -2.773595    1.515715   -1.244125
     11          1           0       -5.176360    2.197533   -1.039348
     12          7           0       -1.672522   -0.723012   -0.304029
     13          8           0       -0.917731    0.045546   -0.895845
     14          8           0       -1.341332   -1.796888    0.193707
     15          6           0        4.797667    0.183221   -0.314121
     16          6           0        6.037825   -0.490939    0.273674
     17          6           0        7.109010   -0.778772   -0.778709
     18          1           0        4.377672   -0.458185   -1.100979
     19          1           0        5.095484    1.121792   -0.801751
     20          1           0        5.737559   -1.427274    0.761252
     21          1           0        6.454805    0.152059    1.059356
     22          1           0        7.436911    0.149103   -1.258431
     23          1           0        6.715589   -1.439203   -1.558229
     24          1           0        7.986668   -1.260762   -0.336825
     25          6           0        3.717816    0.477369    0.725652
     26          6           0        2.477658    1.151529    0.137859
     27          6           0        1.406474    1.439361    1.190241
     28          1           0        3.420000   -0.461202    1.213283
     29          1           0        4.137811    1.118776    1.512511
     30          1           0        2.060678    0.508531   -0.647825
     31          1           0        2.777925    2.087864   -0.349720
     32          1           0        1.799894    2.099794    1.969760
     33          1           0        1.078573    0.511488    1.669962
     34          1           0        0.528816    1.921352    0.748357
 ---------------------------------------------------------------------

 SCF Done:  E(RHF) =  -669.536211191     A.U. after   15 cycles
 E2 =    -0.2091794400D+01 EUMP2 =    -0.67162800559062D+03

 The electronic state is 1-A.
 Alpha  occ. eigenvalues --  -20.61017 -20.60987 -15.86012 -11.31317 -11.27877
 Alpha  occ. eigenvalues --  -11.27873 -11.27609 -11.26879 -11.26869 -11.20776
 Alpha  occ. eigenvalues --  -11.20381 -11.20368 -11.20154 -11.20010 -11.19579
 Alpha  occ. eigenvalues --   -1.60049  -1.39609  -1.19482  -1.08891  -1.07296
 Alpha  occ. eigenvalues --   -1.04875  -1.02363  -0.95741  -0.94849  -0.86277
 Alpha  occ. eigenvalues --   -0.85888  -0.82573  -0.78478  -0.77630  -0.77067
 Alpha  occ. eigenvalues --   -0.72250  -0.71360  -0.70592  -0.65141  -0.64880
 Alpha  occ. eigenvalues --   -0.63920  -0.62224  -0.59746  -0.58257  -0.56437
 Alpha  occ. eigenvalues --   -0.55382  -0.54155  -0.53203  -0.52967  -0.51574
 Alpha  occ. eigenvalues --   -0.51288  -0.49015  -0.49001  -0.48792  -0.46794
 Alpha  occ. eigenvalues --   -0.45506  -0.44975  -0.44624  -0.44475  -0.42626
 Alpha  occ. eigenvalues --   -0.37457  -0.36474
 Alpha virt. eigenvalues --    0.04879   0.11178   0.16359   0.21284   0.23961
 Alpha virt. eigenvalues --    0.25466   0.27202   0.27737   0.28074   0.28647
 Alpha virt. eigenvalues --    0.29099   0.30865   0.32026   0.32490   0.32801

 Mulliken charges:
               1
     1  C   -0.170508
     2  C   -0.218551
     3  C   -0.170599
     4  C    0.158473
     5  C   -0.170839
     6  C   -0.218487
     7  H    0.226095
     8  H    0.223902
     9  H    0.275839
    10  H    0.275646
    11  H    0.223941
    12  N    0.489678
    13  O   -0.458649
    14  O   -0.459746
    15  C   -0.297824
    16  C   -0.298877
    17  C   -0.475135
    18  H    0.151879
    19  H    0.146355
    20  H    0.151963
    21  H    0.149568
    22  H    0.153504
    23  H    0.155164
    24  H    0.157606
    25  C   -0.298381
    26  C   -0.302273
    27  C   -0.470838
    28  H    0.151491
    29  H    0.143775
    30  H    0.172883
    31  H    0.142933
    32  H    0.142820
    33  H    0.157386
    34  H    0.159808
 Sum of Mulliken charges =  -0.00000

 Dipole moment (field-independent basis, Debye):
    X=             -5.3699    Y=              1.2606    Z=              0.3071  Tot=              5.5244
 Quadrupole moment (field-independent basis, Debye-Ang):
   XX=            -66.0073   YY=            -91.9209   ZZ=            -94.9939
   XY=             -1.6201   XZ=             -0.6945   YZ=             -3.1630

 Normal termination of Gaussian 16 at Thu May  6 02:59:47 2021.
