 Gaussian 16, Revision A.03,
 Gaussian 16:  EM64L-G16RevA.03 25-Dec-2016

 -------------
 #p 6-31g* mp2
 -------------

 ------------------------------------------------------
 Input file generated by CHIRIPA (05-May-2021 14:53:12)
 ------------------------------------------------------
 Symbolic Z-matrix:
 Charge =  0 Multiplicity = 1

                         Standard orientation:
 ---------------------------------------------------------------------
 Center     Atomic      Atomic             Coordinates (Angstroms)
 Number     Number       Type             X           Y           Z
 ---------------------------------------------------------------------
      1          6           0       -2.906548   -0.217169    0.881158
      2          6           0       -1.567541   -0.794369    0.420849
      3          6           0       -0.497824   -0.749303    1.512393
      4          1           0       -2.758016    0.821021    1.208334
      5          1           0       -3.255443   -0.775295    1.761023
      6          1           0       -1.221949   -0.236215   -0.458723
      7          1           0       -1.719313   -1.831244    0.094550
      8          1           0       -0.817477   -1.322117    2.388925
      9          1           0       -0.317286    0.281975    1.832508
     10          1           0        0.451231   -1.166813    1.161908
     11          6           0       -3.986095   -0.255239   -0.199054
     12          6           0       -5.325102    0.321961    0.261254
     13          6           0       -6.394819    0.276894   -0.830290
     14          1           0       -3.637199    0.302886   -1.078920
     15          1           0       -4.134627   -1.293429   -0.526231
     16          1           0       -5.173329    1.358836    0.587553
     17          1           0       -5.670694   -0.236193    1.140826
     18          1           0       -6.575357   -0.754383   -1.150405
     19          1           0       -6.075166    0.849708   -1.706821
     20          1           0       -7.343874    0.694404   -0.479805
     21          6           0        3.063943   -2.303813   -0.456272
     22          6           0        2.116389   -1.673472   -1.269498
     23          6           0        1.902177   -0.295311   -1.172899
     24          6           0        2.656523    0.425098   -0.248095
     25          6           0        3.607879   -0.174074    0.576043
     26          6           0        3.805356   -1.553424    0.462282
     27          1           0        3.223847   -3.374864   -0.537979
     28          1           0        1.539150   -2.253716   -1.983750
     29          1           0        1.175041    0.218135   -1.790204
     30          1           0        4.168042    0.430871    1.278665
     31          1           0        4.541912   -2.040287    1.095130
     32          7           0        2.438604    1.884727   -0.136746
     33          8           0        3.116066    2.497011    0.685926
     34          8           0        1.594463    2.388859   -0.874250
 ---------------------------------------------------------------------

 SCF Done:  E(RHF) =  -669.534572034     A.U. after   15 cycles
 E2 =    -0.2094072873D+01 EUMP2 =    -0.67162864490729D+03

 The electronic state is 1-A.
 Alpha  occ. eigenvalues --  -20.60812 -20.60806 -15.85864 -11.31212 -11.27821
 Alpha  occ. eigenvalues --  -11.27781 -11.27586 -11.26854 -11.26811 -11.21658
 Alpha  occ. eigenvalues --  -11.21516 -11.21345 -11.21280 -11.21003 -11.20897
 Alpha  occ. eigenvalues --   -1.59885  -1.39439  -1.19437  -1.08818  -1.08379
 Alpha  occ. eigenvalues --   -1.04839  -1.03476  -0.95923  -0.95639  -0.86933
 Alpha  occ. eigenvalues --   -0.86223  -0.82478  -0.79564  -0.78207  -0.77515
 Alpha  occ. eigenvalues --   -0.72085  -0.71211  -0.70538  -0.65075  -0.65021
 Alpha  occ. eigenvalues --   -0.64812  -0.62181  -0.60876  -0.59389  -0.57627
 Alpha  occ. eigenvalues --   -0.55342  -0.55204  -0.53579  -0.52916  -0.52450
 Alpha  occ. eigenvalues --   -0.51890  -0.49848  -0.48842  -0.48838  -0.47854
 Alpha  occ. eigenvalues --   -0.46595  -0.45742  -0.45661  -0.44842  -0.43703
 Alpha  occ. eigenvalues --   -0.37409  -0.36391
 Alpha virt. eigenvalues --    0.04992   0.11157   0.16470   0.21037   0.22952
 Alpha virt. eigenvalues --    0.24307   0.25956   0.26928   0.27808   0.28044
 Alpha virt. eigenvalues --    0.28623   0.30423   0.31488   0.31779   0.32072

 Mulliken charges:
               1
     1  C   -0.298309
     2  C   -0.299481
     3  C   -0.484075
     4  H    0.155072
     5  H    0.148855
     6  H    0.149180
     7  H    0.146244
     8  H    0.152940
     9  H    0.158548
    10  H    0.166835
    11  C   -0.298536
    12  C   -0.299874
    13  C   -0.475792
    14  H    0.150465
    15  H    0.146823
    16  H    0.154365
    17  H    0.151336
    18  H    0.153774
    19  H    0.155840
    20  H    0.160544
    21  C   -0.171353
    22  C   -0.218850
    23  C   -0.170727
    24  C    0.162157
    25  C   -0.171123
    26  C   -0.218149
    27  H    0.226259
    28  H    0.224532
    29  H    0.275688
    30  H    0.276074
    31  H    0.224084
    32  N    0.488154
    33  O   -0.460289
    34  O   -0.461213
 Sum of Mulliken charges =  -0.00000

 Dipole moment (field-independent basis, Debye):
    X=              0.8603    Y=             -5.0868    Z=             -0.3888  Tot=              5.1736
 Quadrupole moment (field-independent basis, Debye-Ang):
   XX=            -89.2178   YY=            -98.9685   ZZ=            -92.8515
   XY=            -13.3500   XZ=              0.9553   YZ=              1.1718

 Normal termination of Gaussian 16 at Wed May  5 16:59:38 2021.
