 Gaussian 16, Revision A.03,
 Gaussian 16:  EM64L-G16RevA.03 25-Dec-2016

 -------------
 #p 6-31g* mp2
 -------------

 ------------------------------------------------------
 Input file generated by CHIRIPA (05-May-2021 14:57:26)
 ------------------------------------------------------
 Symbolic Z-matrix:
 Charge =  0 Multiplicity = 1

                         Standard orientation:
 ---------------------------------------------------------------------
 Center     Atomic      Atomic             Coordinates (Angstroms)
 Number     Number       Type             X           Y           Z
 ---------------------------------------------------------------------
      1          6           0       -1.823020    1.657175    1.467832
      2          6           0       -2.880780    2.093299    0.663182
      3          6           0       -3.687175    1.171288   -0.010739
      4          6           0       -3.406192   -0.185417    0.143178
      5          6           0       -2.359657   -0.651125    0.937640
      6          6           0       -1.566287    0.288768    1.602256
      7          1           0       -1.201652    2.380361    1.987736
      8          1           0       -3.082492    3.155405    0.556938
      9          1           0       -4.512531    1.481402   -0.640052
     10          1           0       -2.183133   -1.716389    1.024071
     11          1           0       -0.745496   -0.052816    2.226489
     12          7           0       -4.252992   -1.170974   -0.565346
     13          8           0       -3.984717   -2.360742   -0.413299
     14          8           0       -5.168954   -0.735025   -1.259319
     15          6           0        1.475954    1.649159   -0.977561
     16          6           0        1.132198    0.339644   -0.626103
     17          6           0        2.116056   -0.569900   -0.226977
     18          6           0        3.439745   -0.134227   -0.190576
     19          6           0        3.813831    1.163813   -0.534727
     20          6           0        2.813315    2.056347   -0.930833
     21          1           0        0.705199    2.349108   -1.286440
     22          1           0        0.094395    0.020644   -0.661453
     23          1           0        1.877809   -1.589561    0.050418
     24          1           0        4.856898    1.452590   -0.489591
     25          1           0        3.083202    3.072718   -1.203224
     26          7           0        4.490129   -1.088116    0.230363
     27          8           0        5.649096   -0.679618    0.254077
     28          8           0        4.134563   -2.226210    0.528611
 ---------------------------------------------------------------------

 SCF Done:  E(RHF) =  -868.336557223     A.U. after   16 cycles
 E2 =    -0.2602500362D+01 EUMP2 =    -0.87093905758567D+03

 The electronic state is 1-A.
 Alpha  occ. eigenvalues --  -20.61546 -20.61539 -20.61109 -20.61104 -15.86605
 Alpha  occ. eigenvalues --  -15.86161 -11.32195 -11.31587 -11.28715 -11.28699
 Alpha  occ. eigenvalues --  -11.28437 -11.28118 -11.28104 -11.27842 -11.27788
 Alpha  occ. eigenvalues --  -11.27727 -11.27183 -11.27007  -1.60619  -1.60184
 Alpha  occ. eigenvalues --   -1.40164  -1.39736  -1.20372  -1.19738  -1.09705
 Alpha  occ. eigenvalues --   -1.09119  -1.05793  -1.05128  -0.96498  -0.95953
 Alpha  occ. eigenvalues --   -0.87142  -0.86520  -0.83323  -0.82771  -0.78347
 Alpha  occ. eigenvalues --   -0.77821  -0.72807  -0.72375  -0.71954  -0.71511
 Alpha  occ. eigenvalues --   -0.71389  -0.70840  -0.65976  -0.65725  -0.65373
 Alpha  occ. eigenvalues --   -0.65149  -0.63083  -0.62501  -0.56198  -0.55644
 Alpha  occ. eigenvalues --   -0.54349  -0.53823  -0.53446  -0.52968  -0.49586
 Alpha  occ. eigenvalues --   -0.49557  -0.49136  -0.49130  -0.45521  -0.45128
 Alpha  occ. eigenvalues --   -0.38539  -0.37710  -0.37444  -0.36491
 Alpha virt. eigenvalues --    0.04088   0.04716   0.09884   0.11216   0.15427
 Alpha virt. eigenvalues --    0.16359   0.20369   0.21329   0.26054   0.27182
 Alpha virt. eigenvalues --    0.27441   0.28252   0.30162   0.30816   0.31714

 Mulliken charges:
               1
     1  C   -0.173213
     2  C   -0.221624
     3  C   -0.172002
     4  C    0.160730
     5  C   -0.183371
     6  C   -0.221564
     7  H    0.229835
     8  H    0.225826
     9  H    0.278493
    10  H    0.279003
    11  H    0.230842
    12  N    0.487872
    13  O   -0.457459
    14  O   -0.457625
    15  C   -0.176686
    16  C   -0.220258
    17  C   -0.178763
    18  C    0.159779
    19  C   -0.172142
    20  C   -0.218362
    21  H    0.224634
    22  H    0.233522
    23  H    0.274395
    24  H    0.276229
    25  H    0.223329
    26  N    0.487875
    27  O   -0.459404
    28  O   -0.459893
 Sum of Mulliken charges =  -0.00000

 Dipole moment (field-independent basis, Debye):
    X=             -0.9128    Y=              6.8337    Z=              1.0695  Tot=              6.9768
 Quadrupole moment (field-independent basis, Debye-Ang):
   XX=           -147.0045   YY=           -102.1888   ZZ=           -103.9591
   XY=              0.1613   XZ=            -11.8881   YZ=             -2.5206

 Normal termination of Gaussian 16 at Fri May  7 12:43:08 2021.
