 Gaussian 16, Revision A.03,
 Gaussian 16:  EM64L-G16RevA.03 25-Dec-2016

 -------------
 #p 6-31g* mp2
 -------------

 ------------------------------------------------------
 Input file generated by CHIRIPA (05-May-2021 14:53:12)
 ------------------------------------------------------
 Symbolic Z-matrix:
 Charge =  0 Multiplicity = 1

                         Standard orientation:
 ---------------------------------------------------------------------
 Center     Atomic      Atomic             Coordinates (Angstroms)
 Number     Number       Type             X           Y           Z
 ---------------------------------------------------------------------
      1          6           0       -3.460486   -0.470144   -0.048083
      2          6           0       -4.320072   -1.419171    0.787648
      3          6           0       -3.935288   -2.886795    0.598400
      4          1           0       -3.552028   -0.740835   -1.108880
      5          1           0       -2.404296   -0.610807    0.220377
      6          1           0       -5.374449   -1.275778    0.518678
      7          1           0       -4.226624   -1.146068    1.846561
      8          1           0       -2.891692   -3.051534    0.885400
      9          1           0       -4.046038   -3.181981   -0.450028
     10          1           0       -4.562332   -3.547661    1.204973
     11          6           0       -3.833120    1.000580    0.130360
     12          6           0       -2.973534    1.949607   -0.705371
     13          6           0       -3.358318    3.417231   -0.516123
     14          1           0       -4.889310    1.141243   -0.138100
     15          1           0       -3.741578    1.271271    1.191157
     16          1           0       -3.066982    1.676504   -1.764285
     17          1           0       -1.919157    1.806214   -0.436402
     18          1           0       -3.247568    3.712417    0.532305
     19          1           0       -4.401914    3.581970   -0.803123
     20          1           0       -2.731274    4.078098   -1.122696
     21          6           0        1.593420   -2.279533   -0.735506
     22          6           0        2.986017   -2.314006   -0.608991
     23          6           0        3.692098   -1.171797   -0.219945
     24          6           0        2.970456   -0.006856    0.035859
     25          6           0        1.582939    0.059117   -0.081334
     26          6           0        0.897552   -1.095169   -0.471739
     27          1           0        1.052957   -3.171519   -1.038255
     28          1           0        3.529057   -3.232403   -0.813190
     29          1           0        4.770167   -1.170578   -0.114187
     30          1           0        1.069221    0.989309    0.129036
     31          1           0       -0.183960   -1.065472   -0.569173
     32          7           0        3.706998    1.208742    0.448444
     33          8           0        3.047919    2.222656    0.668055
     34          8           0        4.929434    1.124596    0.544404
 ---------------------------------------------------------------------

 SCF Done:  E(RHF) =  -669.535665397     A.U. after   15 cycles
 E2 =    -0.2091530241D+01 EUMP2 =    -0.67162719563707D+03

 The electronic state is 1-A.
 Alpha  occ. eigenvalues --  -20.60734 -20.60729 -15.85786 -11.31143 -11.27712
 Alpha  occ. eigenvalues --  -11.27704 -11.27441 -11.26725 -11.26670 -11.22377
 Alpha  occ. eigenvalues --  -11.22317 -11.22254 -11.22047 -11.21870 -11.21438
 Alpha  occ. eigenvalues --   -1.59810  -1.39363  -1.19311  -1.09187  -1.08706
 Alpha  occ. eigenvalues --   -1.04712  -1.04196  -0.96646  -0.95545  -0.87658
 Alpha  occ. eigenvalues --   -0.86111  -0.82380  -0.80276  -0.79037  -0.77421
 Alpha  occ. eigenvalues --   -0.72005  -0.71132  -0.70421  -0.65840  -0.64961
 Alpha  occ. eigenvalues --   -0.64706  -0.62064  -0.61584  -0.60015  -0.58261
 Alpha  occ. eigenvalues --   -0.55941  -0.55212  -0.53301  -0.53119  -0.53042
 Alpha  occ. eigenvalues --   -0.52769  -0.50577  -0.48771  -0.48761  -0.48577
 Alpha  occ. eigenvalues --   -0.47312  -0.46535  -0.46463  -0.44771  -0.44475
 Alpha  occ. eigenvalues --   -0.37291  -0.36314
 Alpha virt. eigenvalues --    0.05103   0.11316   0.16579   0.18953   0.22790
 Alpha virt. eigenvalues --    0.23174   0.24499   0.26324   0.27273   0.27339
 Alpha virt. eigenvalues --    0.29297   0.30795   0.31158   0.31301   0.31827

 Mulliken charges:
               1
     1  C   -0.305175
     2  C   -0.299225
     3  C   -0.476726
     4  H    0.149903
     5  H    0.144138
     6  H    0.155565
     7  H    0.155288
     8  H    0.151055
     9  H    0.154676
    10  H    0.164336
    11  C   -0.298428
    12  C   -0.300245
    13  C   -0.476315
    14  H    0.153078
    15  H    0.152985
    16  H    0.152773
    17  H    0.145428
    18  H    0.158162
    19  H    0.156404
    20  H    0.164283
    21  C   -0.172550
    22  C   -0.218521
    23  C   -0.171014
    24  C    0.159015
    25  C   -0.175383
    26  C   -0.226916
    27  H    0.226298
    28  H    0.223221
    29  H    0.275406
    30  H    0.276481
    31  H    0.235160
    32  N    0.488071
    33  O   -0.460608
    34  O   -0.460620
 Sum of Mulliken charges =  -0.00000

 Dipole moment (field-independent basis, Debye):
    X=             -2.8328    Y=             -4.2084    Z=             -1.4306  Tot=              5.2709
 Quadrupole moment (field-independent basis, Debye-Ang):
   XX=           -105.1931   YY=            -94.6943   ZZ=            -95.0725
   XY=            -15.3113   XZ=             -4.3630   YZ=              0.0286

 Normal termination of Gaussian 16 at Wed May  5 15:29:19 2021.
