 Gaussian 16, Revision A.03,
 Gaussian 16:  EM64L-G16RevA.03 25-Dec-2016

 -------------
 #p 6-31g* mp2
 -------------

 ------------------------------------------------------
 Input file generated by CHIRIPA (05-May-2021 14:57:26)
 ------------------------------------------------------
 Symbolic Z-matrix:
 Charge =  0 Multiplicity = 1

                         Standard orientation:
 ---------------------------------------------------------------------
 Center     Atomic      Atomic             Coordinates (Angstroms)
 Number     Number       Type             X           Y           Z
 ---------------------------------------------------------------------
      1          6           0       -5.887814    0.953606    0.759879
      2          6           0       -4.654561    1.473354    1.166658
      3          6           0       -3.460671    0.874409    0.753813
      4          6           0       -3.537326   -0.248014   -0.069339
      5          6           0       -4.750574   -0.789386   -0.491518
      6          6           0       -5.931807   -0.174117   -0.066454
      7          1           0       -6.810340    1.425221    1.085333
      8          1           0       -4.617359    2.349052    1.808386
      9          1           0       -2.492275    1.256014    1.053820
     10          1           0       -4.755670   -1.663451   -1.131364
     11          1           0       -6.888137   -0.579936   -0.383926
     12          7           0       -2.280108   -0.890731   -0.512868
     13          8           0       -2.374648   -1.878637   -1.237948
     14          8           0       -1.223966   -0.394416   -0.127027
     15          6           0        3.278952    2.496109   -0.783335
     16          6           0        4.476896    2.201031   -0.124260
     17          6           0        4.745457    0.900250    0.312079
     18          6           0        3.789541   -0.085492    0.071607
     19          6           0        2.586727    0.177115   -0.582278
     20          6           0        2.339347    1.484991   -1.009842
     21          1           0        3.078555    3.509342   -1.118885
     22          1           0        5.208434    2.984276    0.053016
     23          1           0        5.664682    0.644118    0.824757
     24          1           0        1.876756   -0.624770   -0.744574
     25          1           0        1.408150    1.711249   -1.521433
     26          7           0        4.062643   -1.466326    0.528895
     27          8           0        3.204218   -2.316945    0.304863
     28          8           0        5.129953   -1.671858    1.102690
 ---------------------------------------------------------------------

 SCF Done:  E(RHF) =  -868.339264679     A.U. after   15 cycles
 E2 =    -0.2598765059D+01 EUMP2 =    -0.87093802973779D+03

 The electronic state is 1-A.
 Alpha  occ. eigenvalues --  -20.61338 -20.61303 -20.59798 -20.59756 -15.86351
 Alpha  occ. eigenvalues --  -15.84828 -11.31579 -11.30133 -11.28144 -11.28112
 Alpha  occ. eigenvalues --  -11.27844 -11.27121 -11.27097 -11.26822 -11.26572
 Alpha  occ. eigenvalues --  -11.26526 -11.25855 -11.25664  -1.60378  -1.58860
 Alpha  occ. eigenvalues --   -1.39937  -1.38409  -1.19737  -1.18340  -1.09157
 Alpha  occ. eigenvalues --   -1.07774  -1.05119  -1.03710  -0.96015  -0.94596
 Alpha  occ. eigenvalues --   -0.86523  -0.85132  -0.82854  -0.81409  -0.77916
 Alpha  occ. eigenvalues --   -0.76437  -0.72582  -0.71685  -0.71050  -0.70842
 Alpha  occ. eigenvalues --   -0.70185  -0.69465  -0.65393  -0.65120  -0.63991
 Alpha  occ. eigenvalues --   -0.63726  -0.62468  -0.61018  -0.55623  -0.54298
 Alpha  occ. eigenvalues --   -0.53455  -0.53209  -0.52091  -0.51797  -0.49339
 Alpha  occ. eigenvalues --   -0.49306  -0.47824  -0.47788  -0.45371  -0.43826
 Alpha  occ. eigenvalues --   -0.37708  -0.36716  -0.36392  -0.35313
 Alpha virt. eigenvalues --    0.04606   0.06061   0.10940   0.12318   0.16122
 Alpha virt. eigenvalues --    0.17524   0.21083   0.22416   0.27010   0.27855
 Alpha virt. eigenvalues --    0.28437   0.29348   0.30694   0.31886   0.32246

 Mulliken charges:
               1
     1  C   -0.170239
     2  C   -0.218498
     3  C   -0.171319
     4  C    0.158033
     5  C   -0.170299
     6  C   -0.218517
     7  H    0.226898
     8  H    0.224064
     9  H    0.274404
    10  H    0.277025
    11  H    0.224996
    12  N    0.490136
    13  O   -0.454903
    14  O   -0.469211
    15  C   -0.172236
    16  C   -0.220029
    17  C   -0.172119
    18  C    0.155943
    19  C   -0.170994
    20  C   -0.221352
    21  H    0.220334
    22  H    0.218689
    23  H    0.272146
    24  H    0.295153
    25  H    0.225887
    26  N    0.487500
    27  O   -0.455386
    28  O   -0.466107
 Sum of Mulliken charges =  -0.00000

 Dipole moment (field-independent basis, Debye):
    X=             -5.9107    Y=              6.9209    Z=             -0.1116  Tot=              9.1021
 Quadrupole moment (field-independent basis, Debye-Ang):
   XX=            -76.9018   YY=           -105.3124   ZZ=           -104.6737
   XY=             14.7453   XZ=             -8.2874   YZ=              2.8214

 Normal termination of Gaussian 16 at Thu May  6 03:34:52 2021.
