 Gaussian 16, Revision A.03,
 Gaussian 16:  EM64L-G16RevA.03 25-Dec-2016

 -------------
 #p 6-31g* mp2
 -------------

 ------------------------------------------------------
 Input file generated by CHIRIPA (05-May-2021 14:55:22)
 ------------------------------------------------------
 Symbolic Z-matrix:
 Charge =  0 Multiplicity = 1

                         Standard orientation:
 ---------------------------------------------------------------------
 Center     Atomic      Atomic             Coordinates (Angstroms)
 Number     Number       Type             X           Y           Z
 ---------------------------------------------------------------------
      1          6           0        0.596347    2.470639    0.791680
      2          6           0        1.826231    2.113398    1.354074
      3          6           0        2.591376    1.086013    0.794091
      4          6           0        2.094076    0.434083   -0.333282
      5          6           0        0.872540    0.766941   -0.916672
      6          6           0        0.124259    1.797457   -0.339903
      7          1           0        0.008515    3.269952    1.233208
      8          1           0        2.195353    2.634463    2.232871
      9          1           0        3.546888    0.789095    1.209127
     10          1           0        0.530842    0.229218   -1.792751
     11          1           0       -0.830530    2.072761   -0.778799
     12          7           0        2.895174   -0.655221   -0.934996
     13          8           0        2.434880   -1.214123   -1.928170
     14          8           0        3.968200   -0.929489   -0.402051
     15          6           0       -2.992399   -0.653351   -0.278823
     16          6           0       -3.964003    0.496113   -0.009188
     17          6           0       -4.919812    0.748190   -1.175671
     18          1           0       -2.414809   -0.431505   -1.186633
     19          1           0       -3.565517   -1.567116   -0.488503
     20          1           0       -3.389217    1.407122    0.201283
     21          1           0       -4.539212    0.271593    0.898193
     22          1           0       -5.518302   -0.144752   -1.383192
     23          1           0       -4.361773    0.997230   -2.084062
     24          1           0       -5.605478    1.573965   -0.961616
     25          6           0       -2.030437   -0.917498    0.878149
     26          6           0       -1.058832   -2.066962    0.608515
     27          6           0       -0.103024   -2.319040    1.774997
     28          1           0       -1.457319   -0.003734    1.087830
     29          1           0       -2.608026   -1.139345    1.785959
     30          1           0       -0.483623   -1.842442   -0.298867
     31          1           0       -1.633618   -2.977972    0.398043
     32          1           0       -0.661063   -2.568079    2.683387
     33          1           0        0.495467   -1.426098    1.982518
     34          1           0        0.582643   -3.144813    1.560942
 ---------------------------------------------------------------------

 SCF Done:  E(RHF) =  -669.534246634     A.U. after   15 cycles
 E2 =    -0.2096648312D+01 EUMP2 =    -0.67163089494613D+03

 The electronic state is 1-A.
 Alpha  occ. eigenvalues --  -20.60895 -20.60886 -15.85936 -11.31338 -11.27894
 Alpha  occ. eigenvalues --  -11.27880 -11.27630 -11.26923 -11.26895 -11.22250
 Alpha  occ. eigenvalues --  -11.21851 -11.21645 -11.21548 -11.21440 -11.20949
 Alpha  occ. eigenvalues --   -1.59957  -1.39511  -1.19522  -1.08911  -1.08748
 Alpha  occ. eigenvalues --   -1.04926  -1.03800  -0.96246  -0.95727  -0.87263
 Alpha  occ. eigenvalues --   -0.86319  -0.82558  -0.79907  -0.78520  -0.77607
 Alpha  occ. eigenvalues --   -0.72153  -0.71282  -0.70610  -0.65546  -0.65156
 Alpha  occ. eigenvalues --   -0.64876  -0.62231  -0.61256  -0.59627  -0.57836
 Alpha  occ. eigenvalues --   -0.55568  -0.55403  -0.53225  -0.53037  -0.52898
 Alpha  occ. eigenvalues --   -0.52658  -0.50225  -0.48919  -0.48909  -0.48191
 Alpha  occ. eigenvalues --   -0.46995  -0.46058  -0.45958  -0.44876  -0.44040
 Alpha  occ. eigenvalues --   -0.37438  -0.36422
 Alpha virt. eigenvalues --    0.04898   0.10984   0.16329   0.19251   0.23224
 Alpha virt. eigenvalues --    0.23578   0.25140   0.26091   0.27429   0.28647
 Alpha virt. eigenvalues --    0.29640   0.30258   0.31363   0.31690   0.31956

 Mulliken charges:
               1
     1  C   -0.171654
     2  C   -0.217775
     3  C   -0.172364
     4  C    0.162477
     5  C   -0.170551
     6  C   -0.221319
     7  H    0.226728
     8  H    0.224513
     9  H    0.276519
    10  H    0.276310
    11  H    0.228337
    12  N    0.488540
    13  O   -0.460673
    14  O   -0.459234
    15  C   -0.298537
    16  C   -0.299894
    17  C   -0.475476
    18  H    0.141127
    19  H    0.154247
    20  H    0.141394
    21  H    0.155622
    22  H    0.159184
    23  H    0.152494
    24  H    0.160768
    25  C   -0.304690
    26  C   -0.302056
    27  C   -0.480167
    28  H    0.154570
    29  H    0.148880
    30  H    0.154786
    31  H    0.153355
    32  H    0.153572
    33  H    0.154398
    34  H    0.166569
 Sum of Mulliken charges =  -0.00000

 Dipole moment (field-independent basis, Debye):
    X=             -2.7218    Y=              3.8053    Z=              2.1279  Tot=              5.1397
 Quadrupole moment (field-independent basis, Debye-Ang):
   XX=           -104.3512   YY=            -91.4811   ZZ=            -94.6514
   XY=              8.2382   XZ=              7.4437   YZ=              0.2680

 Normal termination of Gaussian 16 at Wed May  5 23:54:09 2021.
