 Gaussian 16, Revision A.03,
 Gaussian 16:  EM64L-G16RevA.03 25-Dec-2016

 -------------
 #p 6-31g* mp2
 -------------

 ------------------------------------------------------
 Input file generated by CHIRIPA (05-May-2021 14:53:13)
 ------------------------------------------------------
 Symbolic Z-matrix:
 Charge =  0 Multiplicity = 1

                         Standard orientation:
 ---------------------------------------------------------------------
 Center     Atomic      Atomic             Coordinates (Angstroms)
 Number     Number       Type             X           Y           Z
 ---------------------------------------------------------------------
      1          6           0        3.364510   -0.233684   -0.193907
      2          6           0        4.363512   -0.985446    0.686338
      3          6           0        4.731882   -2.358206    0.122755
      4          1           0        2.456004   -0.840889   -0.307324
      5          1           0        3.789400   -0.115886   -1.200380
      6          1           0        3.937438   -1.100576    1.691237
      7          1           0        5.269670   -0.376296    0.797831
      8          1           0        5.180737   -2.258910   -0.870860
      9          1           0        3.840935   -2.987305    0.027623
     10          1           0        5.447085   -2.878215    0.767685
     11          6           0        2.986465    1.140387    0.356310
     12          6           0        1.987462    1.892150   -0.523935
     13          6           0        1.619093    3.264910    0.039649
     14          1           0        2.561575    1.022589    1.362783
     15          1           0        3.894970    1.747593    0.469728
     16          1           0        1.081305    1.282999   -0.635427
     17          1           0        2.413537    2.007279   -1.528834
     18          1           0        2.510040    3.894009    0.134780
     19          1           0        1.170238    3.165614    1.033263
     20          1           0        0.903890    3.784919   -0.605282
     21          6           0       -2.813329    2.140001    0.122129
     22          6           0       -3.706617    1.266067    0.750458
     23          6           0       -3.532161   -0.117725    0.654373
     24          6           0       -2.448706   -0.595309   -0.081379
     25          6           0       -1.541568    0.249783   -0.718723
     26          6           0       -1.735556    1.629969   -0.609166
     27          1           0       -2.956438    3.213564    0.202002
     28          1           0       -4.544521    1.659336    1.319052
     29          1           0       -4.208596   -0.816912    1.130811
     30          1           0       -0.715700   -0.172044   -1.278564
     31          1           0       -1.040232    2.306308   -1.098182
     32          7           0       -2.253679   -2.058360   -0.190230
     33          8           0       -1.291221   -2.453955   -0.844307
     34          8           0       -3.066967   -2.781799    0.380590
 ---------------------------------------------------------------------

 SCF Done:  E(RHF) =  -669.533867585     A.U. after   15 cycles
 E2 =    -0.2093835606D+01 EUMP2 =    -0.67162770319069D+03

 The electronic state is 1-A.
 Alpha  occ. eigenvalues --  -20.60806 -20.60800 -15.85856 -11.31207 -11.27766
 Alpha  occ. eigenvalues --  -11.27743 -11.27486 -11.26785 -11.26710 -11.22270
 Alpha  occ. eigenvalues --  -11.21936 -11.21735 -11.21568 -11.21457 -11.20862
 Alpha  occ. eigenvalues --   -1.59879  -1.39433  -1.19378  -1.08787  -1.08710
 Alpha  occ. eigenvalues --   -1.04801  -1.03838  -0.96290  -0.95611  -0.87310
 Alpha  occ. eigenvalues --   -0.86166  -0.82469  -0.79980  -0.78488  -0.77481
 Alpha  occ. eigenvalues --   -0.72074  -0.71202  -0.70490  -0.65437  -0.65001
 Alpha  occ. eigenvalues --   -0.64802  -0.62318  -0.61105  -0.59678  -0.57877
 Alpha  occ. eigenvalues --   -0.55558  -0.55246  -0.53121  -0.53062  -0.52917
 Alpha  occ. eigenvalues --   -0.52552  -0.50210  -0.48834  -0.48827  -0.48257
 Alpha  occ. eigenvalues --   -0.46981  -0.46012  -0.45883  -0.44839  -0.44083
 Alpha  occ. eigenvalues --   -0.37350  -0.36322
 Alpha virt. eigenvalues --    0.04996   0.11215   0.16402   0.20243   0.22979
 Alpha virt. eigenvalues --    0.23873   0.25074   0.26273   0.26754   0.28658
 Alpha virt. eigenvalues --    0.29501   0.30589   0.31205   0.31608   0.32359

 Mulliken charges:
               1
     1  C   -0.301909
     2  C   -0.299781
     3  C   -0.477226
     4  H    0.156127
     5  H    0.149318
     6  H    0.153019
     7  H    0.150618
     8  H    0.154478
     9  H    0.161852
    10  H    0.160208
    11  C   -0.297437
    12  C   -0.308249
    13  C   -0.478000
    14  H    0.151686
    15  H    0.150719
    16  H    0.149255
    17  H    0.153598
    18  H    0.161133
    19  H    0.159103
    20  H    0.149315
    21  C   -0.173332
    22  C   -0.218429
    23  C   -0.171596
    24  C    0.157368
    25  C   -0.174839
    26  C   -0.217790
    27  H    0.225958
    28  H    0.223496
    29  H    0.275520
    30  H    0.277310
    31  H    0.231459
    32  N    0.488391
    33  O   -0.461209
    34  O   -0.460134
 Sum of Mulliken charges =  -0.00000

 Dipole moment (field-independent basis, Debye):
    X=             -0.6052    Y=              5.0752    Z=              0.4557  Tot=              5.1314
 Quadrupole moment (field-independent basis, Debye-Ang):
   XX=            -87.5331   YY=           -102.2690   ZZ=            -93.6987
   XY=            -11.1259   XZ=             -3.7803   YZ=             -1.4821

 Normal termination of Gaussian 16 at Thu May  6 12:01:50 2021.
