 Gaussian 16, Revision A.03,
 Gaussian 16:  EM64L-G16RevA.03 25-Dec-2016

 -------------
 #p 6-31g* mp2
 -------------

 ------------------------------------------------------
 Input file generated by CHIRIPA (05-May-2021 14:51:08)
 ------------------------------------------------------
 Symbolic Z-matrix:
 Charge =  0 Multiplicity = 1

                         Standard orientation:
 ---------------------------------------------------------------------
 Center     Atomic      Atomic             Coordinates (Angstroms)
 Number     Number       Type             X           Y           Z
 ---------------------------------------------------------------------
      1          6           0       -2.723863   -0.687521    0.523676
      2          6           0       -1.533180   -1.318492   -0.198913
      3          6           0       -0.320269   -1.506374    0.712866
      4          1           0       -2.420592    0.283862    0.937667
      5          1           0       -3.001315   -1.318963    1.379069
      6          1           0       -1.258934   -0.686766   -1.053505
      7          1           0       -1.839375   -2.288399   -0.611396
      8          1           0       -0.570983   -2.154501    1.558841
      9          1           0        0.012756   -0.543768    1.114220
     10          1           0        0.519312   -1.958840    0.175988
     11          6           0       -3.944089   -0.493284   -0.374682
     12          6           0       -5.134772    0.137687    0.347907
     13          6           0       -6.347683    0.325569   -0.563871
     14          1           0       -3.666637    0.138159   -1.230074
     15          1           0       -4.247360   -1.464666   -0.788672
     16          1           0       -4.828577    1.107594    0.760390
     17          1           0       -5.409018   -0.494039    1.202499
     18          1           0       -6.680708   -0.637037   -0.965226
     19          1           0       -6.096969    0.973696   -1.409847
     20          1           0       -7.187264    0.778036   -0.026993
     21          6           0        2.974138    1.161319    0.283277
     22          6           0        1.716898    1.636882   -0.445540
     23          6           0        1.008062    2.779381    0.282498
     24          1           0        2.702327    0.838855    1.297713
     25          1           0        3.664833    2.008046    0.398992
     26          1           0        1.029372    0.789193   -0.561073
     27          1           0        1.991703    1.958072   -1.458425
     28          1           0        1.673610    3.642608    0.384895
     29          1           0        0.705811    2.467087    1.287346
     30          1           0        0.112055    3.103785   -0.255825
     31          6           0        3.693815    0.019486   -0.432271
     32          6           0        4.951054   -0.456077    0.296546
     33          6           0        5.659890   -1.598576   -0.431493
     34          1           0        3.003120   -0.827241   -0.547986
     35          1           0        3.965625    0.341950   -1.446707
     36          1           0        4.676248   -0.777267    1.309431
     37          1           0        5.638579    0.391612    0.412078
     38          1           0        5.962141   -1.286282   -1.436341
     39          1           0        4.994342   -2.461803   -0.533890
     40          1           0        6.555898   -1.922980    0.106830
 ---------------------------------------------------------------------

 SCF Done:  E(RHF) =  -470.732758481     A.U. after   11 cycles
 E2 =    -0.1583936327D+01 EUMP2 =    -0.47231669480762D+03

 The electronic state is 1-A.
 Alpha  occ. eigenvalues --  -11.21673 -11.21618 -11.21571 -11.21525 -11.21439
 Alpha  occ. eigenvalues --  -11.21378 -11.21371 -11.21312 -11.21150 -11.21106
 Alpha  occ. eigenvalues --  -11.21083 -11.21052  -1.08484  -1.08390  -1.03613
 Alpha  occ. eigenvalues --   -1.03483  -0.96035  -0.95967  -0.87065  -0.86970
 Alpha  occ. eigenvalues --   -0.79644  -0.79573  -0.78279  -0.78216  -0.65299
 Alpha  occ. eigenvalues --   -0.64899  -0.61298  -0.60617  -0.59411  -0.59320
 Alpha  occ. eigenvalues --   -0.57644  -0.57572  -0.55362  -0.55210  -0.52743
 Alpha  occ. eigenvalues --   -0.52647  -0.52457  -0.52384  -0.50081  -0.49809
 Alpha  occ. eigenvalues --   -0.48015  -0.47822  -0.46682  -0.46576  -0.45852
 Alpha  occ. eigenvalues --   -0.45752  -0.45711  -0.45626  -0.43821  -0.43760
 Alpha virt. eigenvalues --    0.20008   0.22909   0.23693   0.24218   0.26213
 Alpha virt. eigenvalues --    0.26504   0.26608   0.27842   0.28298   0.29406
 Alpha virt. eigenvalues --    0.30317   0.30838   0.31641   0.31844   0.32275

 Mulliken charges:
               1
     1  C   -0.298610
     2  C   -0.302586
     3  C   -0.482941
     4  H    0.150402
     5  H    0.149648
     6  H    0.153869
     7  H    0.152627
     8  H    0.156452
     9  H    0.159128
    10  H    0.161790
    11  C   -0.298362
    12  C   -0.299749
    13  C   -0.475734
    14  H    0.149689
    15  H    0.149691
    16  H    0.152182
    17  H    0.151935
    18  H    0.155182
    19  H    0.155241
    20  H    0.160348
    21  C   -0.298046
    22  C   -0.309130
    23  C   -0.476568
    24  H    0.150009
    25  H    0.149443
    26  H    0.162838
    27  H    0.151823
    28  H    0.155796
    29  H    0.154490
    30  H    0.159604
    31  C   -0.300980
    32  C   -0.299658
    33  C   -0.475652
    34  H    0.152109
    35  H    0.149385
    36  H    0.152290
    37  H    0.151794
    38  H    0.155066
    39  H    0.154970
    40  H    0.160215
 Sum of Mulliken charges =  -0.00000

 Dipole moment (field-independent basis, Debye):
    X=             -0.0282    Y=             -0.0202    Z=              0.0030  Tot=              0.0348
 Quadrupole moment (field-independent basis, Debye-Ang):
   XX=            -85.6890   YY=            -84.2303   ZZ=            -84.9194
   XY=              1.4012   XZ=             -0.6155   YZ=             -0.8275

 Normal termination of Gaussian 16 at Thu May  6 11:33:43 2021.
