 Gaussian 16, Revision A.03,
 Gaussian 16:  EM64L-G16RevA.03 25-Dec-2016

 -------------
 #p 6-31g* mp2
 -------------

 ------------------------------------------------------
 Input file generated by CHIRIPA (05-May-2021 14:55:25)
 ------------------------------------------------------
 Symbolic Z-matrix:
 Charge =  0 Multiplicity = 1

                         Standard orientation:
 ---------------------------------------------------------------------
 Center     Atomic      Atomic             Coordinates (Angstroms)
 Number     Number       Type             X           Y           Z
 ---------------------------------------------------------------------
      1          6           0       -1.534267    1.746101    1.291069
      2          6           0       -1.348072    0.424872    1.710837
      3          6           0       -2.103142   -0.610684    1.152230
      4          6           0       -3.039865   -0.287707    0.171656
      5          6           0       -3.248546    1.018730   -0.267619
      6          6           0       -2.482238    2.038299    0.304919
      7          1           0       -0.943345    2.544336    1.730420
      8          1           0       -0.612584    0.195001    2.476514
      9          1           0       -1.979442   -1.642303    1.458627
     10          1           0       -3.989285    1.216833   -1.032785
     11          1           0       -2.628982    3.063464   -0.023025
     12          7           0       -3.845172   -1.375541   -0.427091
     13          8           0       -4.664037   -1.064789   -1.289373
     14          8           0       -3.642258   -2.518339   -0.022769
     15          6           0        3.365958    0.812416   -0.405086
     16          6           0        1.931953    0.698435   -0.923374
     17          6           0        1.234560    2.054438   -1.036038
     18          1           0        3.356012    1.303974    0.577368
     19          1           0        3.940031    1.466401   -1.076010
     20          1           0        1.361122    0.043750   -0.252438
     21          1           0        1.945296    0.206918   -1.904624
     22          1           0        1.779229    2.712009   -1.721266
     23          1           0        1.191735    2.547913   -0.059694
     24          1           0        0.210730    1.949623   -1.408392
     25          6           0        4.076321   -0.534863   -0.286975
     26          6           0        5.510327   -0.420882    0.231313
     27          6           0        6.207720   -1.776885    0.343976
     28          1           0        3.502249   -1.188849    0.383949
     29          1           0        4.086268   -1.026422   -1.269430
     30          1           0        5.496983    0.070634    1.212562
     31          1           0        6.081158    0.233803   -0.439623
     32          1           0        6.250544   -2.270360   -0.632368
     33          1           0        5.663051   -2.434456    1.029204
     34          1           0        7.231549   -1.672070    0.716331
 ---------------------------------------------------------------------

 SCF Done:  E(RHF) =  -669.535072269     A.U. after   15 cycles
 E2 =    -0.2092738055D+01 EUMP2 =    -0.67162781032394D+03

 The electronic state is 1-A.
 Alpha  occ. eigenvalues --  -20.60790 -20.60785 -15.85847 -11.31222 -11.27830
 Alpha  occ. eigenvalues --  -11.27817 -11.27559 -11.26832 -11.26797 -11.21967
 Alpha  occ. eigenvalues --  -11.21917 -11.21800 -11.21712 -11.21535 -11.21324
 Alpha  occ. eigenvalues --   -1.59866  -1.39419  -1.19419  -1.08841  -1.08767
 Alpha  occ. eigenvalues --   -1.04828  -1.03888  -0.96357  -0.95629  -0.87373
 Alpha  occ. eigenvalues --   -0.86218  -0.82468  -0.79952  -0.78609  -0.77509
 Alpha  occ. eigenvalues --   -0.72065  -0.71190  -0.70531  -0.65447  -0.65070
 Alpha  occ. eigenvalues --   -0.64821  -0.62172  -0.61311  -0.59727  -0.57962
 Alpha  occ. eigenvalues --   -0.55754  -0.55275  -0.53365  -0.52914  -0.52837
 Alpha  occ. eigenvalues --   -0.52667  -0.50300  -0.48824  -0.48818  -0.48271
 Alpha  occ. eigenvalues --   -0.46995  -0.46154  -0.46083  -0.44823  -0.44153
 Alpha  occ. eigenvalues --   -0.37317  -0.36408
 Alpha virt. eigenvalues --    0.05019   0.11164   0.16433   0.20624   0.22677
 Alpha virt. eigenvalues --    0.24064   0.26065   0.26396   0.27299   0.27441
 Alpha virt. eigenvalues --    0.28604   0.30327   0.31203   0.31601   0.32111

 Mulliken charges:
               1
     1  C   -0.164054
     2  C   -0.219259
     3  C   -0.170869
     4  C    0.158455
     5  C   -0.171573
     6  C   -0.219652
     7  H    0.226155
     8  H    0.223426
     9  H    0.275917
    10  H    0.275946
    11  H    0.224267
    12  N    0.488167
    13  O   -0.460406
    14  O   -0.460395
    15  C   -0.298037
    16  C   -0.301468
    17  C   -0.474591
    18  H    0.145076
    19  H    0.150679
    20  H    0.151948
    21  H    0.155324
    22  H    0.154927
    23  H    0.142939
    24  H    0.165150
    25  C   -0.298074
    26  C   -0.299690
    27  C   -0.475834
    28  H    0.147862
    29  H    0.152072
    30  H    0.150413
    31  H    0.152688
    32  H    0.156570
    33  H    0.155046
    34  H    0.160877
 Sum of Mulliken charges =  -0.00000

 Dipole moment (field-independent basis, Debye):
    X=              2.8084    Y=              3.8025    Z=              2.0784  Tot=              5.1639
 Quadrupole moment (field-independent basis, Debye-Ang):
   XX=           -111.7407   YY=            -96.0381   ZZ=            -91.8785
   XY=            -14.0474   XZ=             -4.9747   YZ=             -2.0913

 Normal termination of Gaussian 16 at Wed May  5 22:28:35 2021.
