 Gaussian 16, Revision A.03,
 Gaussian 16:  EM64L-G16RevA.03 25-Dec-2016

 -------------
 #p 6-31g* mp2
 -------------

 ------------------------------------------------------
 Input file generated by CHIRIPA (05-May-2021 14:51:09)
 ------------------------------------------------------
 Symbolic Z-matrix:
 Charge =  0 Multiplicity = 1

                         Standard orientation:
 ---------------------------------------------------------------------
 Center     Atomic      Atomic             Coordinates (Angstroms)
 Number     Number       Type             X           Y           Z
 ---------------------------------------------------------------------
      1          6           0        3.125769   -0.182208    0.446837
      2          6           0        2.408576    1.083053    0.918783
      3          6           0        0.956148    0.824350    1.320428
      4          1           0        2.579010   -0.609978   -0.404640
      5          1           0        3.094175   -0.933644    1.247924
      6          1           0        2.442719    1.832371    0.117551
      7          1           0        2.957213    1.507967    1.769113
      8          1           0        0.905929    0.095788    2.136073
      9          1           0        0.388511    0.422036    0.475127
     10          1           0        0.462422    1.742214    1.654523
     11          6           0        4.578669    0.060288    0.041861
     12          6           0        5.295862   -1.204973   -0.430085
     13          6           0        6.748291   -0.946270   -0.831730
     14          1           0        4.610263    0.811724   -0.759227
     15          1           0        5.125428    0.488058    0.893337
     16          1           0        4.747225   -1.629887   -1.280415
     17          1           0        5.261719   -1.954292    0.371147
     18          1           0        7.315927   -0.543956    0.013571
     19          1           0        6.798509   -0.217708   -1.647375
     20          1           0        7.242016   -1.864134   -1.165825
     21          6           0       -3.873603   -0.693773   -0.359905
     22          6           0       -5.064829   -1.376694    0.312838
     23          6           0       -5.093824   -2.886402    0.072549
     24          1           0       -3.906010   -0.894091   -1.439612
     25          1           0       -2.943160   -1.143379    0.013625
     26          1           0       -5.992708   -0.924990   -0.060820
     27          1           0       -5.029690   -1.174568    1.391043
     28          1           0       -4.184515   -3.355931    0.461521
     29          1           0       -5.153004   -3.104935   -0.998592
     30          1           0       -5.953455   -3.354431    0.562285
     31          6           0       -3.830834    0.815692   -0.128793
     32          6           0       -2.639609    1.498615   -0.801535
     33          6           0       -2.610614    3.008322   -0.561247
     34          1           0       -4.761278    1.265299   -0.502323
     35          1           0       -3.798429    1.016011    0.950914
     36          1           0       -2.674749    1.296488   -1.879741
     37          1           0       -1.711730    1.046910   -0.427877
     38          1           0       -2.551433    3.226855    0.509894
     39          1           0       -3.519924    3.477851   -0.950218
     40          1           0       -1.750982    3.476351   -1.050983
 ---------------------------------------------------------------------

 SCF Done:  E(RHF) =  -470.733227670     A.U. after   11 cycles
 E2 =    -0.1582598037D+01 EUMP2 =    -0.47231582570723D+03

 The electronic state is 1-A.
 Alpha  occ. eigenvalues --  -11.21641 -11.21617 -11.21569 -11.21504 -11.21431
 Alpha  occ. eigenvalues --  -11.21371 -11.21358 -11.21296 -11.21126 -11.21083
 Alpha  occ. eigenvalues --  -11.21046 -11.21028  -1.08459  -1.08380  -1.03569
 Alpha  occ. eigenvalues --   -1.03476  -0.96020  -0.95931  -0.87040  -0.86949
 Alpha  occ. eigenvalues --   -0.79662  -0.79517  -0.78278  -0.78188  -0.65122
 Alpha  occ. eigenvalues --   -0.64988  -0.61069  -0.60792  -0.59380  -0.59301
 Alpha  occ. eigenvalues --   -0.57624  -0.57548  -0.55355  -0.55179  -0.52711
 Alpha  occ. eigenvalues --   -0.52628  -0.52456  -0.52353  -0.50057  -0.49816
 Alpha  occ. eigenvalues --   -0.48005  -0.47821  -0.46800  -0.46441  -0.45862
 Alpha  occ. eigenvalues --   -0.45755  -0.45717  -0.45508  -0.43812  -0.43736
 Alpha virt. eigenvalues --    0.21596   0.23029   0.23726   0.24914   0.25617
 Alpha virt. eigenvalues --    0.26753   0.27027   0.27569   0.27934   0.28995
 Alpha virt. eigenvalues --    0.30751   0.31082   0.31738   0.31817   0.32446

 Mulliken charges:
               1
     1  C   -0.298680
     2  C   -0.299307
     3  C   -0.481179
     4  H    0.149963
     5  H    0.149504
     6  H    0.152312
     7  H    0.152135
     8  H    0.155197
     9  H    0.159444
    10  H    0.161222
    11  C   -0.298340
    12  C   -0.299697
    13  C   -0.475728
    14  H    0.149639
    15  H    0.149707
    16  H    0.152030
    17  H    0.151933
    18  H    0.155196
    19  H    0.155231
    20  H    0.160320
    21  C   -0.298522
    22  C   -0.299602
    23  C   -0.475708
    24  H    0.149332
    25  H    0.149547
    26  H    0.151847
    27  H    0.152031
    28  H    0.155218
    29  H    0.155039
    30  H    0.160138
    31  C   -0.297551
    32  C   -0.307994
    33  C   -0.475100
    34  H    0.149146
    35  H    0.149778
    36  H    0.150954
    37  H    0.160949
    38  H    0.154951
    39  H    0.154915
    40  H    0.159731
 Sum of Mulliken charges =  -0.00000

 Dipole moment (field-independent basis, Debye):
    X=              0.0382    Y=             -0.0040    Z=              0.0142  Tot=              0.0409
 Quadrupole moment (field-independent basis, Debye-Ang):
   XX=            -85.6338   YY=            -86.0058   ZZ=            -83.2564
   XY=             -0.3134   XZ=              1.0608   YZ=             -0.3683

 Normal termination of Gaussian 16 at Wed May  5 16:37:14 2021.
