 Gaussian 16, Revision A.03,
 Gaussian 16:  EM64L-G16RevA.03 25-Dec-2016

 -------------
 #p 6-31g* mp2
 -------------

 ------------------------------------------------------
 Input file generated by CHIRIPA (05-May-2021 14:55:21)
 ------------------------------------------------------
 Symbolic Z-matrix:
 Charge =  0 Multiplicity = 1

                         Standard orientation:
 ---------------------------------------------------------------------
 Center     Atomic      Atomic             Coordinates (Angstroms)
 Number     Number       Type             X           Y           Z
 ---------------------------------------------------------------------
      1          6           0        0.251497   -1.902786    1.536827
      2          6           0        0.581701   -2.318687    0.242797
      3          6           0        1.517805   -1.607944   -0.514238
      4          6           0        2.107017   -0.480831    0.056496
      5          6           0        1.798981   -0.041314    1.343052
      6          6           0        0.860118   -0.767428    2.081864
      7          1           0       -0.476762   -2.460879    2.117831
      8          1           0        0.110627   -3.200044   -0.183047
      9          1           0        1.791927   -1.907733   -1.518430
     10          1           0        2.285307    0.841235    1.740560
     11          1           0        0.605616   -0.442109    3.086573
     12          7           0        3.099489    0.279737   -0.735297
     13          8           0        3.604457    1.269374   -0.209689
     14          8           0        3.353628   -0.128168   -1.866519
     15          6           0       -2.449591    0.047052   -0.464622
     16          6           0       -3.790832   -0.682862   -0.385364
     17          6           0       -3.698604   -2.139990   -0.839308
     18          1           0       -2.077581    0.006140   -1.497521
     19          1           0       -1.713503   -0.484800    0.154008
     20          1           0       -4.524531   -0.149008   -1.002859
     21          1           0       -4.159785   -0.640043    0.647427
     22          1           0       -2.987445   -2.693019   -0.217203
     23          1           0       -3.354265   -2.199195   -1.876866
     24          1           0       -4.668565   -2.642824   -0.774543
     25          6           0       -2.525631    1.504774   -0.014079
     26          6           0       -1.184390    2.234689   -0.093338
     27          6           0       -1.276618    3.691817    0.360607
     28          1           0       -3.261718    2.036626   -0.632709
     29          1           0       -2.897641    1.545687    1.018820
     30          1           0       -0.815436    2.191869   -1.126129
     31          1           0       -0.450690    1.700835    0.524158
     32          1           0       -1.620957    3.751021    1.398165
     33          1           0       -1.987775    4.244845   -0.261498
     34          1           0       -0.306656    4.194650    0.295841
 ---------------------------------------------------------------------

 SCF Done:  E(RHF) =  -669.534010682     A.U. after   15 cycles
 E2 =    -0.2095773648D+01 EUMP2 =    -0.67162978433001D+03

 The electronic state is 1-A.
 Alpha  occ. eigenvalues --  -20.60849 -20.60844 -15.85904 -11.31321 -11.27899
 Alpha  occ. eigenvalues --  -11.27873 -11.27621 -11.26923 -11.26884 -11.21975
 Alpha  occ. eigenvalues --  -11.21695 -11.21544 -11.21481 -11.21405 -11.21034
 Alpha  occ. eigenvalues --   -1.59922  -1.39475  -1.19513  -1.08910  -1.08585
 Alpha  occ. eigenvalues --   -1.04917  -1.03743  -0.96201  -0.95719  -0.87224
 Alpha  occ. eigenvalues --   -0.86305  -0.82542  -0.79812  -0.78403  -0.77576
 Alpha  occ. eigenvalues --   -0.72123  -0.71243  -0.70613  -0.65289  -0.65144
 Alpha  occ. eigenvalues --   -0.64902  -0.62253  -0.61166  -0.59576  -0.57804
 Alpha  occ. eigenvalues --   -0.55540  -0.55411  -0.53437  -0.52998  -0.52835
 Alpha  occ. eigenvalues --   -0.52617  -0.50185  -0.48885  -0.48874  -0.48163
 Alpha  occ. eigenvalues --   -0.46895  -0.45915  -0.45702  -0.44867  -0.43951
 Alpha  occ. eigenvalues --   -0.37372  -0.36442
 Alpha virt. eigenvalues --    0.04910   0.11036   0.16343   0.20347   0.23029
 Alpha virt. eigenvalues --    0.23773   0.26358   0.26630   0.27494   0.27963
 Alpha virt. eigenvalues --    0.28356   0.30710   0.31211   0.31677   0.32048

 Mulliken charges:
               1
     1  C   -0.177026
     2  C   -0.214496
     3  C   -0.169807
     4  C    0.163278
     5  C   -0.173676
     6  C   -0.215515
     7  H    0.226814
     8  H    0.225770
     9  H    0.276326
    10  H    0.276617
    11  H    0.224526
    12  N    0.488069
    13  O   -0.460177
    14  O   -0.460057
    15  C   -0.308028
    16  C   -0.299082
    17  C   -0.474038
    18  H    0.149152
    19  H    0.159845
    20  H    0.154073
    21  H    0.149010
    22  H    0.143468
    23  H    0.156789
    24  H    0.161884
    25  C   -0.296721
    26  C   -0.305624
    27  C   -0.476392
    28  H    0.149875
    29  H    0.145151
    30  H    0.154476
    31  H    0.154090
    32  H    0.151277
    33  H    0.155709
    34  H    0.164439
 Sum of Mulliken charges =  -0.00000

 Dipole moment (field-independent basis, Debye):
    X=             -3.3214    Y=             -2.7002    Z=              2.7575  Tot=              5.0918
 Quadrupole moment (field-independent basis, Debye-Ang):
   XX=           -110.5074   YY=            -91.6919   ZZ=            -90.9385
   XY=             -3.7351   XZ=              6.5235   YZ=              0.5809

 Normal termination of Gaussian 16 at Thu May  6 20:46:29 2021.
