 Gaussian 16, Revision A.03,
 Gaussian 16:  EM64L-G16RevA.03 25-Dec-2016

 -------------
 #p 6-31g* mp2
 -------------

 ------------------------------------------------------
 Input file generated by CHIRIPA (05-May-2021 14:51:14)
 ------------------------------------------------------
 Symbolic Z-matrix:
 Charge =  0 Multiplicity = 1

                         Standard orientation:
 ---------------------------------------------------------------------
 Center     Atomic      Atomic             Coordinates (Angstroms)
 Number     Number       Type             X           Y           Z
 ---------------------------------------------------------------------
      1          6           0       -3.448482    1.249684   -0.066959
      2          6           0       -2.008045    1.736474    0.094791
      3          6           0       -1.916593    3.244421    0.330432
      4          1           0       -3.916802    1.782409   -0.905901
      5          1           0       -4.021496    1.516711    0.831788
      6          1           0       -1.437571    1.467387   -0.803411
      7          1           0       -1.543039    1.202390    0.933325
      8          1           0       -2.461420    3.526373    1.237222
      9          1           0       -2.355353    3.792876   -0.509383
     10          1           0       -0.878059    3.570865    0.443309
     11          6           0       -3.556281   -0.255737   -0.303207
     12          6           0       -4.996718   -0.742527   -0.464957
     13          6           0       -5.088170   -2.250474   -0.700597
     14          1           0       -2.983267   -0.522764   -1.201954
     15          1           0       -3.087961   -0.788462    0.535736
     16          1           0       -5.461724   -0.208443   -1.303491
     17          1           0       -5.567192   -0.473439    0.433246
     18          1           0       -4.649410   -2.798928    0.139217
     19          1           0       -4.543343   -2.532426   -1.607387
     20          1           0       -6.126704   -2.576917   -0.813475
     21          6           0        4.073190   -0.592709   -0.313359
     22          6           0        5.160854    0.476234   -0.202305
     23          6           0        6.295938    0.271143   -1.205957
     24          1           0        4.524275   -1.582883   -0.161620
     25          1           0        3.666649   -0.587552   -1.334187
     26          1           0        5.564261    0.469998    0.818401
     27          1           0        4.707093    1.463992   -0.354135
     28          1           0        5.913186    0.298561   -2.231311
     29          1           0        6.775225   -0.701080   -1.052113
     30          1           0        7.062427    1.046368   -1.109107
     31          6           0        2.931573   -0.401238    0.683524
     32          6           0        1.843909   -1.470182    0.572471
     33          6           0        0.708825   -1.265091    1.576122
     34          1           0        3.338114   -0.406395    1.704354
     35          1           0        2.480487    0.588935    0.531785
     36          1           0        2.297670   -2.457939    0.724301
     37          1           0        1.440502   -1.463946   -0.448235
     38          1           0        0.229538   -0.292867    1.422279
     39          1           0        1.091576   -1.292509    2.601476
     40          1           0       -0.057664   -2.040316    1.479273
 ---------------------------------------------------------------------

 SCF Done:  E(RHF) =  -470.733290727     A.U. after   11 cycles
 E2 =    -0.1582720750D+01 EUMP2 =    -0.47231601147672D+03

 The electronic state is 1-A.
 Alpha  occ. eigenvalues --  -11.21622 -11.21598 -11.21595 -11.21574 -11.21408
 Alpha  occ. eigenvalues --  -11.21390 -11.21345 -11.21330 -11.21101 -11.21070
 Alpha  occ. eigenvalues --  -11.21066 -11.21014  -1.08442  -1.08409  -1.03552
 Alpha  occ. eigenvalues --   -1.03502  -0.95989  -0.95961  -0.87017  -0.86970
 Alpha  occ. eigenvalues --   -0.79656  -0.79536  -0.78275  -0.78201  -0.65101
 Alpha  occ. eigenvalues --   -0.65016  -0.61015  -0.60849  -0.59372  -0.59319
 Alpha  occ. eigenvalues --   -0.57638  -0.57536  -0.55298  -0.55236  -0.52699
 Alpha  occ. eigenvalues --   -0.52647  -0.52455  -0.52352  -0.50020  -0.49856
 Alpha  occ. eigenvalues --   -0.48046  -0.47784  -0.46774  -0.46497  -0.45863
 Alpha  occ. eigenvalues --   -0.45738  -0.45723  -0.45515  -0.43795  -0.43764
 Alpha virt. eigenvalues --    0.21626   0.23109   0.23737   0.24471   0.25786
 Alpha virt. eigenvalues --    0.26530   0.27280   0.27350   0.28090   0.29472
 Alpha virt. eigenvalues --    0.29836   0.31442   0.31714   0.31887   0.31925

 Mulliken charges:
               1
     1  C   -0.297679
     2  C   -0.306743
     3  C   -0.475166
     4  H    0.149622
     5  H    0.149583
     6  H    0.151253
     7  H    0.158872
     8  H    0.155437
     9  H    0.155313
    10  H    0.159799
    11  C   -0.299250
    12  C   -0.299671
    13  C   -0.475682
    14  H    0.149222
    15  H    0.151270
    16  H    0.151871
    17  H    0.151969
    18  H    0.155186
    19  H    0.155119
    20  H    0.160253
    21  C   -0.298279
    22  C   -0.299639
    23  C   -0.475691
    24  H    0.149636
    25  H    0.149446
    26  H    0.151910
    27  H    0.151884
    28  H    0.155140
    29  H    0.155177
    30  H    0.160225
    31  C   -0.298468
    32  C   -0.298930
    33  C   -0.482991
    34  H    0.149389
    35  H    0.149741
    36  H    0.151710
    37  H    0.152070
    38  H    0.162420
    39  H    0.154532
    40  H    0.160138
 Sum of Mulliken charges =  -0.00000

 Dipole moment (field-independent basis, Debye):
    X=             -0.0178    Y=              0.0076    Z=              0.0041  Tot=              0.0198
 Quadrupole moment (field-independent basis, Debye-Ang):
   XX=            -85.4113   YY=            -85.6313   ZZ=            -83.7758
   XY=             -0.5209   XZ=              0.7983   YZ=             -0.7338

 Normal termination of Gaussian 16 at Wed May  5 21:37:52 2021.
