 Gaussian 16, Revision A.03,
 Gaussian 16:  EM64L-G16RevA.03 25-Dec-2016

 -------------
 #p 6-31g* mp2
 -------------

 ------------------------------------------------------
 Input file generated by CHIRIPA (05-May-2021 14:51:07)
 ------------------------------------------------------
 Symbolic Z-matrix:
 Charge =  0 Multiplicity = 1

                         Standard orientation:
 ---------------------------------------------------------------------
 Center     Atomic      Atomic             Coordinates (Angstroms)
 Number     Number       Type             X           Y           Z
 ---------------------------------------------------------------------
      1          6           0        2.725645   -0.517718    0.560875
      2          6           0        1.867610   -1.783139    0.582537
      3          6           0        0.632391   -1.644648    1.472958
      4          1           0        3.036428   -0.275497    1.586393
      5          1           0        2.113858    0.325807    0.212195
      6          1           0        2.481207   -2.624302    0.929754
      7          1           0        1.558992   -2.022484   -0.443175
      8          1           0       -0.003158   -0.823851    1.125149
      9          1           0        0.924297   -1.429088    2.505879
     10          1           0        0.033365   -2.560632    1.473814
     11          6           0        3.964167   -0.640655   -0.324946
     12          6           0        4.822202    0.624766   -0.346608
     13          6           0        6.057420    0.486275   -1.237029
     14          1           0        4.575953   -1.484180    0.023734
     15          1           0        3.653383   -0.882876   -1.350464
     16          1           0        5.130819    0.864111    0.679104
     17          1           0        4.208604    1.465929   -0.693825
     18          1           0        5.765515    0.270715   -2.269950
     19          1           0        6.692970   -0.334522   -0.889220
     20          1           0        6.656446    1.402259   -1.237885
     21          6           0       -2.618007    0.801200   -0.193859
     22          6           0       -2.246504    1.979146    0.707482
     23          6           0       -0.789108    2.411754    0.544262
     24          1           0       -1.955325   -0.046182    0.029167
     25          1           0       -2.431429    1.076726   -1.241079
     26          1           0       -2.435033    1.701969    1.752588
     27          1           0       -2.910273    2.823759    0.482418
     28          1           0       -0.590531    2.714511   -0.488940
     29          1           0       -0.112591    1.586346    0.788446
     30          1           0       -0.545068    3.255095    1.197776
     31          6           0       -4.071805    0.357174   -0.042070
     32          6           0       -4.443308   -0.820773   -0.943411
     33          6           0       -5.900704   -1.253380   -0.780191
     34          1           0       -4.258383    0.081647    1.005149
     35          1           0       -4.734486    1.204555   -0.265096
     36          1           0       -3.779539   -1.665386   -0.718346
     37          1           0       -4.254779   -0.543596   -1.988516
     38          1           0       -6.577222   -0.427972   -1.024376
     39          1           0       -6.099281   -1.556138    0.253011
     40          1           0       -6.144745   -2.096722   -1.433705
 ---------------------------------------------------------------------

 SCF Done:  E(RHF) =  -470.732625676     A.U. after   11 cycles
 E2 =    -0.1583821098D+01 EUMP2 =    -0.47231644677388D+03

 The electronic state is 1-A.
 Alpha  occ. eigenvalues --  -11.21627 -11.21606 -11.21593 -11.21584 -11.21401
 Alpha  occ. eigenvalues --  -11.21396 -11.21342 -11.21337 -11.21111 -11.21068
 Alpha  occ. eigenvalues --  -11.21064 -11.21058  -1.08454  -1.08415  -1.03572
 Alpha  occ. eigenvalues --   -1.03507  -0.95999  -0.95982  -0.87031  -0.86989
 Alpha  occ. eigenvalues --   -0.79676  -0.79539  -0.78311  -0.78184  -0.65208
 Alpha  occ. eigenvalues --   -0.64956  -0.61135  -0.60767  -0.59400  -0.59316
 Alpha  occ. eigenvalues --   -0.57609  -0.57588  -0.55337  -0.55242  -0.52700
 Alpha  occ. eigenvalues --   -0.52674  -0.52461  -0.52377  -0.50029  -0.49890
 Alpha  occ. eigenvalues --   -0.48121  -0.47803  -0.46871  -0.46491  -0.45936
 Alpha  occ. eigenvalues --   -0.45756  -0.45728  -0.45251  -0.43794  -0.43782
 Alpha virt. eigenvalues --    0.20845   0.23070   0.23594   0.24878   0.25928
 Alpha virt. eigenvalues --    0.26318   0.27113   0.27340   0.28490   0.29326
 Alpha virt. eigenvalues --    0.30719   0.31255   0.31756   0.31810   0.31871

 Mulliken charges:
               1
     1  C   -0.303582
     2  C   -0.299119
     3  C   -0.486648
     4  H    0.149508
     5  H    0.154948
     6  H    0.152156
     7  H    0.152090
     8  H    0.164859
     9  H    0.155525
    10  H    0.160109
    11  C   -0.298067
    12  C   -0.299792
    13  C   -0.475724
    14  H    0.149505
    15  H    0.149700
    16  H    0.151928
    17  H    0.152489
    18  H    0.155156
    19  H    0.155090
    20  H    0.160273
    21  C   -0.305911
    22  C   -0.299163
    23  C   -0.484872
    24  H    0.156215
    25  H    0.149187
    26  H    0.152337
    27  H    0.152145
    28  H    0.154607
    29  H    0.163297
    30  H    0.160878
    31  C   -0.297627
    32  C   -0.299811
    33  C   -0.475726
    34  H    0.149819
    35  H    0.149606
    36  H    0.152259
    37  H    0.151738
    38  H    0.155135
    39  H    0.155288
    40  H    0.160195
 Sum of Mulliken charges =  -0.00000

 Dipole moment (field-independent basis, Debye):
    X=              0.0076    Y=             -0.0003    Z=              0.0062  Tot=              0.0098
 Quadrupole moment (field-independent basis, Debye-Ang):
   XX=            -86.3694   YY=            -84.4745   ZZ=            -83.9598
   XY=             -0.8244   XZ=              1.1786   YZ=             -0.7121

 Normal termination of Gaussian 16 at Thu May  6 09:59:29 2021.
