 Gaussian 16, Revision A.03,
 Gaussian 16:  EM64L-G16RevA.03 25-Dec-2016

 -------------
 #p 6-31g* mp2
 -------------

 ------------------------------------------------------
 Input file generated by CHIRIPA (05-May-2021 14:51:10)
 ------------------------------------------------------
 Symbolic Z-matrix:
 Charge =  0 Multiplicity = 1

                         Standard orientation:
 ---------------------------------------------------------------------
 Center     Atomic      Atomic             Coordinates (Angstroms)
 Number     Number       Type             X           Y           Z
 ---------------------------------------------------------------------
      1          6           0        4.105759    0.049565   -0.266266
      2          6           0        4.720624    1.387520    0.145804
      3          6           0        5.975235    1.733681   -0.656642
      4          1           0        4.854058   -0.744883   -0.140384
      5          1           0        3.860322    0.080984   -1.336859
      6          1           0        4.963557    1.354075    1.215608
      7          1           0        3.970714    2.178847    0.019107
      8          1           0        5.744548    1.794426   -1.725143
      9          1           0        6.743032    0.964969   -0.521844
     10          1           0        6.398360    2.693990   -0.345787
     11          6           0        2.850796   -0.310357    0.526987
     12          6           0        2.235931   -1.648312    0.114917
     13          6           0        0.981321   -1.994473    0.917363
     14          1           0        3.096234   -0.341776    1.597579
     15          1           0        2.102497    0.484091    0.401104
     16          1           0        2.985842   -2.439639    0.241613
     17          1           0        1.992999   -1.614868   -0.954888
     18          1           0        0.213524   -1.225761    0.782564
     19          1           0        1.212008   -2.055218    1.985864
     20          1           0        0.558196   -2.954782    0.606508
     21          6           0       -2.960642   -0.419805   -0.017383
     22          6           0       -3.360341   -1.763158   -0.628635
     23          6           0       -2.314696   -2.853793   -0.394254
     24          1           0       -1.997564   -0.103505   -0.440916
     25          1           0       -2.800054   -0.549234    1.061901
     26          1           0       -3.521474   -1.630939   -1.706212
     27          1           0       -4.322673   -2.076204   -0.203741
     28          1           0       -2.159524   -3.014775    0.677476
     29          1           0       -1.353772   -2.566980   -0.833531
     30          1           0       -2.620657   -3.805638   -0.839495
     31          6           0       -3.995914    0.680597   -0.243337
     32          6           0       -3.596214    2.023950    0.367914
     33          6           0       -4.641860    3.114585    0.133535
     34          1           0       -4.156502    0.810025   -1.322622
     35          1           0       -4.958992    0.364297    0.180195
     36          1           0       -2.633882    2.336997   -0.056980
     37          1           0       -3.435082    1.891731    1.445490
     38          1           0       -5.602784    2.827772    0.572810
     39          1           0       -4.797032    3.275568   -0.938197
     40          1           0       -4.335898    4.066430    0.578774
 ---------------------------------------------------------------------

 SCF Done:  E(RHF) =  -470.731869026     A.U. after   11 cycles
 E2 =    -0.1583487963D+01 EUMP2 =    -0.47231535698917D+03

 The electronic state is 1-A.
 Alpha  occ. eigenvalues --  -11.21619 -11.21587 -11.21572 -11.21547 -11.21420
 Alpha  occ. eigenvalues --  -11.21378 -11.21361 -11.21317 -11.21084 -11.21062
 Alpha  occ. eigenvalues --  -11.20932 -11.20876  -1.08443  -1.08390  -1.03561
 Alpha  occ. eigenvalues --   -1.03445  -0.96044  -0.95860  -0.87101  -0.86843
 Alpha  occ. eigenvalues --   -0.79718  -0.79433  -0.78284  -0.78174  -0.65096
 Alpha  occ. eigenvalues --   -0.65005  -0.61009  -0.60818  -0.59416  -0.59279
 Alpha  occ. eigenvalues --   -0.57709  -0.57419  -0.55328  -0.55146  -0.52932
 Alpha  occ. eigenvalues --   -0.52657  -0.52378  -0.52045  -0.49981  -0.49835
 Alpha  occ. eigenvalues --   -0.47873  -0.47839  -0.46679  -0.46551  -0.45855
 Alpha  occ. eigenvalues --   -0.45725  -0.45710  -0.45535  -0.43779  -0.43686
 Alpha virt. eigenvalues --    0.21668   0.23125   0.23577   0.24795   0.26153
 Alpha virt. eigenvalues --    0.26642   0.26954   0.27227   0.27983   0.29409
 Alpha virt. eigenvalues --    0.30020   0.30703   0.31410   0.31925   0.32188

 Mulliken charges:
               1
     1  C   -0.298181
     2  C   -0.299594
     3  C   -0.475672
     4  H    0.149658
     5  H    0.149205
     6  H    0.151944
     7  H    0.151804
     8  H    0.155076
     9  H    0.155180
    10  H    0.160194
    11  C   -0.298214
    12  C   -0.301076
    13  C   -0.481702
    14  H    0.149649
    15  H    0.149290
    16  H    0.151824
    17  H    0.150728
    18  H    0.160384
    19  H    0.153665
    20  H    0.164807
    21  C   -0.300187
    22  C   -0.299934
    23  C   -0.477927
    24  H    0.149731
    25  H    0.150469
    26  H    0.151360
    27  H    0.151616
    28  H    0.156702
    29  H    0.160303
    30  H    0.158606
    31  C   -0.298091
    32  C   -0.299632
    33  C   -0.475706
    34  H    0.149481
    35  H    0.149908
    36  H    0.151448
    37  H    0.152127
    38  H    0.155293
    39  H    0.155166
    40  H    0.160297
 Sum of Mulliken charges =  -0.00000

 Dipole moment (field-independent basis, Debye):
    X=             -0.0276    Y=             -0.0165    Z=              0.0122  Tot=              0.0344
 Quadrupole moment (field-independent basis, Debye-Ang):
   XX=            -85.6590   YY=            -85.4433   ZZ=            -83.8111
   XY=              0.0543   XZ=              0.3398   YZ=             -0.3273

 Normal termination of Gaussian 16 at Thu May  6 03:47:48 2021.
