 Gaussian 16, Revision A.03,
 Gaussian 16:  EM64L-G16RevA.03 25-Dec-2016

 -------------
 #p 6-31g* mp2
 -------------

 ------------------------------------------------------
 Input file generated by CHIRIPA (05-May-2021 14:51:14)
 ------------------------------------------------------
 Symbolic Z-matrix:
 Charge =  0 Multiplicity = 1

                         Standard orientation:
 ---------------------------------------------------------------------
 Center     Atomic      Atomic             Coordinates (Angstroms)
 Number     Number       Type             X           Y           Z
 ---------------------------------------------------------------------
      1          6           0        2.178857   -0.206322   -0.822039
      2          6           0        2.808698   -1.591024   -0.667488
      3          6           0        2.157484   -2.640591   -1.568666
      4          1           0        1.105809   -0.271235   -0.595545
      5          1           0        2.258254    0.109895   -1.871371
      6          1           0        2.729371   -1.903941    0.381515
      7          1           0        3.880408   -1.522769   -0.894190
      8          1           0        2.249157   -2.354691   -2.621499
      9          1           0        1.091579   -2.738028   -1.338546
     10          1           0        2.623067   -3.622974   -1.442111
     11          6           0        2.819155    0.853720    0.072420
     12          6           0        2.189314    2.238422   -0.082131
     13          6           0        2.840528    3.287990    0.819047
     14          1           0        2.739758    0.537504    1.121753
     15          1           0        3.892203    0.918633   -0.154073
     16          1           0        1.117604    2.170167    0.144571
     17          1           0        2.268641    2.551339   -1.131133
     18          1           0        3.906433    3.385427    0.588928
     19          1           0        2.748856    3.002089    1.871881
     20          1           0        2.374945    4.270372    0.692492
     21          6           0       -2.163920   -0.997540    0.505531
     22          6           0       -1.085391   -0.938598    1.587790
     23          6           0       -0.424230   -2.294358    1.837941
     24          1           0       -2.927691   -1.731247    0.797546
     25          1           0       -1.716942   -1.366374   -0.428046
     26          1           0       -1.533969   -0.568673    2.518676
     27          1           0       -0.324198   -0.204807    1.293256
     28          1           0        0.049159   -2.666652    0.923664
     29          1           0       -1.167486   -3.032586    2.156046
     30          1           0        0.343534   -2.229289    2.615221
     31          6           0       -2.834092    0.350142    0.244087
     32          6           0       -3.912622    0.291200   -0.838172
     33          6           0       -4.573782    1.646960   -1.088322
     34          1           0       -3.281070    0.718976    1.177665
     35          1           0       -2.070321    1.083849   -0.047927
     36          1           0       -4.673815   -0.442591   -0.543638
     37          1           0       -3.464043   -0.078726   -1.769057
     38          1           0       -3.830526    2.385187   -1.406427
     39          1           0       -5.047171    2.019254   -0.174045
     40          1           0       -5.341546    1.581891   -1.865602
 ---------------------------------------------------------------------

 SCF Done:  E(RHF) =  -470.732688520     A.U. after   11 cycles
 E2 =    -0.1585111894D+01 EUMP2 =    -0.47231780041396D+03

 The electronic state is 1-A.
 Alpha  occ. eigenvalues --  -11.21658 -11.21653 -11.21627 -11.21607 -11.21468
 Alpha  occ. eigenvalues --  -11.21430 -11.21405 -11.21366 -11.21121 -11.21118
 Alpha  occ. eigenvalues --  -11.21097 -11.21085  -1.08537  -1.08422  -1.03621
 Alpha  occ. eigenvalues --   -1.03526  -0.96041  -0.96006  -0.87059  -0.87019
 Alpha  occ. eigenvalues --   -0.79657  -0.79617  -0.78338  -0.78249  -0.65560
 Alpha  occ. eigenvalues --   -0.64753  -0.61258  -0.60666  -0.59430  -0.59348
 Alpha  occ. eigenvalues --   -0.57673  -0.57600  -0.55433  -0.55200  -0.52718
 Alpha  occ. eigenvalues --   -0.52707  -0.52477  -0.52420  -0.50089  -0.49837
 Alpha  occ. eigenvalues --   -0.48043  -0.47893  -0.46710  -0.46642  -0.46120
 Alpha  occ. eigenvalues --   -0.45789  -0.45731  -0.45391  -0.43832  -0.43814
 Alpha virt. eigenvalues --    0.18729   0.22080   0.23086   0.24902   0.25340
 Alpha virt. eigenvalues --    0.26329   0.26523   0.28186   0.28772   0.30208
 Alpha virt. eigenvalues --    0.30699   0.31330   0.31612   0.31835   0.32452

 Mulliken charges:
               1
     1  C   -0.304426
     2  C   -0.301465
     3  C   -0.479214
     4  H    0.155403
     5  H    0.149545
     6  H    0.154729
     7  H    0.152365
     8  H    0.155521
     9  H    0.156570
    10  H    0.160937
    11  C   -0.298801
    12  C   -0.301946
    13  C   -0.475637
    14  H    0.150117
    15  H    0.150192
    16  H    0.152593
    17  H    0.152141
    18  H    0.155343
    19  H    0.155510
    20  H    0.160418
    21  C   -0.300367
    22  C   -0.305704
    23  C   -0.481874
    24  H    0.150455
    25  H    0.150174
    26  H    0.152916
    27  H    0.156433
    28  H    0.161904
    29  H    0.155758
    30  H    0.159914
    31  C   -0.299319
    32  C   -0.299737
    33  C   -0.475823
    34  H    0.149868
    35  H    0.150073
    36  H    0.152058
    37  H    0.152368
    38  H    0.155449
    39  H    0.155162
    40  H    0.160398
 Sum of Mulliken charges =  -0.00000

 Dipole moment (field-independent basis, Debye):
    X=              0.0009    Y=             -0.0072    Z=              0.0039  Tot=              0.0083
 Quadrupole moment (field-independent basis, Debye-Ang):
   XX=            -84.1831   YY=            -86.2274   ZZ=            -84.1842
   XY=              0.5006   XZ=             -1.3635   YZ=             -0.5725

 Normal termination of Gaussian 16 at Wed May  5 21:39:39 2021.
