 Gaussian 16, Revision A.03,
 Gaussian 16:  EM64L-G16RevA.03 25-Dec-2016

 -------------
 #p 6-31g* mp2
 -------------

 ------------------------------------------------------
 Input file generated by CHIRIPA (05-May-2021 14:53:15)
 ------------------------------------------------------
 Symbolic Z-matrix:
 Charge =  0 Multiplicity = 1

                         Standard orientation:
 ---------------------------------------------------------------------
 Center     Atomic      Atomic             Coordinates (Angstroms)
 Number     Number       Type             X           Y           Z
 ---------------------------------------------------------------------
      1          6           0        4.875526   -0.123600    0.315032
      2          6           0        5.750240    1.051061   -0.124322
      3          6           0        7.127222    1.043754    0.540253
      4          1           0        4.757407   -0.096280    1.406933
      5          1           0        5.392149   -1.064472    0.079970
      6          1           0        5.231511    1.989420    0.110241
      7          1           0        5.866131    1.021052   -1.215324
      8          1           0        7.667848    0.123535    0.296283
      9          1           0        7.029622    1.097404    1.629380
     10          1           0        7.735937    1.892028    0.211987
     11          6           0        3.495818   -0.130070   -0.340782
     12          6           0        2.621104   -1.304731    0.098572
     13          6           0        1.244121   -1.297424   -0.566003
     14          1           0        2.979194    0.810802   -0.105720
     15          1           0        3.613936   -0.157390   -1.432683
     16          1           0        2.505212   -1.274722    1.189573
     17          1           0        3.139832   -2.243090   -0.135991
     18          1           0        1.341722   -1.351074   -1.655130
     19          1           0        0.703496   -0.377205   -0.322034
     20          1           0        0.635406   -2.145698   -0.237737
     21          6           0       -2.678015   -2.353140    0.054569
     22          6           0       -2.342151   -1.571987   -1.056069
     23          6           0       -2.665236   -0.212244   -1.091615
     24          6           0       -3.327292    0.336162    0.005755
     25          6           0       -3.675386   -0.415859    1.126730
     26          6           0       -3.342389   -1.773604    1.140510
     27          1           0       -2.423184   -3.408645    0.073727
     28          1           0       -1.826178   -2.019379   -1.900851
     29          1           0       -2.417103    0.415668   -1.938712
     30          1           0       -4.189614    0.058385    1.953822
     31          1           0       -3.604470   -2.377829    2.004379
     32          7           0       -3.674575    1.774603   -0.020354
     33          8           0       -4.257948    2.233891    0.959119
     34          8           0       -3.356826    2.415529   -1.019796
 ---------------------------------------------------------------------

 SCF Done:  E(RHF) =  -669.535277603     A.U. after   15 cycles
 E2 =    -0.2091806136D+01 EUMP2 =    -0.67162708373831D+03

 The electronic state is 1-A.
 Alpha  occ. eigenvalues --  -20.60764 -20.60759 -15.85817 -11.31184 -11.27729
 Alpha  occ. eigenvalues --  -11.27715 -11.27468 -11.26767 -11.26737 -11.21924
 Alpha  occ. eigenvalues --  -11.21704 -11.21606 -11.21527 -11.21509 -11.21154
 Alpha  occ. eigenvalues --   -1.59840  -1.39393  -1.19346  -1.08748  -1.08637
 Alpha  occ. eigenvalues --   -1.04747  -1.03761  -0.96223  -0.95580  -0.87254
 Alpha  occ. eigenvalues --   -0.86138  -0.82409  -0.79834  -0.78440  -0.77453
 Alpha  occ. eigenvalues --   -0.72035  -0.71163  -0.70453  -0.65267  -0.64999
 Alpha  occ. eigenvalues --   -0.64749  -0.62093  -0.61158  -0.59609  -0.57828
 Alpha  occ. eigenvalues --   -0.55516  -0.55250  -0.53371  -0.52856  -0.52681
 Alpha  occ. eigenvalues --   -0.52583  -0.50149  -0.48793  -0.48790  -0.48150
 Alpha  occ. eigenvalues --   -0.46852  -0.45989  -0.45897  -0.44799  -0.44026
 Alpha  occ. eigenvalues --   -0.37299  -0.36291
 Alpha virt. eigenvalues --    0.05044   0.11262   0.16498   0.21068   0.22700
 Alpha virt. eigenvalues --    0.24087   0.26317   0.26666   0.27269   0.28017
 Alpha virt. eigenvalues --    0.28488   0.30285   0.31296   0.31729   0.31976

 Mulliken charges:
               1
     1  C   -0.298411
     2  C   -0.300003
     3  C   -0.475843
     4  H    0.150055
     5  H    0.148873
     6  H    0.153543
     7  H    0.151972
     8  H    0.154729
     9  H    0.155450
    10  H    0.161084
    11  C   -0.299034
    12  C   -0.300489
    13  C   -0.475589
    14  H    0.152237
    15  H    0.149285
    16  H    0.152918
    17  H    0.150549
    18  H    0.149925
    19  H    0.160778
    20  H    0.154116
    21  C   -0.172548
    22  C   -0.210878
    23  C   -0.172961
    24  C    0.158269
    25  C   -0.171543
    26  C   -0.218290
    27  H    0.225276
    28  H    0.224986
    29  H    0.275691
    30  H    0.275387
    31  H    0.223330
    32  N    0.488015
    33  O   -0.460480
    34  O   -0.460400
 Sum of Mulliken charges =  -0.00000

 Dipole moment (field-independent basis, Debye):
    X=              1.2389    Y=             -5.0332    Z=              0.1041  Tot=              5.1845
 Quadrupole moment (field-independent basis, Debye-Ang):
   XX=           -103.6140   YY=            -98.6172   ZZ=            -90.3745
   XY=             17.4988   XZ=             -3.0801   YZ=             -0.0712

 Normal termination of Gaussian 16 at Wed May  5 15:37:56 2021.
