 Gaussian 16, Revision A.03,
 Gaussian 16:  EM64L-G16RevA.03 25-Dec-2016

 -------------
 #p 6-31g* mp2
 -------------

 ------------------------------------------------------
 Input file generated by CHIRIPA (05-May-2021 14:53:13)
 ------------------------------------------------------
 Symbolic Z-matrix:
 Charge =  0 Multiplicity = 1

                         Standard orientation:
 ---------------------------------------------------------------------
 Center     Atomic      Atomic             Coordinates (Angstroms)
 Number     Number       Type             X           Y           Z
 ---------------------------------------------------------------------
      1          6           0       -4.435138   -0.190127    0.252996
      2          6           0       -3.463682    0.933013    0.617433
      3          6           0       -2.020975    0.445521    0.754338
      4          1           0       -4.382962   -0.974750    1.020192
      5          1           0       -4.112486   -0.652979   -0.689904
      6          1           0       -3.788855    1.394517    1.558651
      7          1           0       -3.518316    1.715141   -0.150620
      8          1           0       -1.673000    0.003324   -0.184798
      9          1           0       -1.945077   -0.319122    1.534185
     10          1           0       -1.343499    1.264568    1.015203
     11          6           0       -5.881343    0.281571    0.112575
     12          6           0       -6.852799   -0.841569   -0.251863
     13          6           0       -8.295506   -0.354078   -0.388767
     14          1           0       -6.203995    0.744423    1.055474
     15          1           0       -5.933518    1.066194   -0.654621
     16          1           0       -6.798165   -1.623697    0.516191
     17          1           0       -6.527626   -1.303073   -1.193081
     18          1           0       -8.371404    0.410565   -1.168615
     19          1           0       -8.643481    0.088120    0.550369
     20          1           0       -8.972981   -1.173124   -0.649633
     21          6           0        1.597683    0.424224   -0.631490
     22          6           0        2.035616   -0.889344   -0.433301
     23          6           0        3.380910   -1.155943   -0.161905
     24          6           0        4.265010   -0.080186   -0.095556
     25          6           0        3.859308    1.239481   -0.288362
     26          6           0        2.509321    1.482578   -0.558517
     27          1           0        0.550803    0.622195   -0.841835
     28          1           0        1.329863   -1.713245   -0.489385
     29          1           0        3.746962   -2.163219   -0.004366
     30          1           0        4.586408    2.040036   -0.226259
     31          1           0        2.172049    2.503722   -0.712002
     32          7           0        5.691698   -0.349982    0.191102
     33          8           0        6.450692    0.615281    0.244324
     34          8           0        6.023928   -1.521602    0.357133
 ---------------------------------------------------------------------

 SCF Done:  E(RHF) =  -669.535306217     A.U. after   15 cycles
 E2 =    -0.2091036133D+01 EUMP2 =    -0.67162634234984D+03

 The electronic state is 1-A.
 Alpha  occ. eigenvalues --  -20.60693 -20.60688 -15.85747 -11.31089 -11.27666
 Alpha  occ. eigenvalues --  -11.27661 -11.27322 -11.26660 -11.26647 -11.22552
 Alpha  occ. eigenvalues --  -11.22347 -11.22174 -11.22130 -11.21997 -11.21511
 Alpha  occ. eigenvalues --   -1.59770  -1.39324  -1.19259  -1.09176  -1.08650
 Alpha  occ. eigenvalues --   -1.04664  -1.04313  -0.96791  -0.95488  -0.87814
 Alpha  occ. eigenvalues --   -0.86058  -0.82331  -0.80389  -0.78948  -0.77384
 Alpha  occ. eigenvalues --   -0.71965  -0.71093  -0.70373  -0.65804  -0.64908
 Alpha  occ. eigenvalues --   -0.64671  -0.62017  -0.61716  -0.60176  -0.58367
 Alpha  occ. eigenvalues --   -0.56193  -0.55108  -0.53447  -0.53200  -0.52965
 Alpha  occ. eigenvalues --   -0.52753  -0.50706  -0.48725  -0.48721  -0.48691
 Alpha  occ. eigenvalues --   -0.47397  -0.46499  -0.46396  -0.44735  -0.44544
 Alpha  occ. eigenvalues --   -0.37215  -0.36276
 Alpha virt. eigenvalues --    0.05144   0.11371   0.16608   0.20340   0.22369
 Alpha virt. eigenvalues --    0.23795   0.25670   0.26252   0.26895   0.27381
 Alpha virt. eigenvalues --    0.29154   0.30406   0.30776   0.31267   0.31930

 Mulliken charges:
               1
     1  C   -0.299159
     2  C   -0.299818
     3  C   -0.480579
     4  H    0.151305
     5  H    0.148644
     6  H    0.156345
     7  H    0.152244
     8  H    0.145817
     9  H    0.161447
    10  H    0.161103
    11  C   -0.298842
    12  C   -0.300146
    13  C   -0.476091
    14  H    0.151118
    15  H    0.150206
    16  H    0.152804
    17  H    0.152021
    18  H    0.155632
    19  H    0.156061
    20  H    0.161744
    21  C   -0.172708
    22  C   -0.220815
    23  C   -0.170993
    24  C    0.158063
    25  C   -0.170739
    26  C   -0.220866
    27  H    0.233416
    28  H    0.222966
    29  H    0.275186
    30  H    0.275117
    31  H    0.222977
    32  N    0.488091
    33  O   -0.460781
    34  O   -0.460769
 Sum of Mulliken charges =  -0.00000

 Dipole moment (field-independent basis, Debye):
    X=             -5.3045    Y=              0.9562    Z=             -0.9406  Tot=              5.4715
 Quadrupole moment (field-independent basis, Debye-Ang):
   XX=           -138.5488   YY=            -90.1371   ZZ=            -94.3891
   XY=              5.8080   XZ=             -4.3780   YZ=             -0.4630

 Normal termination of Gaussian 16 at Wed May  5 17:01:12 2021.
