 Gaussian 16, Revision A.03,
 Gaussian 16:  EM64L-G16RevA.03 25-Dec-2016

 -------------
 #p 6-31g* mp2
 -------------

 ------------------------------------------------------
 Input file generated by CHIRIPA (05-May-2021 14:53:12)
 ------------------------------------------------------
 Symbolic Z-matrix:
 Charge =  0 Multiplicity = 1

                         Standard orientation:
 ---------------------------------------------------------------------
 Center     Atomic      Atomic             Coordinates (Angstroms)
 Number     Number       Type             X           Y           Z
 ---------------------------------------------------------------------
      1          6           0        3.425485   -0.534483   -0.166617
      2          6           0        4.809360   -1.130417   -0.426886
      3          6           0        4.874658   -2.627730   -0.124257
      4          1           0        3.148752   -0.710507    0.881896
      5          1           0        2.683972   -1.065968   -0.779053
      6          1           0        5.548241   -0.597048    0.184823
      7          1           0        5.082912   -0.952785   -1.474852
      8          1           0        4.159308   -3.177635   -0.744322
      9          1           0        4.627281   -2.819877    0.924783
     10          1           0        5.872786   -3.033156   -0.317206
     11          6           0        3.344358    0.961639   -0.464553
     12          6           0        1.960484    1.557573   -0.204284
     13          6           0        1.895186    3.054886   -0.506913
     14          1           0        4.085871    1.493124    0.147883
     15          1           0        3.621091    1.137663   -1.513065
     16          1           0        1.686931    1.379941    0.843682
     17          1           0        1.221602    1.024204   -0.815993
     18          1           0        2.142563    3.247032   -1.555953
     19          1           0        2.610536    3.604791    0.113152
     20          1           0        0.897057    3.460312   -0.313964
     21          6           0       -4.249230   -0.915547   -1.550707
     22          6           0       -3.723284    0.380287   -1.577436
     23          6           0       -2.833311    0.805907   -0.586809
     24          6           0       -2.489328   -0.094477    0.420303
     25          6           0       -2.996356   -1.391895    0.474321
     26          6           0       -3.884730   -1.795951   -0.526719
     27          1           0       -4.939961   -1.237803   -2.324294
     28          1           0       -4.004586    1.066167   -2.371466
     29          1           0       -2.411155    1.803500   -0.583337
     30          1           0       -2.697251   -2.052988    1.278628
     31          1           0       -4.291615   -2.802900   -0.503427
     32          7           0       -1.548000    0.344693    1.474547
     33          8           0       -1.260730   -0.467649    2.351024
     34          8           0       -1.115281    1.492942    1.404424
 ---------------------------------------------------------------------

 SCF Done:  E(RHF) =  -669.536159345     A.U. after   15 cycles
 E2 =    -0.2091884154D+01 EUMP2 =    -0.67162804349896D+03

 The electronic state is 1-A.
 Alpha  occ. eigenvalues --  -20.60944 -20.60917 -15.85947 -11.31278 -11.27839
 Alpha  occ. eigenvalues --  -11.27834 -11.27577 -11.26848 -11.26838 -11.21066
 Alpha  occ. eigenvalues --  -11.20691 -11.20627 -11.20561 -11.20452 -11.20128
 Alpha  occ. eigenvalues --   -1.59981  -1.39539  -1.19444  -1.08848  -1.07668
 Alpha  occ. eigenvalues --   -1.04840  -1.02755  -0.95692  -0.95239  -0.86269
 Alpha  occ. eigenvalues --   -0.86240  -0.82527  -0.78838  -0.77598  -0.77433
 Alpha  occ. eigenvalues --   -0.72178  -0.71281  -0.70553  -0.65100  -0.64845
 Alpha  occ. eigenvalues --   -0.64304  -0.62188  -0.60161  -0.58610  -0.56814
 Alpha  occ. eigenvalues --   -0.55346  -0.54554  -0.53170  -0.52933  -0.51939
 Alpha  occ. eigenvalues --   -0.51665  -0.49228  -0.48950  -0.48930  -0.47171
 Alpha  occ. eigenvalues --   -0.45869  -0.45250  -0.44935  -0.44582  -0.43010
 Alpha  occ. eigenvalues --   -0.37419  -0.36441
 Alpha virt. eigenvalues --    0.04926   0.11193   0.16403   0.21221   0.23540
 Alpha virt. eigenvalues --    0.24766   0.27069   0.27389   0.27725   0.28344
 Alpha virt. eigenvalues --    0.28962   0.30696   0.31764   0.32077   0.32516

 Mulliken charges:
               1
     1  C   -0.298403
     2  C   -0.298868
     3  C   -0.475273
     4  H    0.155223
     5  H    0.145345
     6  H    0.151789
     7  H    0.149515
     8  H    0.152919
     9  H    0.156547
    10  H    0.158163
    11  C   -0.298506
    12  C   -0.299232
    13  C   -0.476792
    14  H    0.148517
    15  H    0.144256
    16  H    0.173729
    17  H    0.140216
    18  H    0.146724
    19  H    0.153903
    20  H    0.165071
    21  C   -0.170635
    22  C   -0.218634
    23  C   -0.170941
    24  C    0.158739
    25  C   -0.170823
    26  C   -0.218581
    27  H    0.225935
    28  H    0.223865
    29  H    0.275992
    30  H    0.275851
    31  H    0.223784
    32  N    0.489254
    33  O   -0.459597
    34  O   -0.459053
 Sum of Mulliken charges =  -0.00000

 Dipole moment (field-independent basis, Debye):
    X=             -3.5383    Y=             -1.5369    Z=             -3.5064  Tot=              5.2131
 Quadrupole moment (field-independent basis, Debye-Ang):
   XX=            -79.5399   YY=            -91.9236   ZZ=            -96.7237
   XY=              4.9604   XZ=              8.7076   YZ=             -1.9114

 Normal termination of Gaussian 16 at Wed May  5 16:58:54 2021.
