 Gaussian 16, Revision A.03,
 Gaussian 16:  EM64L-G16RevA.03 25-Dec-2016

 -------------
 #p 6-31g* mp2
 -------------

 ------------------------------------------------------
 Input file generated by CHIRIPA (05-May-2021 14:57:25)
 ------------------------------------------------------
 Symbolic Z-matrix:
 Charge =  0 Multiplicity = 1

                         Standard orientation:
 ---------------------------------------------------------------------
 Center     Atomic      Atomic             Coordinates (Angstroms)
 Number     Number       Type             X           Y           Z
 ---------------------------------------------------------------------
      1          6           0       -3.223088    2.693339   -0.002921
      2          6           0       -4.083511    2.050343   -0.898884
      3          6           0       -4.141412    0.654424   -0.949938
      4          6           0       -3.321302   -0.070644   -0.086812
      5          6           0       -2.453700    0.540828    0.816879
      6          6           0       -2.412358    1.937862    0.850596
      7          1           0       -3.184541    3.778155    0.030004
      8          1           0       -4.714277    2.634501   -1.562916
      9          1           0       -4.798397    0.130908   -1.633838
     10          1           0       -1.836966   -0.068419    1.466398
     11          1           0       -1.743187    2.434524    1.547432
     12          7           0       -3.373834   -1.549031   -0.131684
     13          8           0       -2.641147   -2.165082    0.639217
     14          8           0       -4.146702   -2.063746   -0.936905
     15          6           0        1.286671   -1.347560    1.018455
     16          6           0        2.061969   -1.968520    0.033649
     17          6           0        3.186643   -1.327103   -0.493835
     18          6           0        3.508508   -0.059461   -0.011366
     19          6           0        2.755990    0.585313    0.969080
     20          6           0        1.635540   -0.074869    1.482210
     21          1           0        0.414638   -1.853117    1.422641
     22          1           0        1.793411   -2.956875   -0.328398
     23          1           0        3.804439   -1.784803   -1.256893
     24          1           0        3.048770    1.570915    1.310086
     25          1           0        1.035278    0.409791    2.246955
     26          7           0        4.696913    0.629512   -0.562191
     27          8           0        4.959313    1.746000   -0.120334
     28          8           0        5.343485    0.039994   -1.425355
 ---------------------------------------------------------------------

 SCF Done:  E(RHF) =  -868.338745276     A.U. after   16 cycles
 E2 =    -0.2599909651D+01 EUMP2 =    -0.87093865492654D+03

 The electronic state is 1-A.
 Alpha  occ. eigenvalues --  -20.61708 -20.61648 -20.60781 -20.60767 -15.86720
 Alpha  occ. eigenvalues --  -15.85832 -11.31920 -11.31151 -11.28561 -11.28420
 Alpha  occ. eigenvalues --  -11.28141 -11.27808 -11.27687 -11.27482 -11.27387
 Alpha  occ. eigenvalues --  -11.27337 -11.26829 -11.26589  -1.60738  -1.59854
 Alpha  occ. eigenvalues --   -1.40304  -1.39409  -1.20070  -1.19323  -1.09483
 Alpha  occ. eigenvalues --   -1.08702  -1.05463  -1.04736  -0.96356  -0.95540
 Alpha  occ. eigenvalues --   -0.86866  -0.86127  -0.83208  -0.82388  -0.78291
 Alpha  occ. eigenvalues --   -0.77467  -0.72955  -0.72049  -0.72046  -0.71187
 Alpha  occ. eigenvalues --   -0.71178  -0.70337  -0.65733  -0.65475  -0.64969
 Alpha  occ. eigenvalues --   -0.64755  -0.62835  -0.62085  -0.55940  -0.55120
 Alpha  occ. eigenvalues --   -0.53778  -0.53566  -0.53034  -0.52827  -0.49713
 Alpha  occ. eigenvalues --   -0.49668  -0.48807  -0.48802  -0.45742  -0.44826
 Alpha  occ. eigenvalues --   -0.38013  -0.37336  -0.36975  -0.36337
 Alpha virt. eigenvalues --    0.04237   0.05094   0.10579   0.11271   0.15768
 Alpha virt. eigenvalues --    0.16595   0.18870   0.22163   0.25318   0.26537
 Alpha virt. eigenvalues --    0.27842   0.29173   0.30456   0.31429   0.32386

 Mulliken charges:
               1
     1  C   -0.169377
     2  C   -0.218074
     3  C   -0.169691
     4  C    0.158571
     5  C   -0.167580
     6  C   -0.217296
     7  H    0.228925
     8  H    0.226558
     9  H    0.277389
    10  H    0.266077
    11  H    0.221340
    12  N    0.490427
    13  O   -0.471525
    14  O   -0.454907
    15  C   -0.176521
    16  C   -0.219934
    17  C   -0.170536
    18  C    0.157719
    19  C   -0.170778
    20  C   -0.221899
    21  H    0.243427
    22  H    0.229868
    23  H    0.276202
    24  H    0.272710
    25  H    0.212844
    26  N    0.488210
    27  O   -0.462425
    28  O   -0.459720
 Sum of Mulliken charges =  -0.00000

 Dipole moment (field-independent basis, Debye):
    X=             -4.2438    Y=              2.7215    Z=              1.8806  Tot=              5.3808
 Quadrupole moment (field-independent basis, Debye-Ang):
   XX=           -133.4401   YY=           -102.4356   ZZ=           -101.5822
   XY=            -27.4429   XZ=              8.9380   YZ=              1.8932

 Normal termination of Gaussian 16 at Fri May  7 06:32:30 2021.
