 Gaussian 16, Revision A.03,
 Gaussian 16:  EM64L-G16RevA.03 25-Dec-2016

 -------------
 #p 6-31g* mp2
 -------------

 ------------------------------------------------------
 Input file generated by CHIRIPA (05-May-2021 14:55:23)
 ------------------------------------------------------
 Symbolic Z-matrix:
 Charge =  0 Multiplicity = 1

                         Standard orientation:
 ---------------------------------------------------------------------
 Center     Atomic      Atomic             Coordinates (Angstroms)
 Number     Number       Type             X           Y           Z
 ---------------------------------------------------------------------
      1          6           0       -0.413571   -2.199313    1.117203
      2          6           0       -1.082751   -2.549745   -0.060047
      3          6           0       -2.045323   -1.697978   -0.610045
      4          6           0       -2.315057   -0.498135    0.046392
      5          6           0       -1.665316   -0.120907    1.220626
      6          6           0       -0.706473   -0.988148    1.752662
      7          1           0        0.332729   -2.866996    1.537477
      8          1           0       -0.857323   -3.489716   -0.555709
      9          1           0       -2.578362   -1.944490   -1.520275
     10          1           0       -1.911563    0.822799    1.692006
     11          1           0       -0.188349   -0.713400    2.667051
     12          7           0       -3.332115    0.411783   -0.526358
     13          8           0       -3.551574    1.463194    0.071146
     14          8           0       -3.890567    0.056338   -1.561938
     15          6           0        2.504970    1.459934    0.175683
     16          6           0        1.136710    1.939696   -0.309783
     17          6           0        0.662639    3.201694    0.411612
     18          1           0        2.457524    1.270114    1.256730
     19          1           0        3.240021    2.263857    0.031457
     20          1           0        0.404741    1.134617   -0.165963
     21          1           0        1.187368    2.128212   -1.389834
     22          1           0        1.370914    4.022281    0.258039
     23          1           0        0.583839    3.023040    1.488865
     24          1           0       -0.317429    3.527147    0.049109
     25          6           0        2.992460    0.199203   -0.536102
     26          6           0        4.360720   -0.280559   -0.050636
     27          6           0        4.834792   -1.542557   -0.772031
     28          1           0        2.257409   -0.604721   -0.391876
     29          1           0        3.039906    0.389022   -1.617149
     30          1           0        4.310063   -0.469075    1.029416
     31          1           0        5.092689    0.524520   -0.194457
     32          1           0        4.913590   -1.363903   -1.849285
     33          1           0        4.126516   -2.363145   -0.618458
     34          1           0        5.814859   -1.868010   -0.409527
 ---------------------------------------------------------------------

 SCF Done:  E(RHF) =  -669.535046722     A.U. after   15 cycles
 E2 =    -0.2094182069D+01 EUMP2 =    -0.67162922879063D+03

 The electronic state is 1-A.
 Alpha  occ. eigenvalues --  -20.60862 -20.60857 -15.85915 -11.31312 -11.27892
 Alpha  occ. eigenvalues --  -11.27871 -11.27665 -11.26921 -11.26910 -11.21981
 Alpha  occ. eigenvalues --  -11.21651 -11.21582 -11.21514 -11.21495 -11.21046
 Alpha  occ. eigenvalues --   -1.59935  -1.39487  -1.19515  -1.08894  -1.08652
 Alpha  occ. eigenvalues --   -1.04921  -1.03730  -0.96195  -0.95717  -0.87206
 Alpha  occ. eigenvalues --   -0.86304  -0.82545  -0.79801  -0.78460  -0.77584
 Alpha  occ. eigenvalues --   -0.72132  -0.71260  -0.70608  -0.65324  -0.65155
 Alpha  occ. eigenvalues --   -0.64903  -0.62256  -0.61170  -0.59557  -0.57787
 Alpha  occ. eigenvalues --   -0.55525  -0.55397  -0.53318  -0.52992  -0.52835
 Alpha  occ. eigenvalues --   -0.52610  -0.50159  -0.48895  -0.48885  -0.48109
 Alpha  occ. eigenvalues --   -0.46859  -0.45997  -0.45869  -0.44879  -0.43971
 Alpha  occ. eigenvalues --   -0.37474  -0.36429
 Alpha virt. eigenvalues --    0.04918   0.11083   0.16350   0.20630   0.22897
 Alpha virt. eigenvalues --    0.23794   0.26144   0.26761   0.27186   0.27954
 Alpha virt. eigenvalues --    0.28772   0.30664   0.31326   0.31635   0.32090

 Mulliken charges:
               1
     1  C   -0.170797
     2  C   -0.218287
     3  C   -0.170773
     4  C    0.162847
     5  C   -0.177305
     6  C   -0.215817
     7  H    0.226609
     8  H    0.224475
     9  H    0.276380
    10  H    0.277739
    11  H    0.224525
    12  N    0.488190
    13  O   -0.460343
    14  O   -0.459905
    15  C   -0.295584
    16  C   -0.308756
    17  C   -0.478138
    18  H    0.142334
    19  H    0.150587
    20  H    0.160131
    21  H    0.153524
    22  H    0.155867
    23  H    0.146655
    24  H    0.170794
    25  C   -0.300658
    26  C   -0.299333
    27  C   -0.474635
    28  H    0.148219
    29  H    0.151411
    30  H    0.148023
    31  H    0.153961
    32  H    0.157258
    33  H    0.149939
    34  H    0.160862
 Sum of Mulliken charges =  -0.00000

 Dipole moment (field-independent basis, Debye):
    X=              3.4372    Y=             -3.2115    Z=              1.9490  Tot=              5.0918
 Quadrupole moment (field-independent basis, Debye-Ang):
   XX=           -112.1797   YY=            -90.2091   ZZ=            -91.7879
   XY=              6.9471   XZ=             -4.1462   YZ=              0.6337

 Normal termination of Gaussian 16 at Wed May  5 20:43:32 2021.
