 Gaussian 16, Revision A.03,
 Gaussian 16:  EM64L-G16RevA.03 25-Dec-2016

 -------------
 #p 6-31g* mp2
 -------------

 ------------------------------------------------------
 Input file generated by CHIRIPA (05-May-2021 14:51:07)
 ------------------------------------------------------
 Symbolic Z-matrix:
 Charge =  0 Multiplicity = 1

                         Standard orientation:
 ---------------------------------------------------------------------
 Center     Atomic      Atomic             Coordinates (Angstroms)
 Number     Number       Type             X           Y           Z
 ---------------------------------------------------------------------
      1          6           0       -2.409270    0.847158   -0.492151
      2          6           0       -2.253048    2.295256   -0.026755
      3          6           0       -2.194957    3.286781   -1.189208
      4          1           0       -1.571591    0.589182   -1.154486
      5          1           0       -3.323310    0.759917   -1.095736
      6          1           0       -1.340307    2.379447    0.576927
      7          1           0       -3.091094    2.549755    0.634701
      8          1           0       -3.109700    3.232112   -1.788255
      9          1           0       -1.348965    3.060836   -1.846358
     10          1           0       -2.083123    4.315902   -0.833871
     11          6           0       -2.468871   -0.155899    0.658523
     12          6           0       -2.625093   -1.603996    0.193126
     13          6           0       -2.683183   -2.595522    1.355579
     14          1           0       -1.554831   -0.068658    1.262108
     15          1           0       -3.306550    0.102078    1.320857
     16          1           0       -1.787046   -1.858496   -0.468330
     17          1           0       -3.537834   -1.688187   -0.410555
     18          1           0       -3.529176   -2.369577    2.012729
     19          1           0       -1.768441   -2.540853    1.954626
     20          1           0       -2.795017   -3.624643    1.000242
     21          6           0        2.580705   -1.079793   -0.239315
     22          6           0        1.366611   -1.827435   -0.791576
     23          6           0        1.665711   -3.295016   -1.099051
     24          1           0        3.403635   -1.143668   -0.964332
     25          1           0        2.928504   -1.583110    0.673429
     26          1           0        1.020361   -1.322049   -1.702242
     27          1           0        0.546414   -1.761610   -0.065245
     28          1           0        1.989980   -3.819780   -0.194577
     29          1           0        2.466620   -3.377721   -1.840876
     30          1           0        0.784120   -3.810476   -1.492701
     31          6           0        2.297436    0.388534    0.072944
     32          6           0        3.511529    1.136176    0.625205
     33          6           0        3.212431    2.603756    0.932680
     34          1           0        1.949637    0.891851   -0.839801
     35          1           0        1.474505    0.452408    0.797960
     36          1           0        4.331727    1.070351   -0.101127
     37          1           0        3.857780    0.630789    1.535871
     38          1           0        2.411520    2.686462    1.674505
     39          1           0        2.888161    3.128521    0.028206
     40          1           0        4.094020    3.119217    1.326330
 ---------------------------------------------------------------------

 SCF Done:  E(RHF) =  -470.733220096     A.U. after   11 cycles
 E2 =    -0.1584270934D+01 EUMP2 =    -0.47231749103074D+03

 The electronic state is 1-A.
 Alpha  occ. eigenvalues --  -11.21677 -11.21671 -11.21554 -11.21526 -11.21498
 Alpha  occ. eigenvalues --  -11.21435 -11.21370 -11.21302 -11.21138 -11.21126
 Alpha  occ. eigenvalues --  -11.21072 -11.21039  -1.08529  -1.08379  -1.03620
 Alpha  occ. eigenvalues --   -1.03483  -0.96053  -0.95948  -0.87068  -0.86964
 Alpha  occ. eigenvalues --   -0.79714  -0.79529  -0.78358  -0.78183  -0.65275
 Alpha  occ. eigenvalues --   -0.64918  -0.61158  -0.60774  -0.59417  -0.59301
 Alpha  occ. eigenvalues --   -0.57667  -0.57552  -0.55366  -0.55207  -0.52742
 Alpha  occ. eigenvalues --   -0.52642  -0.52473  -0.52375  -0.50011  -0.49887
 Alpha  occ. eigenvalues --   -0.48103  -0.47806  -0.46794  -0.46516  -0.46088
 Alpha  occ. eigenvalues --   -0.45862  -0.45580  -0.45422  -0.43858  -0.43746
 Alpha virt. eigenvalues --    0.19507   0.22392   0.23754   0.24002   0.25503
 Alpha virt. eigenvalues --    0.26000   0.26836   0.27835   0.28490   0.30326
 Alpha virt. eigenvalues --    0.30632   0.31208   0.31615   0.31743   0.32482

 Mulliken charges:
               1
     1  C   -0.299341
     2  C   -0.300170
     3  C   -0.475510
     4  H    0.151797
     5  H    0.149157
     6  H    0.152728
     7  H    0.151556
     8  H    0.154958
     9  H    0.154831
    10  H    0.160226
    11  C   -0.299646
    12  C   -0.306014
    13  C   -0.476129
    14  H    0.149547
    15  H    0.149652
    16  H    0.158682
    17  H    0.152139
    18  H    0.155358
    19  H    0.154288
    20  H    0.160322
    21  C   -0.297945
    22  C   -0.306628
    23  C   -0.476416
    24  H    0.150073
    25  H    0.149768
    26  H    0.151922
    27  H    0.158894
    28  H    0.155609
    29  H    0.155623
    30  H    0.160888
    31  C   -0.300551
    32  C   -0.299739
    33  C   -0.475916
    34  H    0.149512
    35  H    0.150672
    36  H    0.152368
    37  H    0.152205
    38  H    0.155086
    39  H    0.155481
    40  H    0.160664
 Sum of Mulliken charges =  -0.00000

 Dipole moment (field-independent basis, Debye):
    X=              0.0441    Y=             -0.0140    Z=             -0.0141  Tot=              0.0484
 Quadrupole moment (field-independent basis, Debye-Ang):
   XX=            -83.6645   YY=            -86.5521   ZZ=            -84.5012
   XY=             -0.0154   XZ=             -0.2216   YZ=              0.1164

 Normal termination of Gaussian 16 at Thu May  6 00:28:59 2021.
