 Gaussian 16, Revision A.03,
 Gaussian 16:  EM64L-G16RevA.03 25-Dec-2016

 -------------
 #p 6-31g* mp2
 -------------

 ------------------------------------------------------
 Input file generated by CHIRIPA (05-May-2021 14:51:10)
 ------------------------------------------------------
 Symbolic Z-matrix:
 Charge =  0 Multiplicity = 1

                         Standard orientation:
 ---------------------------------------------------------------------
 Center     Atomic      Atomic             Coordinates (Angstroms)
 Number     Number       Type             X           Y           Z
 ---------------------------------------------------------------------
      1          6           0       -2.378570   -0.132300   -0.075329
      2          6           0       -3.448091   -1.107636   -0.568107
      3          6           0       -2.964268   -2.557987   -0.581864
      4          1           0       -1.490187   -0.217914   -0.715946
      5          1           0       -2.063897   -0.424442    0.936121
      6          1           0       -3.761647   -0.812924   -1.577782
      7          1           0       -4.334102   -1.019553    0.073641
      8          1           0       -2.669792   -2.875413    0.423684
      9          1           0       -2.094084   -2.667610   -1.237123
     10          1           0       -3.744538   -3.238136   -0.937442
     11          6           0       -2.847248    1.321553   -0.055884
     12          6           0       -1.777727    2.296889    0.436895
     13          6           0       -2.261550    3.747240    0.450652
     14          1           0       -3.161920    1.613695   -1.067333
     15          1           0       -3.735631    1.407167    0.584734
     16          1           0       -0.891715    2.208806   -0.204853
     17          1           0       -1.464171    2.002177    1.446570
     18          1           0       -3.131734    3.856862    1.105910
     19          1           0       -2.556026    4.064666   -0.554896
     20          1           0       -1.481279    4.427389    0.806229
     21          6           0        1.917018   -0.908856    0.044942
     22          6           0        1.865663   -2.309301    0.656580
     23          6           0        0.466858   -2.924735    0.607831
     24          1           0        1.209576   -0.257489    0.576160
     25          1           0        1.573541   -0.958837   -0.997614
     26          1           0        2.210448   -2.256924    1.697251
     27          1           0        2.573449   -2.957360    0.123968
     28          1           0        0.117599   -3.006057   -0.426580
     29          1           0       -0.247465   -2.301640    1.155642
     30          1           0        0.453004   -3.925693    1.050268
     31          6           0        3.308801   -0.280397    0.086271
     32          6           0        3.360154    1.120047   -0.525367
     33          6           0        4.758959    1.735482   -0.476619
     34          1           0        3.652276   -0.230416    1.128826
     35          1           0        4.016242   -0.931764   -0.444948
     36          1           0        2.652369    1.768107    0.007244
     37          1           0        3.015369    1.067671   -1.566039
     38          1           0        5.473282    1.112388   -1.024430
     39          1           0        5.108219    1.816804    0.557792
     40          1           0        4.772813    2.736441   -0.919056
 ---------------------------------------------------------------------

 SCF Done:  E(RHF) =  -470.731658430     A.U. after   11 cycles
 E2 =    -0.1584853624D+01 EUMP2 =    -0.47231651205413D+03

 The electronic state is 1-A.
 Alpha  occ. eigenvalues --  -11.21610 -11.21593 -11.21543 -11.21515 -11.21376
 Alpha  occ. eigenvalues --  -11.21367 -11.21309 -11.21303 -11.21078 -11.21065
 Alpha  occ. eigenvalues --  -11.20917 -11.20900  -1.08438  -1.08358  -1.03552
 Alpha  occ. eigenvalues --   -1.03428  -0.96016  -0.95859  -0.87069  -0.86847
 Alpha  occ. eigenvalues --   -0.79759  -0.79393  -0.78415  -0.77983  -0.65085
 Alpha  occ. eigenvalues --   -0.64983  -0.61017  -0.60777  -0.59408  -0.59236
 Alpha  occ. eigenvalues --   -0.57756  -0.57362  -0.55361  -0.55103  -0.52769
 Alpha  occ. eigenvalues --   -0.52645  -0.52536  -0.52051  -0.50033  -0.49731
 Alpha  occ. eigenvalues --   -0.48285  -0.47492  -0.46775  -0.46442  -0.46215
 Alpha  occ. eigenvalues --   -0.45772  -0.45498  -0.45111  -0.43748  -0.43734
 Alpha virt. eigenvalues --    0.21241   0.22780   0.23498   0.24532   0.24727
 Alpha virt. eigenvalues --    0.25640   0.26696   0.27468   0.28891   0.29574
 Alpha virt. eigenvalues --    0.30505   0.31357   0.31720   0.31757   0.32126

 Mulliken charges:
               1
     1  C   -0.301904
     2  C   -0.299941
     3  C   -0.476330
     4  H    0.154102
     5  H    0.149242
     6  H    0.151273
     7  H    0.151275
     8  H    0.158269
     9  H    0.156503
    10  H    0.158718
    11  C   -0.297985
    12  C   -0.301115
    13  C   -0.475613
    14  H    0.149498
    15  H    0.149431
    16  H    0.153624
    17  H    0.150943
    18  H    0.155205
    19  H    0.155356
    20  H    0.160103
    21  C   -0.300783
    22  C   -0.300564
    23  C   -0.477626
    24  H    0.153545
    25  H    0.147981
    26  H    0.151043
    27  H    0.151164
    28  H    0.157373
    29  H    0.158982
    30  H    0.158732
    31  C   -0.298113
    32  C   -0.300189
    33  C   -0.475637
    34  H    0.149494
    35  H    0.149509
    36  H    0.152547
    37  H    0.151342
    38  H    0.155177
    39  H    0.155231
    40  H    0.160139
 Sum of Mulliken charges =  -0.00000

 Dipole moment (field-independent basis, Debye):
    X=             -0.0187    Y=             -0.0103    Z=             -0.0001  Tot=              0.0214
 Quadrupole moment (field-independent basis, Debye-Ang):
   XX=            -85.8113   YY=            -86.1869   ZZ=            -83.0280
   XY=             -0.3198   XZ=             -0.4967   YZ=              0.1999

 Normal termination of Gaussian 16 at Wed May  5 18:12:11 2021.
