 Gaussian 16, Revision A.03,
 Gaussian 16:  EM64L-G16RevA.03 25-Dec-2016

 -------------
 #p 6-31g* mp2
 -------------

 ------------------------------------------------------
 Input file generated by CHIRIPA (05-May-2021 14:53:15)
 ------------------------------------------------------
 Symbolic Z-matrix:
 Charge =  0 Multiplicity = 1

                         Standard orientation:
 ---------------------------------------------------------------------
 Center     Atomic      Atomic             Coordinates (Angstroms)
 Number     Number       Type             X           Y           Z
 ---------------------------------------------------------------------
      1          6           0       -4.019982   -0.145904    0.449020
      2          6           0       -4.474198   -0.366139   -0.994299
      3          6           0       -5.996209   -0.379363   -1.139565
      4          1           0       -4.443554   -0.935608    1.084551
      5          1           0       -4.432433    0.804585    0.814874
      6          1           0       -4.059875   -1.315261   -1.357781
      7          1           0       -4.049339    0.424072   -1.626500
      8          1           0       -6.423586    0.570736   -0.803021
      9          1           0       -6.434181   -1.178480   -0.532775
     10          1           0       -6.298899   -0.538162   -2.179287
     11          6           0       -2.500954   -0.130176    0.610374
     12          6           0       -2.046738    0.090059    2.053693
     13          6           0       -0.524727    0.103283    2.198959
     14          1           0       -2.088503   -1.080666    0.244520
     15          1           0       -2.077382    0.659528   -0.025157
     16          1           0       -2.471597   -0.700152    2.685894
     17          1           0       -2.461062    1.039181    2.417175
     18          1           0       -0.086755    0.902399    1.592169
     19          1           0       -0.097350   -0.846816    1.862415
     20          1           0       -0.222037    0.262082    3.238680
     21          6           0        3.592602   -2.167509   -0.104131
     22          6           0        2.423867   -2.031187   -0.860435
     23          6           0        1.835941   -0.775353   -1.038674
     24          6           0        2.446178    0.327817   -0.443766
     25          6           0        3.610778    0.224356    0.315375
     26          6           0        4.181290   -1.041288    0.480330
     27          1           0        4.042554   -3.146882    0.029169
     28          1           0        1.964491   -2.904076   -1.315499
     29          1           0        0.931284   -0.641264   -1.619222
     30          1           0        4.045595    1.112927    0.756731
     31          1           0        5.088960   -1.144164    1.068204
     32          7           0        1.832986    1.662505   -0.625428
     33          8           0        2.390119    2.618837   -0.090948
     34          8           0        0.806841    1.727028   -1.298854
 ---------------------------------------------------------------------

 SCF Done:  E(RHF) =  -669.536053000     A.U. after   15 cycles
 E2 =    -0.2092529536D+01 EUMP2 =    -0.67162858253611D+03

 The electronic state is 1-A.
 Alpha  occ. eigenvalues --  -20.60872 -20.60866 -15.85895 -11.31187 -11.27764
 Alpha  occ. eigenvalues --  -11.27757 -11.27512 -11.26778 -11.26765 -11.21305
 Alpha  occ. eigenvalues --  -11.21258 -11.21049 -11.20936 -11.20824 -11.20778
 Alpha  occ. eigenvalues --   -1.59938  -1.39491  -1.19368  -1.08782  -1.08082
 Alpha  occ. eigenvalues --   -1.04766  -1.03219  -0.95674  -0.95626  -0.86698
 Alpha  occ. eigenvalues --   -0.86166  -0.82462  -0.79293  -0.77902  -0.77506
 Alpha  occ. eigenvalues --   -0.72124  -0.71266  -0.70485  -0.65030  -0.64774
 Alpha  occ. eigenvalues --   -0.64699  -0.62115  -0.60609  -0.59040  -0.57295
 Alpha  occ. eigenvalues --   -0.55279  -0.54955  -0.53144  -0.52861  -0.52380
 Alpha  occ. eigenvalues --   -0.52060  -0.49613  -0.48888  -0.48878  -0.47610
 Alpha  occ. eigenvalues --   -0.46316  -0.45484  -0.45383  -0.44789  -0.43461
 Alpha  occ. eigenvalues --   -0.37329  -0.36354
 Alpha virt. eigenvalues --    0.04984   0.11271   0.16472   0.21287   0.23193
 Alpha virt. eigenvalues --    0.24476   0.26767   0.27039   0.27625   0.28045
 Alpha virt. eigenvalues --    0.28795   0.30871   0.31582   0.32060   0.32092

 Mulliken charges:
               1
     1  C   -0.297865
     2  C   -0.299957
     3  C   -0.475500
     4  H    0.146846
     5  H    0.151220
     6  H    0.147649
     7  H    0.156647
     8  H    0.156145
     9  H    0.153572
    10  H    0.159355
    11  C   -0.304104
    12  C   -0.298299
    13  C   -0.480029
    14  H    0.140326
    15  H    0.166681
    16  H    0.148581
    17  H    0.154612
    18  H    0.160501
    19  H    0.151245
    20  H    0.158959
    21  C   -0.170455
    22  C   -0.219681
    23  C   -0.170045
    24  C    0.158868
    25  C   -0.170528
    26  C   -0.218579
    27  H    0.225606
    28  H    0.223413
    29  H    0.276649
    30  H    0.275634
    31  H    0.223453
    32  N    0.488853
    33  O   -0.459154
    34  O   -0.460620
 Sum of Mulliken charges =  -0.00000

 Dipole moment (field-independent basis, Debye):
    X=              2.2444    Y=             -4.5673    Z=              0.5919  Tot=              5.1233
 Quadrupole moment (field-independent basis, Debye-Ang):
   XX=            -83.1969   YY=            -96.5489   ZZ=            -94.6215
   XY=             -9.6893   XZ=              2.7787   YZ=              3.5429

 Normal termination of Gaussian 16 at Wed May  5 23:32:33 2021.
