 Gaussian 16, Revision A.03,
 Gaussian 16:  EM64L-G16RevA.03 25-Dec-2016

 -------------
 #p 6-31g* mp2
 -------------

 ------------------------------------------------------
 Input file generated by CHIRIPA (05-May-2021 14:51:12)
 ------------------------------------------------------
 Symbolic Z-matrix:
 Charge =  0 Multiplicity = 1

                         Standard orientation:
 ---------------------------------------------------------------------
 Center     Atomic      Atomic             Coordinates (Angstroms)
 Number     Number       Type             X           Y           Z
 ---------------------------------------------------------------------
      1          6           0       -1.863609   -1.363895    0.079780
      2          6           0       -1.001933   -1.530352    1.331895
      3          6           0        0.105806   -2.569027    1.153390
      4          1           0       -2.307372   -2.333716   -0.183786
      5          1           0       -1.220971   -1.074746   -0.763312
      6          1           0       -1.646203   -1.817753    2.172688
      7          1           0       -0.560324   -0.559982    1.592621
      8          1           0        0.772138   -2.284426    0.332656
      9          1           0       -0.319910   -3.549344    0.916019
     10          1           0        0.709577   -2.671969    2.060431
     11          6           0       -2.975388   -0.328935    0.242668
     12          6           0       -3.837065   -0.162477   -1.009447
     13          6           0       -4.944804    0.876197   -0.830942
     14          1           0       -3.618027   -0.618083    1.085760
     15          1           0       -2.531626    0.640887    0.506234
     16          1           0       -4.278674   -1.132848   -1.270173
     17          1           0       -3.192795    0.124924   -1.850240
     18          1           0       -4.519088    1.856515   -0.593571
     19          1           0       -5.611136    0.591597   -0.010208
     20          1           0       -5.548575    0.979140   -1.737983
     21          6           0        2.186258    1.332566    0.379782
     22          6           0        1.333920    2.480198   -0.162847
     23          6           0        0.874905    3.444335    0.931474
     24          1           0        1.610479    0.782838    1.136895
     25          1           0        3.063267    1.748250    0.895009
     26          1           0        0.459498    2.062440   -0.678096
     27          1           0        1.911725    3.027142   -0.918895
     28          1           0        1.736770    3.888432    1.439970
     29          1           0        0.276291    2.918248    1.682138
     30          1           0        0.267105    4.256962    0.521505
     31          6           0        2.652739    0.360262   -0.702229
     32          6           0        3.505078   -0.787369   -0.159601
     33          6           0        3.964092   -1.751505   -1.253922
     34          1           0        1.775731   -0.055421   -1.217457
     35          1           0        3.228519    0.909992   -1.459343
     36          1           0        2.927271   -1.334313    0.596447
     37          1           0        4.379499   -0.369610    0.355648
     38          1           0        4.562707   -1.225419   -2.004585
     39          1           0        3.102228   -2.195604   -1.762418
     40          1           0        4.571893   -2.564133   -0.843953
 ---------------------------------------------------------------------

 SCF Done:  E(RHF) =  -470.732830223     A.U. after   11 cycles
 E2 =    -0.1584758946D+01 EUMP2 =    -0.47231758916895D+03

 The electronic state is 1-A.
 Alpha  occ. eigenvalues --  -11.21689 -11.21659 -11.21645 -11.21540 -11.21481
 Alpha  occ. eigenvalues --  -11.21437 -11.21416 -11.21379 -11.21138 -11.21128
 Alpha  occ. eigenvalues --  -11.21098 -11.21065  -1.08530  -1.08434  -1.03612
 Alpha  occ. eigenvalues --   -1.03540  -0.96048  -0.96006  -0.87091  -0.86997
 Alpha  occ. eigenvalues --   -0.79714  -0.79562  -0.78335  -0.78255  -0.65498
 Alpha  occ. eigenvalues --   -0.64800  -0.61149  -0.60807  -0.59423  -0.59363
 Alpha  occ. eigenvalues --   -0.57658  -0.57608  -0.55326  -0.55301  -0.52748
 Alpha  occ. eigenvalues --   -0.52688  -0.52469  -0.52426  -0.50172  -0.49798
 Alpha  occ. eigenvalues --   -0.47997  -0.47930  -0.46886  -0.46416  -0.45994
 Alpha  occ. eigenvalues --   -0.45898  -0.45645  -0.45551  -0.43848  -0.43805
 Alpha virt. eigenvalues --    0.18356   0.22130   0.23624   0.24719   0.25247
 Alpha virt. eigenvalues --    0.26028   0.27607   0.28062   0.28724   0.29732
 Alpha virt. eigenvalues --    0.31154   0.31175   0.31660   0.31781   0.32501

 Mulliken charges:
               1
     1  C   -0.299520
     2  C   -0.303741
     3  C   -0.481646
     4  H    0.150204
     5  H    0.149848
     6  H    0.152718
     7  H    0.154757
     8  H    0.161822
     9  H    0.155859
    10  H    0.160269
    11  C   -0.299094
    12  C   -0.299686
    13  C   -0.475809
    14  H    0.149891
    15  H    0.150155
    16  H    0.152092
    17  H    0.151894
    18  H    0.155459
    19  H    0.155263
    20  H    0.160430
    21  C   -0.302985
    22  C   -0.300251
    23  C   -0.476063
    24  H    0.154418
    25  H    0.150027
    26  H    0.151493
    27  H    0.152396
    28  H    0.155685
    29  H    0.154861
    30  H    0.160402
    31  C   -0.299934
    32  C   -0.305938
    33  C   -0.476254
    34  H    0.149232
    35  H    0.150165
    36  H    0.158621
    37  H    0.152199
    38  H    0.155198
    39  H    0.154906
    40  H    0.160659
 Sum of Mulliken charges =  -0.00000

 Dipole moment (field-independent basis, Debye):
    X=             -0.0082    Y=             -0.0162    Z=              0.0192  Tot=              0.0265
 Quadrupole moment (field-independent basis, Debye-Ang):
   XX=            -84.4856   YY=            -84.9934   ZZ=            -85.1265
   XY=              1.8890   XZ=             -0.0370   YZ=             -0.8624

 Normal termination of Gaussian 16 at Wed May  5 15:16:48 2021.
