 Gaussian 16, Revision A.03,
 Gaussian 16:  EM64L-G16RevA.03 25-Dec-2016

 -------------
 #p 6-31g* mp2
 -------------

 ------------------------------------------------------
 Input file generated by CHIRIPA (05-May-2021 14:55:21)
 ------------------------------------------------------
 Symbolic Z-matrix:
 Charge =  0 Multiplicity = 1

                         Standard orientation:
 ---------------------------------------------------------------------
 Center     Atomic      Atomic             Coordinates (Angstroms)
 Number     Number       Type             X           Y           Z
 ---------------------------------------------------------------------
      1          6           0       -0.812460   -1.111973   -0.797880
      2          6           0       -0.929411    0.242358   -0.468288
      3          6           0       -2.161061    0.773266   -0.073671
      4          6           0       -3.260061   -0.082624   -0.019434
      5          6           0       -3.175508   -1.436262   -0.341620
      6          6           0       -1.933904   -1.945491   -0.733608
      7          1           0        0.148181   -1.515975   -1.103407
      8          1           0       -0.060178    0.892031   -0.517297
      9          1           0       -2.279809    1.817963    0.186955
     10          1           0       -4.059860   -2.059101   -0.283215
     11          1           0       -1.846035   -2.997679   -0.989000
     12          7           0       -4.569222    0.467950    0.396938
     13          8           0       -5.522366   -0.307019    0.436658
     14          8           0       -4.617410    1.664032    0.675686
     15          6           0        4.067400    0.948831    0.273566
     16          6           0        3.219073    1.956897   -0.502403
     17          6           0        3.572325    3.406858   -0.169808
     18          1           0        3.937055    1.121676    1.350637
     19          1           0        5.129133    1.128043    0.054476
     20          1           0        2.159182    1.774947   -0.282989
     21          1           0        3.351304    1.781508   -1.577749
     22          1           0        4.621657    3.611535   -0.405624
     23          1           0        3.422763    3.604937    0.896493
     24          1           0        2.953933    4.110646   -0.735611
     25          6           0        3.725995   -0.505016   -0.048141
     26          6           0        4.574323   -1.513083    0.727829
     27          6           0        4.221071   -2.963043    0.395234
     28          1           0        2.664262   -0.684228    0.170950
     29          1           0        3.856341   -0.677862   -1.125211
     30          1           0        4.442092   -1.337693    1.803176
     31          1           0        5.634214   -1.331133    0.508416
     32          1           0        4.370633   -3.161122   -0.671066
     33          1           0        3.171738   -3.167720    0.631050
     34          1           0        4.839463   -3.666832    0.961038
 ---------------------------------------------------------------------

 SCF Done:  E(RHF) =  -669.535684481     A.U. after   15 cycles
 E2 =    -0.2091644110D+01 EUMP2 =    -0.67162732859073D+03

 The electronic state is 1-A.
 Alpha  occ. eigenvalues --  -20.60732 -20.60727 -15.85785 -11.31144 -11.27713
 Alpha  occ. eigenvalues --  -11.27706 -11.27433 -11.26722 -11.26692 -11.22697
 Alpha  occ. eigenvalues --  -11.22481 -11.22422 -11.22309 -11.21912 -11.21877
 Alpha  occ. eigenvalues --   -1.59808  -1.39361  -1.19313  -1.09405  -1.08706
 Alpha  occ. eigenvalues --   -1.04717  -1.04446  -0.96873  -0.95543  -0.87888
 Alpha  occ. eigenvalues --   -0.86116  -0.82378  -0.80526  -0.79252  -0.77427
 Alpha  occ. eigenvalues --   -0.72003  -0.71131  -0.70414  -0.66058  -0.64962
 Alpha  occ. eigenvalues --   -0.64712  -0.62122  -0.61786  -0.60244  -0.58498
 Alpha  occ. eigenvalues --   -0.56156  -0.55205  -0.53552  -0.53302  -0.53045
 Alpha  occ. eigenvalues --   -0.52823  -0.50807  -0.48859  -0.48759  -0.48730
 Alpha  occ. eigenvalues --   -0.47549  -0.46765  -0.46685  -0.44768  -0.44709
 Alpha  occ. eigenvalues --   -0.37290  -0.36320
 Alpha virt. eigenvalues --    0.05099   0.11294   0.16574   0.18942   0.22598
 Alpha virt. eigenvalues --    0.22819   0.24859   0.26129   0.26900   0.27118
 Alpha virt. eigenvalues --    0.29343   0.30385   0.30858   0.31327   0.31768

 Mulliken charges:
               1
     1  C   -0.176480
     2  C   -0.227504
     3  C   -0.173533
     4  C    0.158915
     5  C   -0.171158
     6  C   -0.218653
     7  H    0.229014
     8  H    0.236421
     9  H    0.275961
    10  H    0.275406
    11  H    0.223416
    12  N    0.488032
    13  O   -0.460630
    14  O   -0.460504
    15  C   -0.298121
    16  C   -0.306893
    17  C   -0.475837
    18  H    0.153076
    19  H    0.153916
    20  H    0.145894
    21  H    0.153870
    22  H    0.158851
    23  H    0.157889
    24  H    0.162122
    25  C   -0.301705
    26  C   -0.299933
    27  C   -0.476658
    28  H    0.143246
    29  H    0.149588
    30  H    0.155151
    31  H    0.155264
    32  H    0.154986
    33  H    0.152142
    34  H    0.164449
 Sum of Mulliken charges =  -0.00000

 Dipole moment (field-independent basis, Debye):
    X=              4.8912    Y=             -1.8962    Z=             -1.4227  Tot=              5.4353
 Quadrupole moment (field-independent basis, Debye-Ang):
   XX=           -122.8822   YY=            -91.2513   ZZ=            -94.9068
   XY=              8.1921   XZ=              4.6397   YZ=              0.5765

 Normal termination of Gaussian 16 at Wed May  5 18:57:58 2021.
