 Gaussian 16, Revision A.03,
 Gaussian 16:  EM64L-G16RevA.03 25-Dec-2016

 -------------
 #p 6-31g* mp2
 -------------

 ------------------------------------------------------
 Input file generated by CHIRIPA (05-May-2021 14:53:18)
 ------------------------------------------------------
 Symbolic Z-matrix:
 Charge =  0 Multiplicity = 1

                         Standard orientation:
 ---------------------------------------------------------------------
 Center     Atomic      Atomic             Coordinates (Angstroms)
 Number     Number       Type             X           Y           Z
 ---------------------------------------------------------------------
      1          6           0        3.153508    1.082868   -0.460047
      2          6           0        1.985952    1.404717    0.473341
      3          6           0        1.155601    2.595173   -0.007413
      4          1           0        3.797456    1.968393   -0.550170
      5          1           0        2.763282    0.876447   -1.466282
      6          1           0        2.378150    1.609114    1.477839
      7          1           0        1.344813    0.518262    0.561403
      8          1           0        0.736953    2.397315   -0.999475
      9          1           0        1.776161    3.494365   -0.077832
     10          1           0        0.326366    2.807794    0.674512
     11          6           0        3.992988   -0.104864    0.007171
     12          6           0        5.160544   -0.426713   -0.926217
     13          6           0        5.990896   -1.617170   -0.445463
     14          1           0        4.383214    0.101557    1.013406
     15          1           0        3.349041   -0.990389    0.097294
     16          1           0        5.801683    0.459742   -1.014279
     17          1           0        4.768346   -0.631111   -1.930715
     18          1           0        5.370335   -2.516362   -0.375044
     19          1           0        6.409543   -1.419311    0.546599
     20          1           0        6.820130   -1.829790   -1.127388
     21          6           0       -4.665371    0.167609   -1.420842
     22          6           0       -4.158283    1.155504   -0.570286
     23          6           0       -3.120181    0.862256    0.319038
     24          6           0       -2.610451   -0.435170    0.331368
     25          6           0       -3.094391   -1.441118   -0.503592
     26          6           0       -4.132746   -1.125269   -1.384845
     27          1           0       -5.471893    0.404190   -2.108555
     28          1           0       -4.569991    2.160430   -0.596066
     29          1           0       -2.708828    1.607917    0.988513
     30          1           0       -2.663574   -2.433816   -0.454958
     31          1           0       -4.524589   -1.894486   -2.044245
     32          7           0       -1.511324   -0.757582    1.268583
     33          8           0       -1.079480   -1.908266    1.260083
     34          8           0       -1.102486    0.146501    1.993927
 ---------------------------------------------------------------------

 SCF Done:  E(RHF) =  -669.536068830     A.U. after   15 cycles
 E2 =    -0.2091790779D+01 EUMP2 =    -0.67162785960876D+03

 The electronic state is 1-A.
 Alpha  occ. eigenvalues --  -20.60965 -20.60946 -15.85974 -11.31285 -11.27850
 Alpha  occ. eigenvalues --  -11.27844 -11.27584 -11.26853 -11.26841 -11.20993
 Alpha  occ. eigenvalues --  -11.20622 -11.20564 -11.20514 -11.20509 -11.20378
 Alpha  occ. eigenvalues --   -1.60016  -1.39570  -1.19453  -1.08861  -1.07648
 Alpha  occ. eigenvalues --   -1.04847  -1.02779  -0.95706  -0.95273  -0.86303
 Alpha  occ. eigenvalues --   -0.86245  -0.82539  -0.78831  -0.77597  -0.77426
 Alpha  occ. eigenvalues --   -0.72196  -0.71340  -0.70563  -0.65109  -0.64850
 Alpha  occ. eigenvalues --   -0.64286  -0.62196  -0.60189  -0.58625  -0.56848
 Alpha  occ. eigenvalues --   -0.55353  -0.54590  -0.53180  -0.52941  -0.51983
 Alpha  occ. eigenvalues --   -0.51693  -0.49253  -0.48967  -0.48957  -0.47139
 Alpha  occ. eigenvalues --   -0.45891  -0.45154  -0.44961  -0.44656  -0.43035
 Alpha  occ. eigenvalues --   -0.37430  -0.36445
 Alpha virt. eigenvalues --    0.04895   0.11192   0.16387   0.21164   0.23542
 Alpha virt. eigenvalues --    0.24668   0.26916   0.27402   0.27723   0.28368
 Alpha virt. eigenvalues --    0.28928   0.30532   0.31553   0.32071   0.32552

 Mulliken charges:
               1
     1  C   -0.298439
     2  C   -0.298787
     3  C   -0.477966
     4  H    0.145636
     5  H    0.144741
     6  H    0.154102
     7  H    0.164689
     8  H    0.147773
     9  H    0.151147
    10  H    0.162077
    11  C   -0.298753
    12  C   -0.298892
    13  C   -0.475371
    14  H    0.150144
    15  H    0.155112
    16  H    0.149818
    17  H    0.149531
    18  H    0.156189
    19  H    0.155206
    20  H    0.157538
    21  C   -0.170506
    22  C   -0.218672
    23  C   -0.170128
    24  C    0.158179
    25  C   -0.170993
    26  C   -0.218636
    27  H    0.226015
    28  H    0.224053
    29  H    0.276391
    30  H    0.275631
    31  H    0.223749
    32  N    0.487061
    33  O   -0.459757
    34  O   -0.457880
 Sum of Mulliken charges =  -0.00000

 Dipole moment (field-independent basis, Debye):
    X=             -4.0721    Y=              1.0260    Z=             -3.1529  Tot=              5.2513
 Quadrupole moment (field-independent basis, Debye-Ang):
   XX=            -75.8870   YY=            -92.0468   ZZ=            -96.8776
   XY=             -0.6379   XZ=              8.1819   YZ=              4.3555

 Normal termination of Gaussian 16 at Wed May  5 20:28:09 2021.
