 Gaussian 16, Revision A.03,
 Gaussian 16:  EM64L-G16RevA.03 25-Dec-2016

 -------------
 #p 6-31g* mp2
 -------------

 ------------------------------------------------------
 Input file generated by CHIRIPA (05-May-2021 14:55:24)
 ------------------------------------------------------
 Symbolic Z-matrix:
 Charge =  0 Multiplicity = 1

                         Standard orientation:
 ---------------------------------------------------------------------
 Center     Atomic      Atomic             Coordinates (Angstroms)
 Number     Number       Type             X           Y           Z
 ---------------------------------------------------------------------
      1          6           0        0.802808    0.017668    0.111347
      2          6           0        1.573521    1.041628   -0.449036
      3          6           0        2.964737    0.924427   -0.522045
      4          6           0        3.554920   -0.235642   -0.022831
      5          6           0        2.814303   -1.273221    0.541265
      6          6           0        1.424563   -1.134457    0.603841
      7          1           0       -0.277348    0.117088    0.164010
      8          1           0        1.093367    1.937509   -0.832302
      9          1           0        3.585452    1.701804   -0.950781
     10          1           0        3.321485   -2.154412    0.915011
     11          1           0        0.828539   -1.931286    1.039576
     12          7           0        5.026957   -0.371131   -0.094600
     13          8           0        5.522812   -1.403173    0.352226
     14          8           0        5.657010    0.557280   -0.596320
     15          6           0       -4.538815   -0.264684   -0.438520
     16          6           0       -5.460491   -1.235443    0.300483
     17          6           0       -6.051045   -2.305368   -0.618375
     18          1           0       -5.099781    0.216834   -1.251171
     19          1           0       -3.725681   -0.831315   -0.913008
     20          1           0       -6.270871   -0.667004    0.774591
     21          1           0       -4.897317   -1.714565    1.111591
     22          1           0       -5.255112   -2.897580   -1.081384
     23          1           0       -6.636470   -1.844067   -1.420297
     24          1           0       -6.706726   -2.988530   -0.069528
     25          6           0       -3.940700    0.810762    0.466688
     26          6           0       -3.019025    1.781521   -0.272316
     27          6           0       -2.428470    2.851445    0.646542
     28          1           0       -4.753834    1.377392    0.941176
     29          1           0       -3.379734    0.329243    1.279338
     30          1           0       -3.582198    2.260643   -1.083422
     31          1           0       -2.208645    1.213082   -0.746423
     32          1           0       -1.843046    2.390145    1.448465
     33          1           0       -3.224403    3.443657    1.109552
     34          1           0       -1.772789    3.534608    0.097696
 ---------------------------------------------------------------------

 SCF Done:  E(RHF) =  -669.535465082     A.U. after   15 cycles
 E2 =    -0.2091475194D+01 EUMP2 =    -0.67162694027582D+03

 The electronic state is 1-A.
 Alpha  occ. eigenvalues --  -20.60741 -20.60736 -15.85795 -11.31160 -11.27729
 Alpha  occ. eigenvalues --  -11.27722 -11.27441 -11.26744 -11.26728 -11.22876
 Alpha  occ. eigenvalues --  -11.22476 -11.22380 -11.22292 -11.22253 -11.21713
 Alpha  occ. eigenvalues --   -1.59817  -1.39370  -1.19330  -1.09456  -1.08723
 Alpha  occ. eigenvalues --   -1.04734  -1.04520  -0.96944  -0.95561  -0.87955
 Alpha  occ. eigenvalues --   -0.86129  -0.82396  -0.80593  -0.79229  -0.77441
 Alpha  occ. eigenvalues --   -0.72013  -0.71140  -0.70481  -0.66106  -0.64981
 Alpha  occ. eigenvalues --   -0.64735  -0.62097  -0.61915  -0.60328  -0.58544
 Alpha  occ. eigenvalues --   -0.56247  -0.55208  -0.53633  -0.53348  -0.53063
 Alpha  occ. eigenvalues --   -0.52821  -0.50887  -0.48889  -0.48768  -0.48766
 Alpha  occ. eigenvalues --   -0.47652  -0.46759  -0.46693  -0.44776  -0.44765
 Alpha  occ. eigenvalues --   -0.37306  -0.36339
 Alpha virt. eigenvalues --    0.05083   0.11306   0.16546   0.18262   0.22487
 Alpha virt. eigenvalues --    0.23872   0.25124   0.25797   0.26495   0.27959
 Alpha virt. eigenvalues --    0.29460   0.29609   0.30876   0.31288   0.32103

 Mulliken charges:
               1
     1  C   -0.177261
     2  C   -0.220979
     3  C   -0.170931
     4  C    0.158355
     5  C   -0.170698
     6  C   -0.219683
     7  H    0.235062
     8  H    0.224270
     9  H    0.275563
    10  H    0.275412
    11  H    0.223347
    12  N    0.488034
    13  O   -0.460518
    14  O   -0.460467
    15  C   -0.298423
    16  C   -0.300123
    17  C   -0.476200
    18  H    0.152934
    19  H    0.146529
    20  H    0.154220
    21  H    0.151037
    22  H    0.155233
    23  H    0.156870
    24  H    0.162628
    25  C   -0.299951
    26  C   -0.305066
    27  C   -0.478583
    28  H    0.154853
    29  H    0.146412
    30  H    0.159067
    31  H    0.142574
    32  H    0.154707
    33  H    0.162133
    34  H    0.159641
 Sum of Mulliken charges =  -0.00000

 Dipole moment (field-independent basis, Debye):
    X=             -5.4600    Y=              0.5334    Z=              0.2636  Tot=              5.4924
 Quadrupole moment (field-independent basis, Debye-Ang):
   XX=           -130.6377   YY=            -91.0681   ZZ=            -94.7925
   XY=              2.1465   XZ=              0.7362   YZ=             -2.8770

 Normal termination of Gaussian 16 at Wed May  5 19:09:33 2021.
