 Gaussian 16, Revision A.03,
 Gaussian 16:  EM64L-G16RevA.03 25-Dec-2016

 -------------
 #p 6-31g* mp2
 -------------

 ------------------------------------------------------
 Input file generated by CHIRIPA (05-May-2021 14:57:22)
 ------------------------------------------------------
 Symbolic Z-matrix:
 Charge =  0 Multiplicity = 1

                         Standard orientation:
 ---------------------------------------------------------------------
 Center     Atomic      Atomic             Coordinates (Angstroms)
 Number     Number       Type             X           Y           Z
 ---------------------------------------------------------------------
      1          6           0        6.691720    0.635472    0.358414
      2          6           0        5.622334    1.535162    0.417509
      3          6           0        4.318889    1.107429    0.148018
      4          6           0        4.120084   -0.233077   -0.178802
      5          6           0        5.164809   -1.153590   -0.245848
      6          6           0        6.459953   -0.703672    0.027508
      7          1           0        7.701043    0.976362    0.569263
      8          1           0        5.799357    2.575740    0.674230
      9          1           0        3.472714    1.782647    0.186560
     10          1           0        4.957050   -2.184766   -0.504557
     11          1           0        7.288534   -1.404615   -0.019141
     12          7           0        2.744579   -0.697642   -0.466146
     13          8           0        2.595851   -1.883799   -0.751713
     14          8           0        1.841233    0.133186   -0.400357
     15          6           0       -1.957546    0.823856    0.592007
     16          6           0       -2.545904   -0.217117    1.317770
     17          6           0       -3.869007   -0.595364    1.071037
     18          6           0       -4.577766    0.091994    0.086919
     19          6           0       -4.019502    1.133248   -0.652961
     20          6           0       -2.694924    1.494534   -0.389311
     21          1           0       -0.929154    1.111099    0.790247
     22          1           0       -1.975643   -0.739744    2.080468
     23          1           0       -4.349139   -1.397626    1.618088
     24          1           0       -4.613215    1.635572   -1.407013
     25          1           0       -2.240580    2.303347   -0.954501
     26          7           0       -5.979257   -0.299461   -0.183241
     27          8           0       -6.582359    0.321854   -1.055522
     28          8           0       -6.448106   -1.220186    0.482403
 ---------------------------------------------------------------------

 SCF Done:  E(RHF) =  -868.339477202     A.U. after   16 cycles
 E2 =    -0.2598179000D+01 EUMP2 =    -0.87093765620144D+03

 The electronic state is 1-A.
 Alpha  occ. eigenvalues --  -20.61735 -20.61666 -20.59991 -20.59985 -15.86748
 Alpha  occ. eigenvalues --  -15.85041 -11.31914 -11.30203 -11.28487 -11.28431
 Alpha  occ. eigenvalues --  -11.28145 -11.27432 -11.27400 -11.26791 -11.26778
 Alpha  occ. eigenvalues --  -11.26325 -11.25695 -11.25673  -1.60766  -1.59072
 Alpha  occ. eigenvalues --   -1.40330  -1.38631  -1.20064  -1.18354  -1.09490
 Alpha  occ. eigenvalues --   -1.07749  -1.05438  -1.03746  -0.96361  -0.94622
 Alpha  occ. eigenvalues --   -0.86844  -0.85135  -0.83206  -0.81480  -0.78278
 Alpha  occ. eigenvalues --   -0.76586  -0.72984  -0.72078  -0.71264  -0.71167
 Alpha  occ. eigenvalues --   -0.70393  -0.69369  -0.65720  -0.65434  -0.63997
 Alpha  occ. eigenvalues --   -0.63744  -0.62791  -0.61118  -0.55934  -0.54123
 Alpha  occ. eigenvalues --   -0.53774  -0.53525  -0.52061  -0.51836  -0.49736
 Alpha  occ. eigenvalues --   -0.49691  -0.48029  -0.48002  -0.45779  -0.44084
 Alpha  occ. eigenvalues --   -0.38025  -0.37033  -0.36246  -0.35364
 Alpha virt. eigenvalues --    0.04237   0.05972   0.10625   0.12313   0.15766
 Alpha virt. eigenvalues --    0.17534   0.20767   0.22517   0.26699   0.27553
 Alpha virt. eigenvalues --    0.28278   0.29400   0.30426   0.31643   0.32416

 Mulliken charges:
               1
     1  C   -0.170020
     2  C   -0.218255
     3  C   -0.170808
     4  C    0.157925
     5  C   -0.170409
     6  C   -0.218360
     7  H    0.227974
     8  H    0.224798
     9  H    0.271815
    10  H    0.277127
    11  H    0.225881
    12  N    0.491036
    13  O   -0.454930
    14  O   -0.472210
    15  C   -0.165521
    16  C   -0.218844
    17  C   -0.171557
    18  C    0.157041
    19  C   -0.171731
    20  C   -0.219620
    21  H    0.238178
    22  H    0.222406
    23  H    0.272578
    24  H    0.272199
    25  H    0.221137
    26  N    0.488367
    27  O   -0.463256
    28  O   -0.462940
 Sum of Mulliken charges =  -0.00000

 Dipole moment (field-independent basis, Debye):
    X=             10.3633    Y=              2.9600    Z=              1.9734  Tot=             10.9569
 Quadrupole moment (field-independent basis, Debye-Ang):
   XX=           -110.9150   YY=            -98.9569   ZZ=           -103.7641
   XY=             -2.3954   XZ=             -0.6251   YZ=             -2.2230

 Normal termination of Gaussian 16 at Fri May  7 04:47:54 2021.
