 Gaussian 16, Revision A.03,
 Gaussian 16:  EM64L-G16RevA.03 25-Dec-2016

 -------------
 #p 6-31g* mp2
 -------------

 ------------------------------------------------------
 Input file generated by CHIRIPA (05-May-2021 14:55:24)
 ------------------------------------------------------
 Symbolic Z-matrix:
 Charge =  0 Multiplicity = 1

                         Standard orientation:
 ---------------------------------------------------------------------
 Center     Atomic      Atomic             Coordinates (Angstroms)
 Number     Number       Type             X           Y           Z
 ---------------------------------------------------------------------
      1          6           0        0.273106   -0.490540    1.135096
      2          6           0        0.973232   -1.557553    0.562532
      3          6           0        2.257375   -1.367245    0.043585
      4          6           0        2.813628   -0.090963    0.114129
      5          6           0        2.141396    0.992101    0.678369
      6          6           0        0.858391    0.778644    1.191088
      7          1           0       -0.724006   -0.647367    1.535807
      8          1           0        0.521178   -2.544305    0.517683
      9          1           0        2.821731   -2.175667   -0.405163
     10          1           0        2.618223    1.964281    0.708693
     11          1           0        0.317006    1.609147    1.635173
     12          7           0        4.172491    0.122761   -0.431960
     13          8           0        4.640434    1.256845   -0.357667
     14          8           0        4.743895   -0.847854   -0.923938
     15          6           0       -3.136723   -0.528608   -0.535972
     16          6           0       -3.847386   -1.671777    0.189360
     17          6           0       -3.480965   -3.046154   -0.371548
     18          1           0       -3.387662   -0.568805   -1.604785
     19          1           0       -2.050377   -0.677230   -0.464155
     20          1           0       -4.932047   -1.520303    0.117381
     21          1           0       -3.594880   -1.628739    1.256601
     22          1           0       -2.403956   -3.222803   -0.285260
     23          1           0       -3.748721   -3.113750   -1.430953
     24          1           0       -4.000177   -3.848747    0.161484
     25          6           0       -3.492835    0.851648    0.013396
     26          6           0       -2.782173    1.994817   -0.711937
     27          6           0       -3.148593    3.369194   -0.151028
     28          1           0       -4.579182    1.000270   -0.058422
     29          1           0       -3.241898    0.891845    1.082208
     30          1           0       -3.034679    1.951779   -1.779178
     31          1           0       -1.697511    1.843342   -0.639957
     32          1           0       -2.880838    3.436790    0.908376
     33          1           0       -4.225603    3.545843   -0.237317
     34          1           0       -2.629382    4.171787   -0.684061
 ---------------------------------------------------------------------

 SCF Done:  E(RHF) =  -669.534819997     A.U. after   15 cycles
 E2 =    -0.2093829613D+01 EUMP2 =    -0.67162864960959D+03

 The electronic state is 1-A.
 Alpha  occ. eigenvalues --  -20.60818 -20.60813 -15.85874 -11.31270 -11.27858
 Alpha  occ. eigenvalues --  -11.27852 -11.27583 -11.26870 -11.26860 -11.22595
 Alpha  occ. eigenvalues --  -11.22344 -11.22287 -11.22201 -11.22047 -11.21784
 Alpha  occ. eigenvalues --   -1.59893  -1.39446  -1.19460  -1.09353  -1.08837
 Alpha  occ. eigenvalues --   -1.04864  -1.04401  -0.96852  -0.95676  -0.87861
 Alpha  occ. eigenvalues --   -0.86259  -0.82506  -0.80451  -0.79130  -0.77539
 Alpha  occ. eigenvalues --   -0.72092  -0.71217  -0.70636  -0.66029  -0.65111
 Alpha  occ. eigenvalues --   -0.64805  -0.62247  -0.61782  -0.60200  -0.58443
 Alpha  occ. eigenvalues --   -0.56288  -0.55243  -0.53527  -0.53282  -0.53163
 Alpha  occ. eigenvalues --   -0.52947  -0.50806  -0.48852  -0.48845  -0.48758
 Alpha  occ. eigenvalues --   -0.47511  -0.46664  -0.46605  -0.44845  -0.44645
 Alpha  occ. eigenvalues --   -0.37357  -0.36457
 Alpha virt. eigenvalues --    0.04961   0.11009   0.16350   0.18183   0.21989
 Alpha virt. eigenvalues --    0.23493   0.24911   0.25996   0.27176   0.27434
 Alpha virt. eigenvalues --    0.29764   0.30289   0.30843   0.31771   0.31864

 Mulliken charges:
               1
     1  C   -0.172342
     2  C   -0.221415
     3  C   -0.169950
     4  C    0.158594
     5  C   -0.171212
     6  C   -0.220703
     7  H    0.232202
     8  H    0.225539
     9  H    0.276282
    10  H    0.276257
    11  H    0.224881
    12  N    0.488069
    13  O   -0.460135
    14  O   -0.460109
    15  C   -0.308197
    16  C   -0.301711
    17  C   -0.474710
    18  H    0.155152
    19  H    0.152372
    20  H    0.157078
    21  H    0.145373
    22  H    0.147209
    23  H    0.160335
    24  H    0.163543
    25  C   -0.298433
    26  C   -0.304573
    27  C   -0.476003
    28  H    0.153883
    29  H    0.140588
    30  H    0.156151
    31  H    0.153981
    32  H    0.150469
    33  H    0.157977
    34  H    0.163555
 Sum of Mulliken charges =  -0.00000

 Dipole moment (field-independent basis, Debye):
    X=             -4.8483    Y=             -0.7379    Z=              1.8015  Tot=              5.2246
 Quadrupole moment (field-independent basis, Debye-Ang):
   XX=           -121.2001   YY=            -90.9319   ZZ=            -94.3571
   XY=             -1.7866   XZ=              5.8626   YZ=              0.8067

 Normal termination of Gaussian 16 at Wed May  5 17:36:21 2021.
