 Gaussian 16, Revision A.03,
 Gaussian 16:  EM64L-G16RevA.03 25-Dec-2016

 -------------
 #p 6-31g* mp2
 -------------

 ------------------------------------------------------
 Input file generated by CHIRIPA (05-May-2021 14:51:09)
 ------------------------------------------------------
 Symbolic Z-matrix:
 Charge =  0 Multiplicity = 1

                         Standard orientation:
 ---------------------------------------------------------------------
 Center     Atomic      Atomic             Coordinates (Angstroms)
 Number     Number       Type             X           Y           Z
 ---------------------------------------------------------------------
      1          6           0       -3.363089   -0.555508    0.465758
      2          6           0       -3.239386   -1.820169   -0.384721
      3          6           0       -2.836691   -3.046596    0.434734
      4          1           0       -2.405081   -0.364081    0.968274
      5          1           0       -4.103588   -0.726687    1.259329
      6          1           0       -2.500351   -1.646185   -1.177295
      7          1           0       -4.197743   -2.008500   -0.885421
      8          1           0       -3.577024   -3.248152    1.215685
      9          1           0       -1.869988   -2.883778    0.922152
     10          1           0       -2.754059   -3.939368   -0.192952
     11          6           0       -3.765036    0.679026   -0.339284
     12          6           0       -3.888739    1.943687    0.511195
     13          6           0       -4.291434    3.170114   -0.308260
     14          1           0       -3.024537    0.850206   -1.132855
     15          1           0       -4.723044    0.487599   -0.841799
     16          1           0       -2.930383    2.132018    1.011895
     17          1           0       -4.627774    1.769703    1.303769
     18          1           0       -5.258137    3.007296   -0.795678
     19          1           0       -3.551102    3.371670   -1.089211
     20          1           0       -4.374066    4.062886    0.319426
     21          6           0        4.079080    0.417682    0.233959
     22          6           0        5.502933    0.160813   -0.260657
     23          6           0        6.521869    1.127971    0.342808
     24          1           0        3.794344    1.450729   -0.008290
     25          1           0        4.058752    0.336598    1.329590
     26          1           0        5.520286    0.240994   -1.355137
     27          1           0        5.784243   -0.871802   -0.017374
     28          1           0        6.533963    1.043230    1.434262
     29          1           0        6.268506    2.162349    0.088898
     30          1           0        7.533030    0.926441   -0.024345
     31          6           0        3.049045   -0.541200   -0.360433
     32          6           0        1.625192   -0.284331    0.134183
     33          6           0        0.606256   -1.251489   -0.469282
     34          1           0        3.069374   -0.460116   -1.456064
     35          1           0        3.333781   -1.574248   -0.118184
     36          1           0        1.343883    0.748284   -0.109100
     37          1           0        1.607840   -0.364511    1.228663
     38          1           0        0.859620   -2.285867   -0.215372
     39          1           0        0.594162   -1.166748   -1.560736
     40          1           0       -0.404904   -1.049960   -0.102129
 ---------------------------------------------------------------------

 SCF Done:  E(RHF) =  -470.732214993     A.U. after   11 cycles
 E2 =    -0.1583895823D+01 EUMP2 =    -0.47231611081507D+03

 The electronic state is 1-A.
 Alpha  occ. eigenvalues --  -11.21651 -11.21621 -11.21600 -11.21527 -11.21435
 Alpha  occ. eigenvalues --  -11.21404 -11.21375 -11.21345 -11.21087 -11.21074
 Alpha  occ. eigenvalues --  -11.21071 -11.20983  -1.08479  -1.08413  -1.03607
 Alpha  occ. eigenvalues --   -1.03471  -0.96033  -0.95942  -0.87048  -0.86970
 Alpha  occ. eigenvalues --   -0.79640  -0.79563  -0.78277  -0.78239  -0.65161
 Alpha  occ. eigenvalues --   -0.65093  -0.61112  -0.60957  -0.59357  -0.59204
 Alpha  occ. eigenvalues --   -0.57590  -0.57566  -0.55384  -0.55182  -0.52671
 Alpha  occ. eigenvalues --   -0.52643  -0.52450  -0.52365  -0.50061  -0.49798
 Alpha  occ. eigenvalues --   -0.47971  -0.47847  -0.46731  -0.46532  -0.45825
 Alpha  occ. eigenvalues --   -0.45771  -0.45753  -0.45675  -0.43784  -0.43743
 Alpha virt. eigenvalues --    0.21002   0.23088   0.23898   0.25017   0.26427
 Alpha virt. eigenvalues --    0.26610   0.26861   0.27584   0.27952   0.29125
 Alpha virt. eigenvalues --    0.31054   0.31264   0.31568   0.31751   0.32118

 Mulliken charges:
               1
     1  C   -0.302468
     2  C   -0.305082
     3  C   -0.476889
     4  H    0.150454
     5  H    0.150517
     6  H    0.155827
     7  H    0.153128
     8  H    0.154453
     9  H    0.157563
    10  H    0.160120
    11  C   -0.298283
    12  C   -0.299729
    13  C   -0.475691
    14  H    0.149727
    15  H    0.149956
    16  H    0.152047
    17  H    0.151961
    18  H    0.155201
    19  H    0.155091
    20  H    0.160256
    21  C   -0.298258
    22  C   -0.299653
    23  C   -0.475719
    24  H    0.149606
    25  H    0.149571
    26  H    0.151951
    27  H    0.152013
    28  H    0.155222
    29  H    0.155188
    30  H    0.160331
    31  C   -0.298684
    32  C   -0.299397
    33  C   -0.486048
    34  H    0.149592
    35  H    0.149851
    36  H    0.151455
    37  H    0.151720
    38  H    0.156057
    39  H    0.154657
    40  H    0.172386
 Sum of Mulliken charges =  -0.00000

 Dipole moment (field-independent basis, Debye):
    X=              0.0078    Y=             -0.0057    Z=             -0.0082  Tot=              0.0127
 Quadrupole moment (field-independent basis, Debye-Ang):
   XX=            -84.6453   YY=            -85.6835   ZZ=            -84.4858
   XY=             -0.1838   XZ=             -0.4424   YZ=             -0.3151

 Normal termination of Gaussian 16 at Wed May  5 22:58:18 2021.
