 Gaussian 16, Revision A.03,
 Gaussian 16:  EM64L-G16RevA.03 25-Dec-2016

 -------------
 #p 6-31g* mp2
 -------------

 ------------------------------------------------------
 Input file generated by CHIRIPA (05-May-2021 14:57:26)
 ------------------------------------------------------
 Symbolic Z-matrix:
 Charge =  0 Multiplicity = 1

                         Standard orientation:
 ---------------------------------------------------------------------
 Center     Atomic      Atomic             Coordinates (Angstroms)
 Number     Number       Type             X           Y           Z
 ---------------------------------------------------------------------
      1          6           0       -5.256975    1.455209   -0.313452
      2          6           0       -5.138993    0.308917   -1.106306
      3          6           0       -4.104135   -0.604503   -0.884312
      4          6           0       -3.200839   -0.339105    0.143749
      5          6           0       -3.291801    0.793944    0.950728
      6          6           0       -4.334629    1.693643    0.710729
      7          1           0       -6.063973    2.159446   -0.492896
      8          1           0       -5.853850    0.121171   -1.902406
      9          1           0       -3.989337   -1.499890   -1.483079
     10          1           0       -2.563932    0.953967    1.736870
     11          1           0       -4.423796    2.583033    1.328046
     12          7           0       -2.101063   -1.298840    0.388295
     13          8           0       -1.318144   -1.042118    1.300308
     14          8           0       -2.042802   -2.289629   -0.336674
     15          6           0        3.544096    2.697611   -0.180861
     16          6           0        2.290792    2.076525   -0.180297
     17          6           0        2.189056    0.682834   -0.137609
     18          6           0        3.366434   -0.062374   -0.095960
     19          6           0        4.629722    0.527026   -0.095367
     20          6           0        4.707511    1.922246   -0.138470
     21          1           0        3.613826    3.780858   -0.214184
     22          1           0        1.385582    2.676159   -0.213164
     23          1           0        1.231662    0.176066   -0.136151
     24          1           0        5.514304   -0.097331   -0.062030
     25          1           0        5.682194    2.401869   -0.138801
     26          7           0        3.271407   -1.538622   -0.050550
     27          8           0        4.323687   -2.172682   -0.014342
     28          8           0        2.146444   -2.033691   -0.052024
 ---------------------------------------------------------------------

 SCF Done:  E(RHF) =  -868.336332867     A.U. after   16 cycles
 E2 =    -0.2600103955D+01 EUMP2 =    -0.87093643682149D+03

 The electronic state is 1-A.
 Alpha  occ. eigenvalues --  -20.60769 -20.60722 -20.59748 -20.59646 -15.85795
 Alpha  occ. eigenvalues --  -15.84754 -11.31338 -11.30395 -11.27949 -11.27888
 Alpha  occ. eigenvalues --  -11.27678 -11.27060 -11.26985 -11.26938 -11.26936
 Alpha  occ. eigenvalues --  -11.26886 -11.26137 -11.26119  -1.59805  -1.58782
 Alpha  occ. eigenvalues --   -1.39359  -1.38318  -1.19522  -1.18622  -1.08878
 Alpha  occ. eigenvalues --   -1.07981  -1.04946  -1.04068  -0.95680  -0.94755
 Alpha  occ. eigenvalues --   -0.86334  -0.85454  -0.82508  -0.81580  -0.77537
 Alpha  occ. eigenvalues --   -0.76562  -0.71982  -0.71171  -0.70943  -0.70616
 Alpha  occ. eigenvalues --   -0.70121  -0.69733  -0.65164  -0.64940  -0.64271
 Alpha  occ. eigenvalues --   -0.64091  -0.62288  -0.61395  -0.55426  -0.54596
 Alpha  occ. eigenvalues --   -0.53273  -0.53033  -0.52391  -0.52169  -0.48746
 Alpha  occ. eigenvalues --   -0.48727  -0.47775  -0.47690  -0.44712  -0.43661
 Alpha  occ. eigenvalues --   -0.37511  -0.36647  -0.36563  -0.35684
 Alpha virt. eigenvalues --    0.04969   0.05971   0.11086   0.11966   0.16418
 Alpha virt. eigenvalues --    0.17384   0.21214   0.22020   0.27116   0.27707
 Alpha virt. eigenvalues --    0.28225   0.28949   0.30791   0.31516   0.32364

 Mulliken charges:
               1
     1  C   -0.171370
     2  C   -0.218410
     3  C   -0.170951
     4  C    0.157573
     5  C   -0.174465
     6  C   -0.218721
     7  H    0.225697
     8  H    0.224389
     9  H    0.277840
    10  H    0.273793
    11  H    0.222551
    12  N    0.485830
    13  O   -0.460151
    14  O   -0.449969
    15  C   -0.171510
    16  C   -0.220070
    17  C   -0.171218
    18  C    0.156873
    19  C   -0.171188
    20  C   -0.219348
    21  H    0.221474
    22  H    0.217831
    23  H    0.285528
    24  H    0.274221
    25  H    0.220437
    26  N    0.485975
    27  O   -0.466930
    28  O   -0.445709
 Sum of Mulliken charges =  -0.00000

 Dipole moment (field-independent basis, Debye):
    X=             -3.8337    Y=              8.2439    Z=             -1.0408  Tot=              9.1511
 Quadrupole moment (field-independent basis, Debye-Ang):
   XX=            -73.8293   YY=           -107.3498   ZZ=           -103.5051
   XY=              8.5896   XZ=              3.5175   YZ=              2.8330

 Normal termination of Gaussian 16 at Fri May  7 12:43:10 2021.
