 Gaussian 16, Revision A.03,
 Gaussian 16:  EM64L-G16RevA.03 25-Dec-2016

 -------------
 #p 6-31g* mp2
 -------------

 ------------------------------------------------------
 Input file generated by CHIRIPA (05-May-2021 14:55:23)
 ------------------------------------------------------
 Symbolic Z-matrix:
 Charge =  0 Multiplicity = 1

                         Standard orientation:
 ---------------------------------------------------------------------
 Center     Atomic      Atomic             Coordinates (Angstroms)
 Number     Number       Type             X           Y           Z
 ---------------------------------------------------------------------
      1          6           0        2.826997    2.230336   -0.656664
      2          6           0        4.039871    1.533802   -0.639335
      3          6           0        4.074955    0.177462   -0.302201
      4          6           0        2.872878   -0.453866    0.013595
      5          6           0        1.648616    0.212769    0.005284
      6          6           0        1.637338    1.568763   -0.334867
      7          1           0        2.808990    3.283838   -0.919730
      8          1           0        4.965328    2.045015   -0.888802
      9          1           0        4.999938   -0.385895   -0.280885
     10          1           0        0.742436   -0.323941    0.258660
     11          1           0        0.693940    2.107172   -0.347496
     12          7           0        2.897419   -1.889579    0.372101
     13          8           0        1.824573   -2.422893    0.646354
     14          8           0        3.989035   -2.454390    0.372056
     15          6           0       -3.659009   -0.481822   -0.018080
     16          6           0       -4.997461   -1.069336   -0.466808
     17          6           0       -4.955383   -2.590542   -0.614984
     18          1           0       -2.882198   -0.759638   -0.743564
     19          1           0       -3.369466   -0.936549    0.939407
     20          1           0       -5.285068   -0.612621   -1.422481
     21          1           0       -5.771214   -0.789927    0.259727
     22          1           0       -4.692850   -3.063215    0.336991
     23          1           0       -4.203941   -2.884901   -1.354775
     24          1           0       -5.922498   -2.989492   -0.936524
     25          6           0       -3.685205    1.037964    0.134536
     26          6           0       -2.346753    1.625478    0.583264
     27          6           0       -2.388832    3.146683    0.731441
     28          1           0       -3.974748    1.492690   -0.822952
     29          1           0       -4.462017    1.315781    0.860020
     30          1           0       -1.573000    1.346070   -0.143271
     31          1           0       -2.059147    1.168763    1.538937
     32          1           0       -3.140273    3.441042    1.471231
     33          1           0       -2.651364    3.619357   -0.220536
     34          1           0       -1.421717    3.545634    1.052979
 ---------------------------------------------------------------------

 SCF Done:  E(RHF) =  -669.535511553     A.U. after   15 cycles
 E2 =    -0.2091671735D+01 EUMP2 =    -0.67162718328788D+03

 The electronic state is 1-A.
 Alpha  occ. eigenvalues --  -20.60712 -20.60707 -15.85764 -11.31116 -11.27693
 Alpha  occ. eigenvalues --  -11.27658 -11.27427 -11.26707 -11.26648 -11.22534
 Alpha  occ. eigenvalues --  -11.21986 -11.21947 -11.21792 -11.21689 -11.21083
 Alpha  occ. eigenvalues --   -1.59788  -1.39342  -1.19287  -1.08936  -1.08686
 Alpha  occ. eigenvalues --   -1.04691  -1.04035  -0.96455  -0.95523  -0.87471
 Alpha  occ. eigenvalues --   -0.86087  -0.82364  -0.80159  -0.78692  -0.77394
 Alpha  occ. eigenvalues --   -0.71983  -0.71111  -0.70399  -0.65595  -0.64937
 Alpha  occ. eigenvalues --   -0.64695  -0.62128  -0.61368  -0.59858  -0.58055
 Alpha  occ. eigenvalues --   -0.55721  -0.55188  -0.53183  -0.53023  -0.52900
 Alpha  occ. eigenvalues --   -0.52732  -0.50388  -0.48743  -0.48739  -0.48436
 Alpha  occ. eigenvalues --   -0.47180  -0.46228  -0.46108  -0.44750  -0.44271
 Alpha  occ. eigenvalues --   -0.37274  -0.36290
 Alpha virt. eigenvalues --    0.05121   0.11349   0.16592   0.19586   0.22826
 Alpha virt. eigenvalues --    0.23699   0.25096   0.26162   0.26527   0.28578
 Alpha virt. eigenvalues --    0.29573   0.30703   0.30870   0.31338   0.32258

 Mulliken charges:
               1
     1  C   -0.171390
     2  C   -0.218595
     3  C   -0.171073
     4  C    0.158888
     5  C   -0.174219
     6  C   -0.225915
     7  H    0.225572
     8  H    0.223074
     9  H    0.275305
    10  H    0.277248
    11  H    0.232609
    12  N    0.488157
    13  O   -0.460468
    14  O   -0.460816
    15  C   -0.300300
    16  C   -0.300207
    17  C   -0.476336
    18  H    0.150038
    19  H    0.153316
    20  H    0.151560
    21  H    0.152311
    22  H    0.157910
    23  H    0.157381
    24  H    0.160678
    25  C   -0.297563
    26  C   -0.306846
    27  C   -0.478535
    28  H    0.150433
    29  H    0.152716
    30  H    0.143467
    31  H    0.157318
    32  H    0.161748
    33  H    0.156633
    34  H    0.155903
 Sum of Mulliken charges =  -0.00000

 Dipole moment (field-independent basis, Debye):
    X=             -0.3091    Y=              5.0118    Z=             -1.2161  Tot=              5.1665
 Quadrupole moment (field-independent basis, Debye-Ang):
   XX=            -89.5302   YY=           -101.0744   ZZ=            -94.5837
   XY=             14.5775   XZ=             -4.8807   YZ=              0.4261

 Normal termination of Gaussian 16 at Thu May  6 14:19:12 2021.
