 Gaussian 16, Revision A.03,
 Gaussian 16:  EM64L-G16RevA.03 25-Dec-2016

 -------------
 #p 6-31g* mp2
 -------------

 ------------------------------------------------------
 Input file generated by CHIRIPA (05-May-2021 14:55:25)
 ------------------------------------------------------
 Symbolic Z-matrix:
 Charge =  0 Multiplicity = 1

                         Standard orientation:
 ---------------------------------------------------------------------
 Center     Atomic      Atomic             Coordinates (Angstroms)
 Number     Number       Type             X           Y           Z
 ---------------------------------------------------------------------
      1          6           0       -1.010196   -2.365505   -1.621886
      2          6           0       -1.771837   -1.249024   -1.982295
      3          6           0       -2.147184   -0.305391   -1.021452
      4          6           0       -1.741798   -0.510508    0.296455
      5          6           0       -0.982641   -1.612620    0.686736
      6          6           0       -0.618719   -2.543426   -0.290867
      7          1           0       -0.723055   -3.093559   -2.374802
      8          1           0       -2.077282   -1.108272   -3.015221
      9          1           0       -2.736542    0.568010   -1.272941
     10          1           0       -0.693115   -1.725787    1.724420
     11          1           0       -0.027190   -3.409551   -0.008084
     12          7           0       -2.133113    0.481684    1.322529
     13          8           0       -1.763339    0.278062    2.476843
     14          8           0       -2.802192    1.444200    0.953022
     15          6           0        1.442353    1.142540   -0.256280
     16          6           0        1.421015    2.530462   -0.897532
     17          6           0        0.004351    3.076761   -1.077567
     18          1           0        0.856850    0.450048   -0.876429
     19          1           0        0.939671    1.189429    0.719684
     20          1           0        1.924808    2.481269   -1.871384
     21          1           0        2.006796    3.219686   -0.275884
     22          1           0       -0.504241    3.154556   -0.111191
     23          1           0       -0.586695    2.411944   -1.715756
     24          1           0        0.012466    4.069825   -1.537587
     25          6           0        2.851546    0.582986   -0.069726
     26          6           0        2.872884   -0.804937    0.571526
     27          6           0        4.289549   -1.351237    0.751561
     28          1           0        3.354229    0.536095   -1.045690
     29          1           0        3.437049    1.275477    0.550423
     30          1           0        2.287102   -1.494161   -0.050122
     31          1           0        2.369090   -0.755743    1.545378
     32          1           0        4.880594   -0.686418    1.389750
     33          1           0        4.798140   -1.429032   -0.214815
     34          1           0        4.281433   -2.344301    1.211581
 ---------------------------------------------------------------------

 SCF Done:  E(RHF) =  -669.534519584     A.U. after   15 cycles
 E2 =    -0.2097296612D+01 EUMP2 =    -0.67163181619560D+03

 The electronic state is 1-A.
 Alpha  occ. eigenvalues --  -20.60898 -20.60885 -15.85903 -11.31187 -11.27803
 Alpha  occ. eigenvalues --  -11.27787 -11.27601 -11.26865 -11.26839 -11.21724
 Alpha  occ. eigenvalues --  -11.21366 -11.21352 -11.21261 -11.21151 -11.20656
 Alpha  occ. eigenvalues --   -1.59945  -1.39502  -1.19437  -1.08837  -1.08359
 Alpha  occ. eigenvalues --   -1.04841  -1.03460  -0.95894  -0.95670  -0.86916
 Alpha  occ. eigenvalues --   -0.86226  -0.82510  -0.79546  -0.78233  -0.77543
 Alpha  occ. eigenvalues --   -0.72141  -0.71241  -0.70547  -0.65092  -0.65008
 Alpha  occ. eigenvalues --   -0.64833  -0.62188  -0.60855  -0.59303  -0.57533
 Alpha  occ. eigenvalues --   -0.55363  -0.55165  -0.53386  -0.52931  -0.52559
 Alpha  occ. eigenvalues --   -0.52267  -0.49836  -0.48901  -0.48898  -0.47888
 Alpha  occ. eigenvalues --   -0.46598  -0.45665  -0.45471  -0.44852  -0.43700
 Alpha  occ. eigenvalues --   -0.37357  -0.36367
 Alpha virt. eigenvalues --    0.04937   0.11045   0.16386   0.20955   0.23087
 Alpha virt. eigenvalues --    0.24017   0.26112   0.26852   0.27126   0.28153
 Alpha virt. eigenvalues --    0.28810   0.30413   0.31373   0.31702   0.31968

 Mulliken charges:
               1
     1  C   -0.172465
     2  C   -0.219692
     3  C   -0.171407
     4  C    0.162465
     5  C   -0.167131
     6  C   -0.217439
     7  H    0.226153
     8  H    0.223989
     9  H    0.276708
    10  H    0.275772
    11  H    0.224507
    12  N    0.488660
    13  O   -0.460578
    14  O   -0.458593
    15  C   -0.308284
    16  C   -0.298534
    17  C   -0.481501
    18  H    0.154686
    19  H    0.152021
    20  H    0.147929
    21  H    0.153124
    22  H    0.171374
    23  H    0.145863
    24  H    0.159127
    25  C   -0.296295
    26  C   -0.303628
    27  C   -0.475293
    28  H    0.147336
    29  H    0.151453
    30  H    0.148741
    31  H    0.152168
    32  H    0.157807
    33  H    0.154274
    34  H    0.156682
 Sum of Mulliken charges =  -0.00000

 Dipole moment (field-independent basis, Debye):
    X=              1.2206    Y=             -3.4774    Z=             -3.5236  Tot=              5.0988
 Quadrupole moment (field-independent basis, Debye-Ang):
   XX=           -100.2141   YY=            -90.2339   ZZ=            -94.1555
   XY=              4.5663   XZ=              8.6210   YZ=             -0.4757

 Normal termination of Gaussian 16 at Thu May  6 01:39:24 2021.
