 Gaussian 16, Revision A.03,
 Gaussian 16:  EM64L-G16RevA.03 25-Dec-2016

 -------------
 #p 6-31g* mp2
 -------------

 ------------------------------------------------------
 Input file generated by CHIRIPA (05-May-2021 14:57:22)
 ------------------------------------------------------
 Symbolic Z-matrix:
 Charge =  0 Multiplicity = 1

                         Standard orientation:
 ---------------------------------------------------------------------
 Center     Atomic      Atomic             Coordinates (Angstroms)
 Number     Number       Type             X           Y           Z
 ---------------------------------------------------------------------
      1          6           0        2.822978    2.638420   -0.355018
      2          6           0        2.016251    1.797399   -1.128580
      3          6           0        2.028225    0.414787   -0.921727
      4          6           0        2.862697   -0.095192    0.071686
      5          6           0        3.677962    0.716684    0.858763
      6          6           0        3.649801    2.096334    0.634440
      7          1           0        2.807389    3.711316   -0.522492
      8          1           0        1.373141    2.215605   -1.897708
      9          1           0        1.413835   -0.259292   -1.506158
     10          1           0        4.308631    0.270446    1.618070
     11          1           0        4.277379    2.747072    1.236711
     12          7           0        2.883942   -1.557334    0.299919
     13          8           0        3.627906   -1.981848    1.181362
     14          8           0        2.156227   -2.251160   -0.406957
     15          6           0       -3.850977    2.074892    0.637406
     16          6           0       -2.979883    1.998728   -0.454342
     17          6           0       -2.424446    0.773633   -0.835369
     18          6           0       -2.763314   -0.360473   -0.098987
     19          6           0       -3.628129   -0.316944    0.993484
     20          6           0       -4.171754    0.918851    1.356567
     21          1           0       -4.277867    3.030732    0.926427
     22          1           0       -2.728980    2.894888   -1.014690
     23          1           0       -1.747357    0.686121   -1.676387
     24          1           0       -3.859460   -1.227517    1.532706
     25          1           0       -4.847974    0.975008    2.204871
     26          7           0       -2.181549   -1.663091   -0.492864
     27          8           0       -2.495948   -2.647688    0.172236
     28          8           0       -1.422181   -1.674818   -1.459227
 ---------------------------------------------------------------------

 SCF Done:  E(RHF) =  -868.336308780     A.U. after   16 cycles
 E2 =    -0.2600887662D+01 EUMP2 =    -0.87093719644220D+03

 The electronic state is 1-A.
 Alpha  occ. eigenvalues --  -20.60730 -20.60710 -20.60163 -20.60083 -15.85772
 Alpha  occ. eigenvalues --  -15.85185 -11.31344 -11.30836 -11.28016 -11.27883
 Alpha  occ. eigenvalues --  -11.27698 -11.27491 -11.27381 -11.27333 -11.27043
 Alpha  occ. eigenvalues --  -11.26946 -11.26599 -11.26561  -1.59766  -1.59208
 Alpha  occ. eigenvalues --   -1.39325  -1.38744  -1.19529  -1.19067  -1.08879
 Alpha  occ. eigenvalues --   -1.08422  -1.04974  -1.04515  -0.95684  -0.95192
 Alpha  occ. eigenvalues --   -0.86361  -0.85899  -0.82524  -0.82021  -0.77555
 Alpha  occ. eigenvalues --   -0.76993  -0.71986  -0.71393  -0.71083  -0.70645
 Alpha  occ. eigenvalues --   -0.70548  -0.70168  -0.65187  -0.64986  -0.64714
 Alpha  occ. eigenvalues --   -0.64537  -0.62346  -0.61823  -0.55456  -0.55035
 Alpha  occ. eigenvalues --   -0.53278  -0.53081  -0.52829  -0.52613  -0.48742
 Alpha  occ. eigenvalues --   -0.48726  -0.48197  -0.48120  -0.44680  -0.44074
 Alpha  occ. eigenvalues --   -0.37507  -0.37092  -0.36605  -0.36108
 Alpha virt. eigenvalues --    0.04959   0.05551   0.11048   0.11521   0.16422
 Alpha virt. eigenvalues --    0.16927   0.20213   0.21951   0.25610   0.27482
 Alpha virt. eigenvalues --    0.28222   0.29166   0.30860   0.31203   0.32243

 Mulliken charges:
               1
     1  C   -0.171231
     2  C   -0.220787
     3  C   -0.177065
     4  C    0.156782
     5  C   -0.170652
     6  C   -0.219263
     7  H    0.222051
     8  H    0.215757
     9  H    0.291338
    10  H    0.275375
    11  H    0.221708
    12  N    0.486001
    13  O   -0.464638
    14  O   -0.447584
    15  C   -0.171190
    16  C   -0.217567
    17  C   -0.170614
    18  C    0.160507
    19  C   -0.170171
    20  C   -0.218051
    21  H    0.225211
    22  H    0.219340
    23  H    0.267428
    24  H    0.277945
    25  H    0.224472
    26  N    0.489824
    27  O   -0.453889
    28  O   -0.461036
 Sum of Mulliken charges =  -0.00000

 Dipole moment (field-independent basis, Debye):
    X=             -2.2849    Y=              9.3651    Z=              0.6412  Tot=              9.6611
 Quadrupole moment (field-independent basis, Debye-Ang):
   XX=            -91.6025   YY=           -109.2102   ZZ=           -100.6417
   XY=              4.4723   XZ=             -5.7320   YZ=             -1.6335

 Normal termination of Gaussian 16 at Thu May  6 21:08:14 2021.
