 Gaussian 16, Revision A.03,
 Gaussian 16:  EM64L-G16RevA.03 25-Dec-2016

 -------------
 #p 6-31g* mp2
 -------------

 ------------------------------------------------------
 Input file generated by CHIRIPA (05-May-2021 14:57:27)
 ------------------------------------------------------
 Symbolic Z-matrix:
 Charge =  0 Multiplicity = 1

                         Standard orientation:
 ---------------------------------------------------------------------
 Center     Atomic      Atomic             Coordinates (Angstroms)
 Number     Number       Type             X           Y           Z
 ---------------------------------------------------------------------
      1          6           0        3.862752   -2.413449    0.419734
      2          6           0        2.775135   -1.989643   -0.350979
      3          6           0        2.605886   -0.635878   -0.656307
      4          6           0        3.547532    0.271005   -0.172409
      5          6           0        4.641604   -0.120197    0.597823
      6          6           0        4.790879   -1.479021    0.890845
      7          1           0        3.986470   -3.467051    0.652140
      8          1           0        2.052774   -2.713102   -0.718193
      9          1           0        1.773113   -0.280386   -1.250892
     10          1           0        5.345191    0.624481    0.949731
     11          1           0        5.636503   -1.805283    1.489608
     12          7           0        3.378928    1.706853   -0.489131
     13          8           0        4.222449    2.485979   -0.050871
     14          8           0        2.406449    2.025956   -1.169641
     15          6           0       -6.084067   -0.011955   -0.147382
     16          6           0       -5.469246    0.855674    0.761316
     17          6           0       -4.079991    0.851920    0.917854
     18          6           0       -3.332783   -0.036526    0.146078
     19          6           0       -3.915976   -0.913090   -0.767601
     20          6           0       -5.306841   -0.892017   -0.907601
     21          1           0       -7.163900   -0.002312   -0.262561
     22          1           0       -6.070338    1.540216    1.353039
     23          1           0       -3.578102    1.512913    1.613996
     24          1           0       -3.290306   -1.584153   -1.343474
     25          1           0       -5.781603   -1.566951   -1.614078
     26          7           0       -1.861189   -0.049668    0.303044
     27          8           0       -1.225248   -0.841948   -0.388698
     28          8           0       -1.371559    0.732561    1.114844
 ---------------------------------------------------------------------

 SCF Done:  E(RHF) =  -868.339335593     A.U. after   16 cycles
 E2 =    -0.2598843745D+01 EUMP2 =    -0.87093817933822D+03

 The electronic state is 1-A.
 Alpha  occ. eigenvalues --  -20.61126 -20.61061 -20.59567 -20.59531 -15.86126
 Alpha  occ. eigenvalues --  -15.84601 -11.31363 -11.29832 -11.27942 -11.27890
 Alpha  occ. eigenvalues --  -11.27641 -11.26919 -11.26887 -11.26518 -11.26268
 Alpha  occ. eigenvalues --  -11.26255 -11.25540 -11.25355  -1.60144  -1.58625
 Alpha  occ. eigenvalues --   -1.39706  -1.38181  -1.19522  -1.18032  -1.08942
 Alpha  occ. eigenvalues --   -1.07478  -1.04909  -1.03405  -0.95801  -0.94318
 Alpha  occ. eigenvalues --   -0.86313  -0.84832  -0.82642  -0.81146  -0.77700
 Alpha  occ. eigenvalues --   -0.76182  -0.72365  -0.71441  -0.70836  -0.70635
 Alpha  occ. eigenvalues --   -0.69934  -0.69181  -0.65182  -0.64914  -0.63698
 Alpha  occ. eigenvalues --   -0.63438  -0.62259  -0.60741  -0.55418  -0.54001
 Alpha  occ. eigenvalues --   -0.53240  -0.53002  -0.51768  -0.51514  -0.49120
 Alpha  occ. eigenvalues --   -0.49079  -0.47595  -0.47572  -0.45135  -0.43614
 Alpha  occ. eigenvalues --   -0.37494  -0.36504  -0.36067  -0.34983
 Alpha virt. eigenvalues --    0.04829   0.06341   0.11152   0.12649   0.16341
 Alpha virt. eigenvalues --    0.17818   0.21284   0.22663   0.27203   0.28116
 Alpha virt. eigenvalues --    0.28623   0.29571   0.30865   0.32157   0.32397

 Mulliken charges:
               1
     1  C   -0.171708
     2  C   -0.218704
     3  C   -0.161239
     4  C    0.156729
     5  C   -0.171908
     6  C   -0.219893
     7  H    0.220253
     8  H    0.224572
     9  H    0.286216
    10  H    0.271334
    11  H    0.217926
    12  N    0.488864
    13  O   -0.466572
    14  O   -0.458396
    15  C   -0.170285
    16  C   -0.218516
    17  C   -0.169873
    18  C    0.158857
    19  C   -0.170537
    20  C   -0.218457
    21  H    0.226349
    22  H    0.224741
    23  H    0.277657
    24  H    0.273073
    25  H    0.223447
    26  N    0.490673
    27  O   -0.472072
    28  O   -0.452529
 Sum of Mulliken charges =  -0.00000

 Dipole moment (field-independent basis, Debye):
    X=             -5.0829    Y=             -4.9055    Z=              0.5576  Tot=              7.0859
 Quadrupole moment (field-independent basis, Debye-Ang):
   XX=            -64.7151   YY=           -106.1837   ZZ=           -102.7720
   XY=            -17.2762   XZ=              6.8258   YZ=              4.9160

 Normal termination of Gaussian 16 at Wed May  5 19:36:45 2021.
