 Gaussian 16, Revision A.03,
 Gaussian 16:  EM64L-G16RevA.03 25-Dec-2016

 -------------
 #p 6-31g* mp2
 -------------

 ------------------------------------------------------
 Input file generated by CHIRIPA (05-May-2021 14:53:16)
 ------------------------------------------------------
 Symbolic Z-matrix:
 Charge =  0 Multiplicity = 1

                         Standard orientation:
 ---------------------------------------------------------------------
 Center     Atomic      Atomic             Coordinates (Angstroms)
 Number     Number       Type             X           Y           Z
 ---------------------------------------------------------------------
      1          6           0        3.261274   -0.516536   -0.324787
      2          6           0        3.979227   -1.813566    0.049702
      3          6           0        3.826536   -2.901907   -1.013309
      4          1           0        2.195118   -0.728034   -0.484549
      5          1           0        3.654646   -0.151577   -1.283672
      6          1           0        3.585592   -2.175233    1.008276
      7          1           0        5.043764   -1.598920    0.208778
      8          1           0        4.236596   -2.565268   -1.970976
      9          1           0        2.770138   -3.144855   -1.166935
     10          1           0        4.347462   -3.820343   -0.725262
     11          6           0        3.404737    0.581043    0.728050
     12          6           0        2.686784    1.878072    0.353561
     13          6           0        2.839475    2.966414    1.416572
     14          1           0        3.011365    0.216083    1.686935
     15          1           0        4.470893    0.792541    0.887812
     16          1           0        1.622247    1.663427    0.194485
     17          1           0        3.080419    2.239740   -0.605013
     18          1           0        3.895873    3.209362    1.570198
     19          1           0        2.429415    2.629774    2.374239
     20          1           0        2.318549    3.884850    1.128525
     21          6           0       -1.517133    1.883784   -1.398744
     22          6           0       -0.793132    0.715603   -1.138561
     23          6           0       -1.385137   -0.348463   -0.451654
     24          6           0       -2.708976   -0.209751   -0.037528
     25          6           0       -3.456492    0.941303   -0.281628
     26          6           0       -2.844163    1.992714   -0.970203
     27          1           0       -1.049356    2.705460   -1.932999
     28          1           0        0.237613    0.628214   -1.470184
     29          1           0       -0.847736   -1.264155   -0.236879
     30          1           0       -4.482346    0.999000    0.061465
     31          1           0       -3.408853    2.898752   -1.170866
     32          7           0       -3.346464   -1.329532    0.690553
     33          8           0       -4.514155   -1.182492    1.044832
     34          8           0       -2.666364   -2.333051    0.893158
 ---------------------------------------------------------------------

 SCF Done:  E(RHF) =  -669.535004469     A.U. after   15 cycles
 E2 =    -0.2092825396D+01 EUMP2 =    -0.67162782986557D+03

 The electronic state is 1-A.
 Alpha  occ. eigenvalues --  -20.60786 -20.60781 -15.85839 -11.31213 -11.27778
 Alpha  occ. eigenvalues --  -11.27775 -11.27507 -11.26789 -11.26724 -11.22293
 Alpha  occ. eigenvalues --  -11.22221 -11.22106 -11.22009 -11.21638 -11.21494
 Alpha  occ. eigenvalues --   -1.59861  -1.39415  -1.19383  -1.09109  -1.08770
 Alpha  occ. eigenvalues --   -1.04789  -1.04116  -0.96561  -0.95607  -0.87575
 Alpha  occ. eigenvalues --   -0.86185  -0.82447  -0.80205  -0.78982  -0.77474
 Alpha  occ. eigenvalues --   -0.72057  -0.71184  -0.70482  -0.65797  -0.65030
 Alpha  occ. eigenvalues --   -0.64752  -0.62139  -0.61496  -0.59936  -0.58187
 Alpha  occ. eigenvalues --   -0.55840  -0.55276  -0.53272  -0.53117  -0.52980
 Alpha  occ. eigenvalues --   -0.52863  -0.50498  -0.48827  -0.48813  -0.48503
 Alpha  occ. eigenvalues --   -0.47225  -0.46440  -0.46380  -0.44819  -0.44399
 Alpha  occ. eigenvalues --   -0.37342  -0.36354
 Alpha virt. eigenvalues --    0.05039   0.11141   0.16461   0.19743   0.22702
 Alpha virt. eigenvalues --    0.23559   0.24903   0.26050   0.27283   0.28013
 Alpha virt. eigenvalues --    0.29878   0.30922   0.31077   0.31290   0.31635

 Mulliken charges:
               1
     1  C   -0.301499
     2  C   -0.300517
     3  C   -0.476190
     4  H    0.141014
     5  H    0.149279
     6  H    0.156162
     7  H    0.154433
     8  H    0.154766
     9  H    0.154757
    10  H    0.164076
    11  C   -0.297850
    12  C   -0.308974
    13  C   -0.474863
    14  H    0.153919
    15  H    0.152714
    16  H    0.153339
    17  H    0.148420
    18  H    0.157078
    19  H    0.158902
    20  H    0.158801
    21  C   -0.172461
    22  C   -0.220472
    23  C   -0.174720
    24  C    0.158874
    25  C   -0.170674
    26  C   -0.218335
    27  H    0.226585
    28  H    0.231617
    29  H    0.275210
    30  H    0.275720
    31  H    0.223576
    32  N    0.488179
    33  O   -0.460320
    34  O   -0.460548
 Sum of Mulliken charges =  -0.00000

 Dipole moment (field-independent basis, Debye):
    X=              2.3557    Y=              3.9110    Z=             -2.4857  Tot=              5.1984
 Quadrupole moment (field-independent basis, Debye-Ang):
   XX=           -102.1906   YY=            -95.9703   ZZ=            -95.4804
   XY=            -13.8839   XZ=              6.4783   YZ=             -0.1756

 Normal termination of Gaussian 16 at Thu May  6 13:53:54 2021.
