 Gaussian 16, Revision A.03,
 Gaussian 16:  EM64L-G16RevA.03 25-Dec-2016

 -------------
 #p 6-31g* mp2
 -------------

 ------------------------------------------------------
 Input file generated by CHIRIPA (05-May-2021 14:53:11)
 ------------------------------------------------------
 Symbolic Z-matrix:
 Charge =  0 Multiplicity = 1

                         Standard orientation:
 ---------------------------------------------------------------------
 Center     Atomic      Atomic             Coordinates (Angstroms)
 Number     Number       Type             X           Y           Z
 ---------------------------------------------------------------------
      1          6           0        2.074244    1.194438   -0.337563
      2          6           0        2.028418    2.303798    0.713724
      3          6           0        1.302303    3.555794    0.220718
      4          1           0        2.569071    1.574953   -1.241610
      5          1           0        1.047725    0.932998   -0.629628
      6          1           0        3.054677    2.562105    1.004731
      7          1           0        1.533814    1.920539    1.615442
      8          1           0        0.268523    3.319527   -0.051456
      9          1           0        1.798028    3.964738   -0.665636
     10          1           0        1.281271    4.336008    0.987975
     11          6           0        2.796938   -0.063709    0.140461
     12          6           0        2.842765   -1.173070   -0.910827
     13          6           0        3.568880   -2.425066   -0.417821
     14          1           0        3.823458    0.197730    0.432525
     15          1           0        2.302112   -0.444225    1.044507
     16          1           0        3.337369   -0.789810   -1.812545
     17          1           0        1.816505   -1.431376   -1.201834
     18          1           0        3.073155   -2.834010    0.468533
     19          1           0        4.602660   -2.188798   -0.145647
     20          1           0        3.589912   -3.205280   -1.185078
     21          6           0       -1.281604   -1.080973    2.437365
     22          6           0       -2.254659   -0.102131    2.210309
     23          6           0       -2.606791    0.260028    0.906701
     24          6           0       -1.962861   -0.379887   -0.151199
     25          6           0       -0.989505   -1.358817    0.042617
     26          6           0       -0.653241   -1.705092    1.354703
     27          1           0       -1.014224   -1.356136    3.453330
     28          1           0       -2.744308    0.384241    3.049195
     29          1           0       -3.356675    1.014563    0.702328
     30          1           0       -0.518820   -1.826026   -0.813881
     31          1           0        0.102805   -2.465613    1.528041
     32          7           0       -2.327249   -0.004894   -1.535757
     33          8           0       -1.745237   -0.583545   -2.450668
     34          8           0       -3.187967    0.860576   -1.679846
 ---------------------------------------------------------------------

 SCF Done:  E(RHF) =  -669.535008338     A.U. after   15 cycles
 E2 =    -0.2094840231D+01 EUMP2 =    -0.67162984856895D+03

 The electronic state is 1-A.
 Alpha  occ. eigenvalues --  -20.60875 -20.60867 -15.85925 -11.31320 -11.27890
 Alpha  occ. eigenvalues --  -11.27882 -11.27638 -11.26913 -11.26898 -11.21934
 Alpha  occ. eigenvalues --  -11.21643 -11.21601 -11.21566 -11.21366 -11.21024
 Alpha  occ. eigenvalues --   -1.59947  -1.39499  -1.19505  -1.08887  -1.08597
 Alpha  occ. eigenvalues --   -1.04908  -1.03728  -0.96167  -0.95716  -0.87184
 Alpha  occ. eigenvalues --   -0.86304  -0.82544  -0.79795  -0.78384  -0.77591
 Alpha  occ. eigenvalues --   -0.72140  -0.71276  -0.70611  -0.65314  -0.65124
 Alpha  occ. eigenvalues --   -0.64903  -0.62296  -0.61078  -0.59543  -0.57769
 Alpha  occ. eigenvalues --   -0.55503  -0.55392  -0.53201  -0.53029  -0.52858
 Alpha  occ. eigenvalues --   -0.52573  -0.50119  -0.48903  -0.48895  -0.48101
 Alpha  occ. eigenvalues --   -0.46833  -0.45918  -0.45862  -0.44875  -0.43953
 Alpha  occ. eigenvalues --   -0.37448  -0.36455
 Alpha virt. eigenvalues --    0.04914   0.11012   0.16331   0.19585   0.23017
 Alpha virt. eigenvalues --    0.23749   0.25559   0.25942   0.27588   0.28326
 Alpha virt. eigenvalues --    0.28684   0.29877   0.31290   0.31606   0.32451

 Mulliken charges:
               1
     1  C   -0.299530
     2  C   -0.299710
     3  C   -0.475907
     4  H    0.152468
     5  H    0.152501
     6  H    0.150763
     7  H    0.149202
     8  H    0.157195
     9  H    0.157460
    10  H    0.158455
    11  C   -0.299017
    12  C   -0.303520
    13  C   -0.475584
    14  H    0.149837
    15  H    0.144937
    16  H    0.158248
    17  H    0.149025
    18  H    0.145471
    19  H    0.158366
    20  H    0.162967
    21  C   -0.171905
    22  C   -0.218123
    23  C   -0.171368
    24  C    0.159316
    25  C   -0.173711
    26  C   -0.218585
    27  H    0.226579
    28  H    0.224259
    29  H    0.276279
    30  H    0.279713
    31  H    0.225952
    32  N    0.487824
    33  O   -0.459937
    34  O   -0.459916
 Sum of Mulliken charges =  -0.00000

 Dipole moment (field-independent basis, Debye):
    X=              1.2288    Y=             -1.2740    Z=              4.8085  Tot=              5.1239
 Quadrupole moment (field-independent basis, Debye-Ang):
   XX=            -97.3509   YY=            -92.9285   ZZ=            -95.9604
   XY=              0.4736   XZ=            -11.9894   YZ=             -0.3491

 Normal termination of Gaussian 16 at Wed May  5 18:29:23 2021.
