 Gaussian 16, Revision A.03,
 Gaussian 16:  EM64L-G16RevA.03 25-Dec-2016

 -------------
 #p 6-31g* mp2
 -------------

 ------------------------------------------------------
 Input file generated by CHIRIPA (05-May-2021 14:53:16)
 ------------------------------------------------------
 Symbolic Z-matrix:
 Charge =  0 Multiplicity = 1

                         Standard orientation:
 ---------------------------------------------------------------------
 Center     Atomic      Atomic             Coordinates (Angstroms)
 Number     Number       Type             X           Y           Z
 ---------------------------------------------------------------------
      1          6           0       -3.947557   -0.283532    0.254950
      2          6           0       -3.590846   -1.751311    0.492369
      3          6           0       -4.636054   -2.485165    1.333078
      4          1           0       -4.060717    0.221118    1.224211
      5          1           0       -4.925464   -0.226989   -0.242941
      6          1           0       -2.613269   -1.805116    0.988418
      7          1           0       -3.478333   -2.252481   -0.477573
      8          1           0       -5.613168   -2.461173    0.839851
      9          1           0       -4.743189   -2.011267    2.314171
     10          1           0       -4.361139   -3.532775    1.490545
     11          6           0       -2.912217    0.463488   -0.583954
     12          6           0       -3.268928    1.931267   -0.821373
     13          6           0       -2.223720    2.665122   -1.662083
     14          1           0       -1.934310    0.406945   -0.086064
     15          1           0       -2.799057   -0.041162   -1.553216
     16          1           0       -3.381441    2.432437    0.148568
     17          1           0       -4.246505    1.985072   -1.317423
     18          1           0       -2.116585    2.191223   -2.643176
     19          1           0       -1.246606    2.641130   -1.168855
     20          1           0       -2.498635    3.712731   -1.819549
     21          6           0        1.987729    1.909126    1.531773
     22          6           0        1.033731    1.218160    0.777469
     23          6           0        1.405732    0.119986   -0.003671
     24          6           0        2.746487   -0.261659   -0.007144
     25          6           0        3.720340    0.406393    0.733536
     26          6           0        3.325629    1.501756    1.507443
     27          1           0        1.689929    2.761122    2.135774
     28          1           0       -0.006019    1.532288    0.794445
     29          1           0        0.687793   -0.432916   -0.597204
     30          1           0        4.749240    0.069642    0.696374
     31          1           0        4.068677    2.036485    2.092242
     32          7           0        3.152328   -1.422758   -0.830274
     33          8           0        4.339929   -1.739052   -0.816245
     34          8           0        2.275139   -1.994547   -1.473884
 ---------------------------------------------------------------------

 SCF Done:  E(RHF) =  -669.535168071     A.U. after   15 cycles
 E2 =    -0.2092346583D+01 EUMP2 =    -0.67162751465415D+03

 The electronic state is 1-A.
 Alpha  occ. eigenvalues --  -20.60737 -20.60731 -15.85790 -11.31158 -11.27746
 Alpha  occ. eigenvalues --  -11.27718 -11.27489 -11.26753 -11.26721 -11.22369
 Alpha  occ. eigenvalues --  -11.22232 -11.21993 -11.21928 -11.21816 -11.21345
 Alpha  occ. eigenvalues --   -1.59812  -1.39365  -1.19339  -1.09091  -1.08733
 Alpha  occ. eigenvalues --   -1.04748  -1.04102  -0.96562  -0.95566  -0.87573
 Alpha  occ. eigenvalues --   -0.86144  -0.82412  -0.80177  -0.78907  -0.77435
 Alpha  occ. eigenvalues --   -0.72009  -0.71135  -0.70448  -0.65819  -0.64988
 Alpha  occ. eigenvalues --   -0.64723  -0.62159  -0.61427  -0.59926  -0.58162
 Alpha  occ. eigenvalues --   -0.55877  -0.55250  -0.53217  -0.53102  -0.52957
 Alpha  occ. eigenvalues --   -0.52834  -0.50518  -0.48776  -0.48762  -0.48466
 Alpha  occ. eigenvalues --   -0.47211  -0.46409  -0.46329  -0.44770  -0.44378
 Alpha  occ. eigenvalues --   -0.37321  -0.36340
 Alpha virt. eigenvalues --    0.05079   0.11253   0.16482   0.19129   0.22911
 Alpha virt. eigenvalues --    0.23718   0.25036   0.26172   0.27239   0.28279
 Alpha virt. eigenvalues --    0.29869   0.30100   0.31184   0.31527   0.31934

 Mulliken charges:
               1
     1  C   -0.297930
     2  C   -0.300872
     3  C   -0.476213
     4  H    0.148686
     5  H    0.152846
     6  H    0.151279
     7  H    0.156061
     8  H    0.156089
     9  H    0.154560
    10  H    0.163469
    11  C   -0.304749
    12  C   -0.301106
    13  C   -0.478982
    14  H    0.140447
    15  H    0.156414
    16  H    0.149584
    17  H    0.157142
    18  H    0.160886
    19  H    0.148986
    20  H    0.163483
    21  C   -0.171030
    22  C   -0.224428
    23  C   -0.173729
    24  C    0.158779
    25  C   -0.170514
    26  C   -0.218760
    27  H    0.225773
    28  H    0.229660
    29  H    0.277845
    30  H    0.275607
    31  H    0.223381
    32  N    0.488288
    33  O   -0.460705
    34  O   -0.460247
 Sum of Mulliken charges =  -0.00000

 Dipole moment (field-independent basis, Debye):
    X=             -1.6032    Y=              4.0268    Z=              2.8244  Tot=              5.1733
 Quadrupole moment (field-independent basis, Debye-Ang):
   XX=            -97.5759   YY=            -97.7375   ZZ=            -94.4928
   XY=             12.1997   XZ=             10.8336   YZ=             -0.0009

 Normal termination of Gaussian 16 at Thu May  6 07:29:47 2021.
