 Gaussian 16, Revision A.03,
 Gaussian 16:  EM64L-G16RevA.03 25-Dec-2016

 -------------
 #p 6-31g* mp2
 -------------

 ------------------------------------------------------
 Input file generated by CHIRIPA (05-May-2021 14:51:08)
 ------------------------------------------------------
 Symbolic Z-matrix:
 Charge =  0 Multiplicity = 1

                         Standard orientation:
 ---------------------------------------------------------------------
 Center     Atomic      Atomic             Coordinates (Angstroms)
 Number     Number       Type             X           Y           Z
 ---------------------------------------------------------------------
      1          6           0       -2.788453   -0.104933    0.073076
      2          6           0       -3.045802    0.016636   -1.429248
      3          6           0       -4.129768    1.042273   -1.762236
      4          1           0       -3.724297   -0.381415    0.577752
      5          1           0       -2.498414    0.878156    0.469066
      6          1           0       -3.333927   -0.966685   -1.822540
      7          1           0       -2.109192    0.292674   -1.930429
      8          1           0       -3.846304    2.034704   -1.397092
      9          1           0       -5.077997    0.768189   -1.288590
     10          1           0       -4.297586    1.113022   -2.841444
     11          6           0       -1.707385   -1.126402    0.421818
     12          6           0       -1.450036   -1.247972    1.924142
     13          6           0       -0.366069   -2.273608    2.257130
     14          1           0       -1.997423   -2.109491    0.025828
     15          1           0       -0.771540   -0.849920   -0.082857
     16          1           0       -2.386645   -1.524009    2.425323
     17          1           0       -1.161911   -0.264650    2.317434
     18          1           0        0.582160   -1.999525    1.783484
     19          1           0       -0.649533   -3.266039    1.891986
     20          1           0       -0.198252   -2.344357    3.336339
     21          6           0        2.823505    0.172068   -0.482717
     22          6           0        2.357737   -1.107190   -1.178807
     23          6           0        3.520695   -1.984209   -1.643739
     24          1           0        3.463707    0.743102   -1.169016
     25          1           0        3.449929   -0.095244    0.379566
     26          1           0        1.731242   -0.837573   -2.038706
     27          1           0        1.718414   -1.675153   -0.490838
     28          1           0        4.142678   -2.281862   -0.793363
     29          1           0        4.155579   -1.439523   -2.350025
     30          1           0        3.165082   -2.893323   -2.138625
     31          6           0        1.672333    1.059267   -0.012177
     32          6           0        2.138101    2.338526    0.683913
     33          6           0        0.975142    3.215544    1.148845
     34          1           0        1.045908    1.326580   -0.874460
     35          1           0        1.032131    0.488233    0.674122
     36          1           0        2.777423    2.906488   -0.004056
     37          1           0        2.764596    2.068909    1.543812
     38          1           0        0.340258    2.670858    1.855131
     39          1           0        0.353159    3.513197    0.298468
     40          1           0        1.330755    4.124658    1.643730
 ---------------------------------------------------------------------

 SCF Done:  E(RHF) =  -470.732376806     A.U. after   11 cycles
 E2 =    -0.1585557253D+01 EUMP2 =    -0.47231793405957D+03

 The electronic state is 1-A.
 Alpha  occ. eigenvalues --  -11.21680 -11.21646 -11.21616 -11.21563 -11.21483
 Alpha  occ. eigenvalues --  -11.21423 -11.21322 -11.21231 -11.21163 -11.21130
 Alpha  occ. eigenvalues --  -11.21102 -11.21042  -1.08552  -1.08360  -1.03599
 Alpha  occ. eigenvalues --   -1.03526  -0.96054  -0.95964  -0.87073  -0.86981
 Alpha  occ. eigenvalues --   -0.79689  -0.79573  -0.78507  -0.78053  -0.65387
 Alpha  occ. eigenvalues --   -0.64831  -0.61004  -0.60928  -0.59440  -0.59312
 Alpha  occ. eigenvalues --   -0.57681  -0.57560  -0.55338  -0.55262  -0.52746
 Alpha  occ. eigenvalues --   -0.52669  -0.52487  -0.52389  -0.50058  -0.49863
 Alpha  occ. eigenvalues --   -0.48059  -0.47898  -0.46872  -0.46583  -0.46346
 Alpha  occ. eigenvalues --   -0.45794  -0.45676  -0.44937  -0.43847  -0.43752
 Alpha virt. eigenvalues --    0.19691   0.22214   0.23161   0.23987   0.25308
 Alpha virt. eigenvalues --    0.26216   0.26768   0.28204   0.28824   0.30187
 Alpha virt. eigenvalues --    0.30595   0.31236   0.31673   0.31722   0.32329

 Mulliken charges:
               1
     1  C   -0.298224
     2  C   -0.299902
     3  C   -0.475718
     4  H    0.149219
     5  H    0.150143
     6  H    0.151809
     7  H    0.151826
     8  H    0.155188
     9  H    0.155177
    10  H    0.159929
    11  C   -0.307599
    12  C   -0.301407
    13  C   -0.481282
    14  H    0.148733
    15  H    0.161364
    16  H    0.152757
    17  H    0.151246
    18  H    0.158558
    19  H    0.155886
    20  H    0.160523
    21  C   -0.297500
    22  C   -0.307847
    23  C   -0.475306
    24  H    0.150047
    25  H    0.149458
    26  H    0.152051
    27  H    0.159144
    28  H    0.155310
    29  H    0.155238
    30  H    0.160751
    31  C   -0.307466
    32  C   -0.299003
    33  C   -0.476763
    34  H    0.149341
    35  H    0.158316
    36  H    0.152354
    37  H    0.152315
    38  H    0.155241
    39  H    0.155124
    40  H    0.160970
 Sum of Mulliken charges =  -0.00000

 Dipole moment (field-independent basis, Debye):
    X=              0.0445    Y=              0.0011    Z=             -0.0088  Tot=              0.0454
 Quadrupole moment (field-independent basis, Debye-Ang):
   XX=            -85.4327   YY=            -85.0247   ZZ=            -84.3297
   XY=              1.6056   XZ=             -0.0720   YZ=             -0.4663

 Normal termination of Gaussian 16 at Thu May  6 05:17:36 2021.
