 Gaussian 16, Revision A.03,
 Gaussian 16:  EM64L-G16RevA.03 25-Dec-2016

 -------------
 #p 6-31g* mp2
 -------------

 ------------------------------------------------------
 Input file generated by CHIRIPA (05-May-2021 14:57:25)
 ------------------------------------------------------
 Symbolic Z-matrix:
 Charge =  0 Multiplicity = 1

                         Standard orientation:
 ---------------------------------------------------------------------
 Center     Atomic      Atomic             Coordinates (Angstroms)
 Number     Number       Type             X           Y           Z
 ---------------------------------------------------------------------
      1          6           0       -3.057968    2.575014    0.370146
      2          6           0       -4.078847    1.635807    0.549637
      3          6           0       -3.879140    0.295559    0.205543
      4          6           0       -2.640604   -0.072395   -0.317839
      5          6           0       -1.603886    0.839823   -0.508541
      6          6           0       -1.825918    2.174730   -0.157440
      7          1           0       -3.221776    3.614077    0.640168
      8          1           0       -5.036692    1.943818    0.959158
      9          1           0       -4.652184   -0.452313    0.334024
     10          1           0       -0.659794    0.502707   -0.918979
     11          1           0       -1.031278    2.901954   -0.297933
     12          7           0       -2.417366   -1.488428   -0.685825
     13          8           0       -1.317151   -1.787205   -1.145060
     14          8           0       -3.346833   -2.272726   -0.508049
     15          6           0        1.373769   -1.799572    1.664852
     16          6           0        1.736150   -2.134415    0.356004
     17          6           0        2.458477   -1.234321   -0.433059
     18          6           0        2.803426   -0.002572    0.121103
     19          6           0        2.457055    0.360226    1.421755
     20          6           0        1.734741   -0.555514    2.192619
     21          1           0        0.812653   -2.504864    2.270747
     22          1           0        1.457174   -3.099852   -0.056486
     23          1           0        2.751972   -1.467792   -1.449312
     24          1           0        2.749476    1.330162    1.805332
     25          1           0        1.454670   -0.292771    3.208774
     26          7           0        3.568113    0.958599   -0.704610
     27          8           0        3.859920    2.037405   -0.193080
     28          8           0        3.861190    0.614959   -1.847701
 ---------------------------------------------------------------------

 SCF Done:  E(RHF) =  -868.339637793     A.U. after   16 cycles
 E2 =    -0.2600808606D+01 EUMP2 =    -0.87094044639884D+03

 The electronic state is 1-A.
 Alpha  occ. eigenvalues --  -20.61262 -20.61256 -20.60787 -20.60762 -15.86289
 Alpha  occ. eigenvalues --  -15.85820 -11.31447 -11.31016 -11.28021 -11.27947
 Alpha  occ. eigenvalues --  -11.27703 -11.27546 -11.27388 -11.27100 -11.26986
 Alpha  occ. eigenvalues --  -11.26910 -11.26549 -11.26301  -1.60335  -1.59864
 Alpha  occ. eigenvalues --   -1.39892  -1.39418  -1.19605  -1.19120  -1.09042
 Alpha  occ. eigenvalues --   -1.08536  -1.04968  -1.04449  -0.95911  -0.95409
 Alpha  occ. eigenvalues --   -0.86376  -0.85854  -0.82750  -0.82222  -0.77817
 Alpha  occ. eigenvalues --   -0.77314  -0.72536  -0.72030  -0.71653  -0.71204
 Alpha  occ. eigenvalues --   -0.70705  -0.70179  -0.65258  -0.64961  -0.64738
 Alpha  occ. eigenvalues --   -0.64406  -0.62313  -0.61786  -0.55485  -0.54931
 Alpha  occ. eigenvalues --   -0.53334  -0.53124  -0.52740  -0.52507  -0.49287
 Alpha  occ. eigenvalues --   -0.49267  -0.48802  -0.48771  -0.45348  -0.44859
 Alpha  occ. eigenvalues --   -0.37591  -0.37077  -0.36582  -0.35964
 Alpha virt. eigenvalues --    0.04651   0.05179   0.11081   0.11635   0.16210
 Alpha virt. eigenvalues --    0.16765   0.21219   0.21845   0.27066   0.27750
 Alpha virt. eigenvalues --    0.28050   0.28657   0.30796   0.31417   0.32074

 Mulliken charges:
               1
     1  C   -0.170660
     2  C   -0.219257
     3  C   -0.171735
     4  C    0.155777
     5  C   -0.169770
     6  C   -0.220788
     7  H    0.227132
     8  H    0.223714
     9  H    0.274752
    10  H    0.278250
    11  H    0.228789
    12  N    0.488195
    13  O   -0.464616
    14  O   -0.461162
    15  C   -0.175666
    16  C   -0.199623
    17  C   -0.175606
    18  C    0.152073
    19  C   -0.177624
    20  C   -0.218569
    21  H    0.227774
    22  H    0.235027
    23  H    0.277306
    24  H    0.271435
    25  H    0.221194
    26  N    0.487002
    27  O   -0.464369
    28  O   -0.458975
 Sum of Mulliken charges =  -0.00000

 Dipole moment (field-independent basis, Debye):
    X=             -3.5798    Y=              1.3760    Z=              4.1352  Tot=              5.6399
 Quadrupole moment (field-independent basis, Debye-Ang):
   XX=           -112.9254   YY=           -103.3946   ZZ=           -102.8606
   XY=            -22.4032   XZ=              2.8186   YZ=              0.2957

 Normal termination of Gaussian 16 at Thu May  6 03:33:51 2021.
