 Gaussian 16, Revision A.03,
 Gaussian 16:  EM64L-G16RevA.03 25-Dec-2016

 -------------
 #p 6-31g* mp2
 -------------

 ------------------------------------------------------
 Input file generated by CHIRIPA (05-May-2021 14:53:15)
 ------------------------------------------------------
 Symbolic Z-matrix:
 Charge =  0 Multiplicity = 1

                         Standard orientation:
 ---------------------------------------------------------------------
 Center     Atomic      Atomic             Coordinates (Angstroms)
 Number     Number       Type             X           Y           Z
 ---------------------------------------------------------------------
      1          6           0        2.153628    0.287193    0.149191
      2          6           0        3.611704   -0.143160    0.312891
      3          6           0        3.751632   -1.595157    0.771061
      4          1           0        1.628134    0.150296    1.104210
      5          1           0        1.662043   -0.376074   -0.575941
      6          1           0        4.100762    0.521583    1.036462
      7          1           0        4.133835   -0.005043   -0.642577
      8          1           0        3.289087   -2.273824    0.047139
      9          1           0        3.255826   -1.744206    1.735718
     10          1           0        4.802097   -1.881779    0.881651
     11          6           0        1.997410    1.736309   -0.308397
     12          6           0        0.539335    2.166661   -0.472096
     13          6           0        0.399406    3.618658   -0.930267
     14          1           0        2.488995    2.399575    0.416735
     15          1           0        2.522904    1.873205   -1.263415
     16          1           0        0.017203    2.028544    0.483371
     17          1           0        0.050276    1.501919   -1.195668
     18          1           0        0.895212    3.767708   -1.894923
     19          1           0        0.861951    4.297326   -0.206345
     20          1           0       -0.651059    3.905280   -1.040857
     21          6           0       -2.725262    1.078548    1.348483
     22          6           0       -2.918753    0.969766   -0.032549
     23          6           0       -2.312126   -0.061746   -0.755413
     24          6           0       -1.514791   -0.971116   -0.062165
     25          6           0       -1.302788   -0.889358    1.313212
     26          6           0       -1.919317    0.150275    2.015779
     27          1           0       -3.200351    1.883006    1.902137
     28          1           0       -3.544138    1.689242   -0.553408
     29          1           0       -2.444957   -0.169454   -1.825073
     30          1           0       -0.673869   -1.621665    1.804746
     31          1           0       -1.767272    0.232294    3.088253
     32          7           0       -0.867341   -2.067431   -0.816685
     33          8           0       -0.169534   -2.855841   -0.182560
     34          8           0       -1.069935   -2.117554   -2.027916
 ---------------------------------------------------------------------

 SCF Done:  E(RHF) =  -669.533289339     A.U. after   15 cycles
 E2 =    -0.2097772344D+01 EUMP2 =    -0.67163106168325D+03

 The electronic state is 1-A.
 Alpha  occ. eigenvalues --  -20.60887 -20.60871 -15.85907 -11.31212 -11.27838
 Alpha  occ. eigenvalues --  -11.27806 -11.27577 -11.26842 -11.26808 -11.21390
 Alpha  occ. eigenvalues --  -11.21221 -11.21193 -11.21180 -11.21097 -11.20450
 Alpha  occ. eigenvalues --   -1.59950  -1.39502  -1.19443  -1.08838  -1.08204
 Alpha  occ. eigenvalues --   -1.04849  -1.03278  -0.95744  -0.95677  -0.86763
 Alpha  occ. eigenvalues --   -0.86235  -0.82510  -0.79373  -0.78080  -0.77546
 Alpha  occ. eigenvalues --   -0.72139  -0.71264  -0.70559  -0.65094  -0.64880
 Alpha  occ. eigenvalues --   -0.64812  -0.62192  -0.60691  -0.59201  -0.57369
 Alpha  occ. eigenvalues --   -0.55350  -0.55027  -0.53381  -0.52937  -0.52363
 Alpha  occ. eigenvalues --   -0.52139  -0.49685  -0.48903  -0.48896  -0.47588
 Alpha  occ. eigenvalues --   -0.46452  -0.45561  -0.45444  -0.44783  -0.43544
 Alpha  occ. eigenvalues --   -0.37338  -0.36333
 Alpha virt. eigenvalues --    0.04934   0.11093   0.16393   0.21109   0.23159
 Alpha virt. eigenvalues --    0.24173   0.26480   0.27057   0.27508   0.28104
 Alpha virt. eigenvalues --    0.28613   0.30642   0.31503   0.31947   0.32233

 Mulliken charges:
               1
     1  C   -0.300390
     2  C   -0.299519
     3  C   -0.476926
     4  H    0.143744
     5  H    0.153959
     6  H    0.148110
     7  H    0.152701
     8  H    0.170104
     9  H    0.149938
    10  H    0.157408
    11  C   -0.297207
    12  C   -0.304563
    13  C   -0.474660
    14  H    0.146373
    15  H    0.150395
    16  H    0.154330
    17  H    0.152328
    18  H    0.156528
    19  H    0.153747
    20  H    0.152104
    21  C   -0.171213
    22  C   -0.212649
    23  C   -0.173296
    24  C    0.163027
    25  C   -0.167921
    26  C   -0.220301
    27  H    0.226117
    28  H    0.223690
    29  H    0.275510
    30  H    0.276139
    31  H    0.223690
    32  N    0.488354
    33  O   -0.458994
    34  O   -0.460657
 Sum of Mulliken charges =  -0.00000

 Dipole moment (field-independent basis, Debye):
    X=             -2.3949    Y=              3.6594    Z=              2.6294  Tot=              5.1030
 Quadrupole moment (field-independent basis, Debye-Ang):
   XX=            -87.7516   YY=           -103.7246   ZZ=            -90.9208
   XY=             -4.5826   XZ=             -2.3573   YZ=             -3.7026

 Normal termination of Gaussian 16 at Wed May  5 18:42:05 2021.
