 Gaussian 16, Revision A.03,
 Gaussian 16:  EM64L-G16RevA.03 25-Dec-2016

 -------------
 #p 6-31g* mp2
 -------------

 ------------------------------------------------------
 Input file generated by CHIRIPA (05-May-2021 14:55:20)
 ------------------------------------------------------
 Symbolic Z-matrix:
 Charge =  0 Multiplicity = 1

                         Standard orientation:
 ---------------------------------------------------------------------
 Center     Atomic      Atomic             Coordinates (Angstroms)
 Number     Number       Type             X           Y           Z
 ---------------------------------------------------------------------
      1          6           0       -3.633004   -1.308174   -1.466107
      2          6           0       -3.424070    0.074776   -1.483908
      3          6           0       -2.655519    0.689571   -0.490981
      4          6           0       -2.108378   -0.112528    0.509301
      5          6           0       -2.298479   -1.492789    0.554362
      6          6           0       -3.070533   -2.086171   -0.448823
      7          1           0       -4.231393   -1.777444   -2.241421
      8          1           0       -3.859665    0.681473   -2.272718
      9          1           0       -2.477829    1.758093   -0.480650
     10          1           0       -1.851331   -2.071299    1.353613
     11          1           0       -3.231124   -3.160410   -0.432471
     12          7           0       -1.292893    0.526993    1.565898
     13          8           0       -0.821773   -0.201841    2.436233
     14          8           0       -1.140277    1.744974    1.503716
     15          6           0        3.400280   -0.113899   -0.043377
     16          6           0        3.636248   -1.519168   -0.597923
     17          6           0        4.698320   -2.292643    0.184084
     18          1           0        4.347068    0.443151   -0.058583
     19          1           0        3.098724   -0.189036    1.010575
     20          1           0        3.935928   -1.441473   -1.650904
     21          1           0        2.688746   -2.072873   -0.581573
     22          1           0        4.402785   -2.399692    1.232797
     23          1           0        5.657053   -1.764704    0.157390
     24          1           0        4.851064   -3.294461   -0.229305
     25          6           0        2.341237    0.671796   -0.814635
     26          6           0        2.105268    2.077067   -0.260090
     27          6           0        1.043196    2.850542   -1.042096
     28          1           0        2.642792    0.746934   -1.868587
     29          1           0        1.394447    0.114747   -0.799429
     30          1           0        3.052769    2.630772   -0.276439
     31          1           0        1.805588    1.999370    0.792893
     32          1           0        0.084464    2.322602   -1.015402
     33          1           0        1.338731    2.957590   -2.090810
     34          1           0        0.890452    3.852359   -0.628707
 ---------------------------------------------------------------------

 SCF Done:  E(RHF) =  -669.536028941     A.U. after   15 cycles
 E2 =    -0.2093262393D+01 EUMP2 =    -0.67162929133375D+03

 The electronic state is 1-A.
 Alpha  occ. eigenvalues --  -20.61023 -20.60997 -15.86027 -11.31348 -11.27894
 Alpha  occ. eigenvalues --  -11.27886 -11.27619 -11.26895 -11.26883 -11.21182
 Alpha  occ. eigenvalues --  -11.20805 -11.20739 -11.20689 -11.20627 -11.20267
 Alpha  occ. eigenvalues --   -1.60069  -1.39624  -1.19503  -1.08908  -1.07799
 Alpha  occ. eigenvalues --   -1.04892  -1.02883  -0.95760  -0.95355  -0.86403
 Alpha  occ. eigenvalues --   -0.86285  -0.82583  -0.78968  -0.77665  -0.77581
 Alpha  occ. eigenvalues --   -0.72253  -0.71405  -0.70606  -0.65159  -0.64894
 Alpha  occ. eigenvalues --   -0.64405  -0.62249  -0.60251  -0.58741  -0.56966
 Alpha  occ. eigenvalues --   -0.55397  -0.54660  -0.53225  -0.52983  -0.52059
 Alpha  occ. eigenvalues --   -0.51801  -0.49435  -0.49008  -0.48924  -0.47298
 Alpha  occ. eigenvalues --   -0.45962  -0.45222  -0.45040  -0.44891  -0.43153
 Alpha  occ. eigenvalues --   -0.37467  -0.36481
 Alpha virt. eigenvalues --    0.04839   0.11058   0.16333   0.21175   0.23316
 Alpha virt. eigenvalues --    0.24736   0.26619   0.27200   0.27890   0.28142
 Alpha virt. eigenvalues --    0.28967   0.30633   0.31530   0.32377   0.32500

 Mulliken charges:
               1
     1  C   -0.170347
     2  C   -0.218767
     3  C   -0.171979
     4  C    0.158734
     5  C   -0.171300
     6  C   -0.218198
     7  H    0.226335
     8  H    0.224541
     9  H    0.277714
    10  H    0.275869
    11  H    0.224105
    12  N    0.488231
    13  O   -0.459642
    14  O   -0.458005
    15  C   -0.299873
    16  C   -0.298341
    17  C   -0.475748
    18  H    0.148462
    19  H    0.157679
    20  H    0.149314
    21  H    0.149067
    22  H    0.157358
    23  H    0.154823
    24  H    0.157288
    25  C   -0.296855
    26  C   -0.305271
    27  C   -0.471450
    28  H    0.145331
    29  H    0.142402
    30  H    0.147876
    31  H    0.171805
    32  H    0.150988
    33  H    0.145802
    34  H    0.162053
 Sum of Mulliken charges =  -0.00000

 Dipole moment (field-independent basis, Debye):
    X=             -3.0458    Y=             -2.2344    Z=             -3.5020  Tot=              5.1510
 Quadrupole moment (field-independent basis, Debye-Ang):
   XX=            -83.3765   YY=            -90.8324   ZZ=            -98.2382
   XY=              5.3859   XZ=              6.6902   YZ=             -2.4709

 Normal termination of Gaussian 16 at Thu May  6 14:08:22 2021.
