 Gaussian 16, Revision A.03,
 Gaussian 16:  EM64L-G16RevA.03 25-Dec-2016

 -------------
 #p 6-31g* mp2
 -------------

 ------------------------------------------------------
 Input file generated by CHIRIPA (05-May-2021 14:57:26)
 ------------------------------------------------------
 Symbolic Z-matrix:
 Charge =  0 Multiplicity = 1

                         Standard orientation:
 ---------------------------------------------------------------------
 Center     Atomic      Atomic             Coordinates (Angstroms)
 Number     Number       Type             X           Y           Z
 ---------------------------------------------------------------------
      1          6           0       -4.715191    2.148263    0.608034
      2          6           0       -3.359187    2.148683    0.264852
      3          6           0       -2.733972    0.972638   -0.160087
      4          6           0       -3.498287   -0.191045   -0.230459
      5          6           0       -4.851044   -0.223542    0.104628
      6          6           0       -5.455486    0.964239    0.526970
      7          1           0       -5.192805    3.066401    0.937128
      8          1           0       -2.781790    3.066732    0.326846
      9          1           0       -1.685731    0.944658   -0.431798
     10          1           0       -5.400561   -1.154281    0.032699
     11          1           0       -6.508737    0.960946    0.792857
     12          7           0       -2.847395   -1.442284   -0.678948
     13          8           0       -3.542760   -2.454336   -0.732392
     14          8           0       -1.654186   -1.387260   -0.968537
     15          6           0        5.637757    1.270370   -0.607320
     16          6           0        5.787497    0.013416   -0.012199
     17          6           0        4.668559   -0.707805    0.414842
     18          6           0        3.409096   -0.139455    0.230389
     19          6           0        3.227317    1.110624   -0.359142
     20          6           0        4.360397    1.814003   -0.778589
     21          1           0        6.512468    1.823701   -0.936106
     22          1           0        6.778291   -0.411248    0.122088
     23          1           0        4.755727   -1.682886    0.878564
     24          1           0        2.226776    1.507916   -0.479546
     25          1           0        4.241091    2.789961   -1.240453
     26          7           0        2.217042   -0.893535    0.678459
     27          8           0        1.118317   -0.370839    0.504593
     28          8           0        2.404004   -1.993003    1.195039
 ---------------------------------------------------------------------

 SCF Done:  E(RHF) =  -868.336256984     A.U. after   16 cycles
 E2 =    -0.2600477213D+01 EUMP2 =    -0.87093673419787D+03

 The electronic state is 1-A.
 Alpha  occ. eigenvalues --  -20.60341 -20.60307 -20.59661 -20.59540 -15.85386
 Alpha  occ. eigenvalues --  -15.84654 -11.30958 -11.30287 -11.27594 -11.27523
 Alpha  occ. eigenvalues --  -11.27324 -11.26944 -11.26844 -11.26763 -11.26633
 Alpha  occ. eigenvalues --  -11.26589 -11.26021 -11.26001  -1.59377  -1.58677
 Alpha  occ. eigenvalues --   -1.38935  -1.38214  -1.19146  -1.18507  -1.08497
 Alpha  occ. eigenvalues --   -1.07865  -1.04587  -1.03955  -0.95302  -0.94645
 Alpha  occ. eigenvalues --   -0.85975  -0.85340  -0.82145  -0.81474  -0.77168
 Alpha  occ. eigenvalues --   -0.76455  -0.71630  -0.70883  -0.70665  -0.70262
 Alpha  occ. eigenvalues --   -0.69997  -0.69625  -0.64802  -0.64596  -0.64159
 Alpha  occ. eigenvalues --   -0.63978  -0.61943  -0.61287  -0.55077  -0.54480
 Alpha  occ. eigenvalues --   -0.52894  -0.52689  -0.52272  -0.52058  -0.48373
 Alpha  occ. eigenvalues --   -0.48343  -0.47677  -0.47589  -0.44292  -0.43525
 Alpha  occ. eigenvalues --   -0.37129  -0.36524  -0.36198  -0.35569
 Alpha virt. eigenvalues --    0.05395   0.06087   0.11455   0.12082   0.16845
 Alpha virt. eigenvalues --    0.17507   0.21333   0.22161   0.26913   0.27743
 Alpha virt. eigenvalues --    0.28317   0.29277   0.30765   0.31719   0.32373

 Mulliken charges:
               1
     1  C   -0.171485
     2  C   -0.219684
     3  C   -0.169440
     4  C    0.157647
     5  C   -0.171238
     6  C   -0.219241
     7  H    0.221744
     8  H    0.218469
     9  H    0.285026
    10  H    0.274040
    11  H    0.220272
    12  N    0.487052
    13  O   -0.467152
    14  O   -0.447180
    15  C   -0.171424
    16  C   -0.218256
    17  C   -0.170750
    18  C    0.160198
    19  C   -0.169389
    20  C   -0.218133
    21  H    0.224581
    22  H    0.223118
    23  H    0.276524
    24  H    0.269543
    25  H    0.221172
    26  N    0.492010
    27  O   -0.460192
    28  O   -0.457832
 Sum of Mulliken charges =  -0.00000

 Dipole moment (field-independent basis, Debye):
    X=              2.1639    Y=              6.8619    Z=             -0.0047  Tot=              7.1950
 Quadrupole moment (field-independent basis, Debye-Ang):
   XX=            -56.9334   YY=           -104.5420   ZZ=           -107.4694
   XY=             -6.6905   XZ=             -9.0068   YZ=             -2.2580

 Normal termination of Gaussian 16 at Wed May  5 22:52:15 2021.
