 Gaussian 16, Revision A.03,
 Gaussian 16:  EM64L-G16RevA.03 25-Dec-2016

 -------------
 #p 6-31g* mp2
 -------------

 ------------------------------------------------------
 Input file generated by CHIRIPA (05-May-2021 14:51:11)
 ------------------------------------------------------
 Symbolic Z-matrix:
 Charge =  0 Multiplicity = 1

                         Standard orientation:
 ---------------------------------------------------------------------
 Center     Atomic      Atomic             Coordinates (Angstroms)
 Number     Number       Type             X           Y           Z
 ---------------------------------------------------------------------
      1          6           0       -2.623598   -0.795722    0.496688
      2          6           0       -1.457972   -0.842190    1.485192
      3          6           0       -0.993052   -2.267722    1.784365
      4          1           0       -3.462180   -1.379222    0.900731
      5          1           0       -2.322150   -1.287907   -0.438341
      6          1           0       -1.761064   -0.348841    2.417586
      7          1           0       -0.622135   -0.258353    1.078836
      8          1           0       -0.664444   -2.766321    0.866750
      9          1           0       -1.809845   -2.857323    2.213107
     10          1           0       -0.159143   -2.277604    2.493138
     11          6           0       -3.099616    0.622583    0.187585
     12          6           0       -4.265242    0.669052   -0.800920
     13          6           0       -4.730162    2.094583   -1.100093
     14          1           0       -3.401064    1.114769    1.122613
     15          1           0       -2.261034    1.206084   -0.216459
     16          1           0       -5.101080    0.085214   -0.394564
     17          1           0       -3.962150    0.175703   -1.733314
     18          1           0       -3.913369    2.684185   -1.528835
     19          1           0       -5.058770    2.593183   -0.182478
     20          1           0       -5.564071    2.104465   -1.808865
     21          6           0        2.438833   -0.545330   -0.268662
     22          6           0        2.611827   -1.528687   -1.426705
     23          6           0        1.759610   -2.787845   -1.265333
     24          1           0        2.699362   -1.047964    0.672841
     25          1           0        1.379374   -0.264597   -0.190346
     26          1           0        3.670864   -1.806412   -1.503686
     27          1           0        2.351040   -1.023595   -2.365581
     28          1           0        0.697107   -2.529539   -1.210888
     29          1           0        2.024430   -3.316804   -0.344097
     30          1           0        1.898670   -3.476962   -2.104165
     31          6           0        3.284382    0.718467   -0.415611
     32          6           0        3.111387    1.701826    0.742433
     33          6           0        3.963604    2.960984    0.581060
     34          1           0        4.343839    0.437736   -0.493927
     35          1           0        3.023852    1.221103   -1.357113
     36          1           0        3.372175    1.196734    1.681309
     37          1           0        2.052351    1.979551    0.819414
     38          1           0        3.698784    3.489942   -0.340176
     39          1           0        5.026108    2.702677    0.526616
     40          1           0        3.824545    3.650101    1.419893
 ---------------------------------------------------------------------

 SCF Done:  E(RHF) =  -470.732769662     A.U. after   11 cycles
 E2 =    -0.1584042644D+01 EUMP2 =    -0.47231681230550D+03

 The electronic state is 1-A.
 Alpha  occ. eigenvalues --  -11.21649 -11.21630 -11.21616 -11.21537 -11.21435
 Alpha  occ. eigenvalues --  -11.21416 -11.21375 -11.21355 -11.21117 -11.21091
 Alpha  occ. eigenvalues --  -11.21086 -11.20955  -1.08485  -1.08414  -1.03585
 Alpha  occ. eigenvalues --   -1.03492  -0.96026  -0.95951  -0.87063  -0.86948
 Alpha  occ. eigenvalues --   -0.79642  -0.79568  -0.78338  -0.78199  -0.65240
 Alpha  occ. eigenvalues --   -0.64945  -0.61079  -0.60817  -0.59377  -0.59326
 Alpha  occ. eigenvalues --   -0.57725  -0.57493  -0.55332  -0.55238  -0.52711
 Alpha  occ. eigenvalues --   -0.52644  -0.52544  -0.52313  -0.50057  -0.49806
 Alpha  occ. eigenvalues --   -0.48071  -0.47795  -0.46677  -0.46632  -0.46061
 Alpha  occ. eigenvalues --   -0.45789  -0.45706  -0.45325  -0.43820  -0.43766
 Alpha virt. eigenvalues --    0.20136   0.23185   0.23543   0.24536   0.25656
 Alpha virt. eigenvalues --    0.25954   0.26654   0.27827   0.28971   0.29393
 Alpha virt. eigenvalues --    0.30423   0.31316   0.31664   0.32108   0.32167

 Mulliken charges:
               1
     1  C   -0.298738
     2  C   -0.306176
     3  C   -0.479461
     4  H    0.150077
     5  H    0.148540
     6  H    0.151958
     7  H    0.157432
     8  H    0.160984
     9  H    0.154293
    10  H    0.159767
    11  C   -0.297981
    12  C   -0.299636
    13  C   -0.475695
    14  H    0.149861
    15  H    0.148473
    16  H    0.152147
    17  H    0.151819
    18  H    0.154998
    19  H    0.155268
    20  H    0.160329
    21  C   -0.305250
    22  C   -0.299372
    23  C   -0.478668
    24  H    0.150176
    25  H    0.156380
    26  H    0.152269
    27  H    0.151580
    28  H    0.156906
    29  H    0.156835
    30  H    0.160469
    31  C   -0.297824
    32  C   -0.300041
    33  C   -0.475694
    34  H    0.149741
    35  H    0.149334
    36  H    0.152141
    37  H    0.151860
    38  H    0.155144
    39  H    0.155292
    40  H    0.160465
 Sum of Mulliken charges =  -0.00000

 Dipole moment (field-independent basis, Debye):
    X=              0.0352    Y=             -0.0130    Z=             -0.0027  Tot=              0.0376
 Quadrupole moment (field-independent basis, Debye-Ang):
   XX=            -84.2169   YY=            -86.4125   ZZ=            -84.0761
   XY=             -0.4696   XZ=             -0.2600   YZ=              0.0327

 Normal termination of Gaussian 16 at Wed May  5 23:07:02 2021.
