 Gaussian 16, Revision A.03,
 Gaussian 16:  EM64L-G16RevA.03 25-Dec-2016

 -------------
 #p 6-31g* mp2
 -------------

 ------------------------------------------------------
 Input file generated by CHIRIPA (05-May-2021 14:55:21)
 ------------------------------------------------------
 Symbolic Z-matrix:
 Charge =  0 Multiplicity = 1

                         Standard orientation:
 ---------------------------------------------------------------------
 Center     Atomic      Atomic             Coordinates (Angstroms)
 Number     Number       Type             X           Y           Z
 ---------------------------------------------------------------------
      1          6           0        2.416000   -2.195456   -0.647794
      2          6           0        3.752534   -1.878292   -0.383962
      3          6           0        4.126922   -0.561813   -0.098896
      4          6           0        3.134363    0.416935   -0.085961
      5          6           0        1.794435    0.132446   -0.344705
      6          6           0        1.442932   -1.190846   -0.627360
      7          1           0        2.134056   -3.220775   -0.868304
      8          1           0        4.510365   -2.656435   -0.399145
      9          1           0        5.154292   -0.288474    0.108989
     10          1           0        1.061472    0.929743   -0.322333
     11          1           0        0.404195   -1.434245   -0.831874
     12          7           0        3.518597    1.814239    0.214549
     13          8           0        2.625171    2.658276    0.219835
     14          8           0        4.705910    2.038950    0.439114
     15          6           0       -4.195661    0.476244    0.129683
     16          6           0       -5.627931    0.561355   -0.398844
     17          6           0       -6.143460    1.998486   -0.480593
     18          1           0       -4.150403    0.940670    1.124270
     19          1           0       -3.536296    1.066822   -0.521354
     20          1           0       -6.284173   -0.030337    0.252204
     21          1           0       -5.669826    0.096501   -1.392208
     22          1           0       -5.512666    2.596772   -1.145992
     23          1           0       -6.130504    2.469213    0.507763
     24          1           0       -7.169056    2.036077   -0.860854
     25          6           0       -3.666192   -0.954049    0.217169
     26          6           0       -2.233922   -1.039161    0.745696
     27          6           0       -1.718393   -2.476291    0.827445
     28          1           0       -4.325557   -1.544629    0.868206
     29          1           0       -3.711450   -1.418477   -0.777419
     30          1           0       -2.192028   -0.574307    1.739060
     31          1           0       -1.577680   -0.447468    0.094648
     32          1           0       -1.731349   -2.947018   -0.160912
     33          1           0       -2.349187   -3.074577    1.492843
     34          1           0       -0.692797   -2.513883    1.207705
 ---------------------------------------------------------------------

 SCF Done:  E(RHF) =  -669.534756094     A.U. after   15 cycles
 E2 =    -0.2092454120D+01 EUMP2 =    -0.67162721021378D+03

 The electronic state is 1-A.
 Alpha  occ. eigenvalues --  -20.60729 -20.60724 -15.85781 -11.31142 -11.27706
 Alpha  occ. eigenvalues --  -11.27687 -11.27432 -11.26725 -11.26631 -11.22548
 Alpha  occ. eigenvalues --  -11.22070 -11.22058 -11.21961 -11.21839 -11.21306
 Alpha  occ. eigenvalues --   -1.59804  -1.39358  -1.19308  -1.09059  -1.08701
 Alpha  occ. eigenvalues --   -1.04725  -1.04161  -0.96613  -0.95540  -0.87632
 Alpha  occ. eigenvalues --   -0.86099  -0.82378  -0.80255  -0.78815  -0.77426
 Alpha  occ. eigenvalues --   -0.72000  -0.71127  -0.70415  -0.65791  -0.64955
 Alpha  occ. eigenvalues --   -0.64720  -0.62281  -0.61379  -0.59949  -0.58186
 Alpha  occ. eigenvalues --   -0.55921  -0.55176  -0.53372  -0.53116  -0.52935
 Alpha  occ. eigenvalues --   -0.52658  -0.50562  -0.48756  -0.48753  -0.48552
 Alpha  occ. eigenvalues --   -0.47309  -0.46357  -0.46258  -0.44765  -0.44398
 Alpha  occ. eigenvalues --   -0.37282  -0.36293
 Alpha virt. eigenvalues --    0.05101   0.11262   0.16563   0.19762   0.22797
 Alpha virt. eigenvalues --    0.24006   0.25056   0.26237   0.27049   0.28493
 Alpha virt. eigenvalues --    0.29035   0.29955   0.30981   0.31290   0.32203

 Mulliken charges:
               1
     1  C   -0.173965
     2  C   -0.218359
     3  C   -0.171233
     4  C    0.158770
     5  C   -0.174362
     6  C   -0.221862
     7  H    0.225974
     8  H    0.223200
     9  H    0.275386
    10  H    0.275535
    11  H    0.235180
    12  N    0.488163
    13  O   -0.460485
    14  O   -0.460664
    15  C   -0.299094
    16  C   -0.300170
    17  C   -0.476222
    18  H    0.152534
    19  H    0.149686
    20  H    0.152589
    21  H    0.151770
    22  H    0.156492
    23  H    0.156671
    24  H    0.161329
    25  C   -0.297958
    26  C   -0.303392
    27  C   -0.486422
    28  H    0.152521
    29  H    0.148693
    30  H    0.159780
    31  H    0.143325
    32  H    0.149085
    33  H    0.163063
    34  H    0.164444
 Sum of Mulliken charges =  -0.00000

 Dipole moment (field-independent basis, Debye):
    X=             -1.5454    Y=             -4.9098    Z=             -0.9709  Tot=              5.2380
 Quadrupole moment (field-independent basis, Debye-Ang):
   XX=            -98.1751   YY=           -100.0002   ZZ=            -94.3570
   XY=            -17.2982   XZ=             -3.3206   YZ=             -0.2394

 Normal termination of Gaussian 16 at Wed May  5 15:54:33 2021.
