 Gaussian 16, Revision A.03,
 Gaussian 16:  EM64L-G16RevA.03 25-Dec-2016

 -------------
 #p 6-31g* mp2
 -------------

 ------------------------------------------------------
 Input file generated by CHIRIPA (05-May-2021 14:53:12)
 ------------------------------------------------------
 Symbolic Z-matrix:
 Charge =  0 Multiplicity = 1

                         Standard orientation:
 ---------------------------------------------------------------------
 Center     Atomic      Atomic             Coordinates (Angstroms)
 Number     Number       Type             X           Y           Z
 ---------------------------------------------------------------------
      1          6           0       -4.147084    0.543882    0.081053
      2          6           0       -5.546273    0.744042   -0.502206
      3          6           0       -5.952720    2.216378   -0.571641
      4          1           0       -4.109703    0.983893    1.087005
      5          1           0       -3.420291    1.097460   -0.529453
      6          1           0       -6.270034    0.189125    0.108410
      7          1           0       -5.580382    0.303335   -1.506810
      8          1           0       -5.253246    2.780018   -1.197458
      9          1           0       -5.946816    2.665159    0.426939
     10          1           0       -6.956242    2.336455   -0.991624
     11          6           0       -3.726487   -0.922770    0.156931
     12          6           0       -2.327298   -1.122931    0.740190
     13          6           0       -1.920851   -2.595267    0.809625
     14          1           0       -4.453281   -1.476349    0.767437
     15          1           0       -3.763868   -1.362782   -0.849021
     16          1           0       -2.293189   -0.682223    1.744794
     17          1           0       -1.603537   -0.568013    0.129574
     18          1           0       -1.926755   -3.044047   -0.188955
     19          1           0       -2.620325   -3.158906    1.435442
     20          1           0       -0.917329   -2.715344    1.229608
     21          6           0        4.009530    2.441471    0.390495
     22          6           0        4.861710    1.410769   -0.019341
     23          6           0        4.355252    0.136084   -0.289949
     24          6           0        2.985326   -0.073721   -0.139701
     25          6           0        2.110660    0.932710    0.266926
     26          6           0        2.639141    2.199578    0.532070
     27          1           0        4.411512    3.428640    0.598589
     28          1           0        5.926394    1.595741   -0.130140
     29          1           0        4.992376   -0.679923   -0.608731
     30          1           0        1.053787    0.717917    0.368418
     31          1           0        1.974958    2.998140    0.850197
     32          7           0        2.437505   -1.419034   -0.423291
     33          8           0        1.226835   -1.578203   -0.283359
     34          8           0        3.229165   -2.288848   -0.780130
 ---------------------------------------------------------------------

 SCF Done:  E(RHF) =  -669.535852877     A.U. after   15 cycles
 E2 =    -0.2091659934D+01 EUMP2 =    -0.67162751281004D+03

 The electronic state is 1-A.
 Alpha  occ. eigenvalues --  -20.60917 -20.60904 -15.85949 -11.31268 -11.27834
 Alpha  occ. eigenvalues --  -11.27824 -11.27572 -11.26841 -11.26829 -11.21346
 Alpha  occ. eigenvalues --  -11.21060 -11.20929 -11.20794 -11.20730 -11.19714
 Alpha  occ. eigenvalues --   -1.59980  -1.39537  -1.19438  -1.08844  -1.07924
 Alpha  occ. eigenvalues --   -1.04834  -1.02906  -0.95698  -0.95323  -0.86358
 Alpha  occ. eigenvalues --   -0.86232  -0.82519  -0.79030  -0.77747  -0.77545
 Alpha  occ. eigenvalues --   -0.72187  -0.71296  -0.70547  -0.65101  -0.64838
 Alpha  occ. eigenvalues --   -0.64552  -0.62182  -0.60294  -0.58759  -0.56916
 Alpha  occ. eigenvalues --   -0.55339  -0.54630  -0.53168  -0.52927  -0.51982
 Alpha  occ. eigenvalues --   -0.51767  -0.49329  -0.48934  -0.48899  -0.47318
 Alpha  occ. eigenvalues --   -0.46082  -0.45259  -0.45157  -0.44927  -0.43147
 Alpha  occ. eigenvalues --   -0.37419  -0.36435
 Alpha virt. eigenvalues --    0.04936   0.11218   0.16422   0.20852   0.23252
 Alpha virt. eigenvalues --    0.24377   0.26040   0.27337   0.27617   0.28590
 Alpha virt. eigenvalues --    0.29020   0.30387   0.31547   0.32087   0.32895

 Mulliken charges:
               1
     1  C   -0.297215
     2  C   -0.299105
     3  C   -0.475308
     4  H    0.146577
     5  H    0.145579
     6  H    0.152060
     7  H    0.152602
     8  H    0.153477
     9  H    0.153726
    10  H    0.159791
    11  C   -0.297669
    12  C   -0.303634
    13  C   -0.471628
    14  H    0.148140
    15  H    0.150951
    16  H    0.143397
    17  H    0.157077
    18  H    0.158286
    19  H    0.144931
    20  H    0.174730
    21  C   -0.170385
    22  C   -0.218786
    23  C   -0.170421
    24  C    0.156647
    25  C   -0.172515
    26  C   -0.219790
    27  H    0.225933
    28  H    0.223702
    29  H    0.275724
    30  H    0.280135
    31  H    0.224297
    32  N    0.493472
    33  O   -0.465676
    34  O   -0.459102
 Sum of Mulliken charges =  -0.00000

 Dipole moment (field-independent basis, Debye):
    X=              2.1868    Y=              4.6325    Z=              0.9360  Tot=              5.2075
 Quadrupole moment (field-independent basis, Debye-Ang):
   XX=            -79.8341   YY=            -96.4161   ZZ=            -94.9237
   XY=             13.0995   XZ=              1.3481   YZ=             -0.0721

 Normal termination of Gaussian 16 at Thu May  6 15:18:31 2021.
