 Gaussian 16, Revision A.03,
 Gaussian 16:  EM64L-G16RevA.03 25-Dec-2016

 -------------
 #p 6-31g* mp2
 -------------

 ------------------------------------------------------
 Input file generated by CHIRIPA (05-May-2021 14:53:14)
 ------------------------------------------------------
 Symbolic Z-matrix:
 Charge =  0 Multiplicity = 1

                         Standard orientation:
 ---------------------------------------------------------------------
 Center     Atomic      Atomic             Coordinates (Angstroms)
 Number     Number       Type             X           Y           Z
 ---------------------------------------------------------------------
      1          6           0       -5.748307   -0.129366   -0.423306
      2          6           0       -7.174658   -0.283367    0.105645
      3          6           0       -8.213840   -0.368961   -1.012643
      4          1           0       -5.691253    0.772134   -1.048597
      5          1           0       -5.513904   -0.979655   -1.078636
      6          1           0       -7.405816    0.566248    0.760883
      7          1           0       -7.228277   -1.184501    0.729905
      8          1           0       -8.010985   -1.226573   -1.662222
      9          1           0       -8.189533    0.534123   -1.631068
     10          1           0       -9.226468   -0.478735   -0.612151
     11          6           0       -4.698107   -0.042437    0.682701
     12          6           0       -3.271756    0.111565    0.153749
     13          6           0       -2.232574    0.197158    1.272038
     14          1           0       -4.932511    0.807853    1.338031
     15          1           0       -4.755161   -0.943937    1.307991
     16          1           0       -3.218138    1.012698   -0.470510
     17          1           0       -3.040599   -0.738051   -0.501488
     18          1           0       -2.256881   -0.705926    1.890463
     19          1           0       -2.435429    1.054770    1.921617
     20          1           0       -1.219947    0.306933    0.871545
     21          6           0        1.947598    1.414004   -0.056884
     22          6           0        3.179173    2.058306   -0.213793
     23          6           0        4.367394    1.322100   -0.239849
     24          6           0        4.286845   -0.063102   -0.105622
     25          6           0        3.075138   -0.734040    0.052172
     26          6           0        1.899596    0.022340    0.075364
     27          1           0        1.029485    1.993743   -0.037755
     28          1           0        3.219479    3.138965   -0.316726
     29          1           0        5.334375    1.795304   -0.360032
     30          1           0        3.066850   -1.812608    0.152380
     31          1           0        0.944558   -0.480715    0.197357
     32          7           0        5.538049   -0.853170   -0.131691
     33          8           0        5.440159   -2.072427   -0.011409
     34          8           0        6.592941   -0.238209   -0.271913
 ---------------------------------------------------------------------

 SCF Done:  E(RHF) =  -669.535386381     A.U. after   15 cycles
 E2 =    -0.2090896930D+01 EUMP2 =    -0.67162628331180D+03

 The electronic state is 1-A.
 Alpha  occ. eigenvalues --  -20.60731 -20.60726 -15.85785 -11.31145 -11.27716
 Alpha  occ. eigenvalues --  -11.27709 -11.27452 -11.26732 -11.26702 -11.22546
 Alpha  occ. eigenvalues --  -11.22279 -11.22111 -11.22076 -11.21950 -11.21467
 Alpha  occ. eigenvalues --   -1.59807  -1.39361  -1.19318  -1.09127  -1.08715
 Alpha  occ. eigenvalues --   -1.04722  -1.04266  -0.96729  -0.95550  -0.87750
 Alpha  occ. eigenvalues --   -0.86122  -0.82382  -0.80334  -0.78895  -0.77432
 Alpha  occ. eigenvalues --   -0.72004  -0.71130  -0.70431  -0.65750  -0.64974
 Alpha  occ. eigenvalues --   -0.64772  -0.62115  -0.61651  -0.60117  -0.58317
 Alpha  occ. eigenvalues --   -0.55996  -0.55220  -0.53521  -0.53178  -0.53047
 Alpha  occ. eigenvalues --   -0.52713  -0.50647  -0.48770  -0.48758  -0.48636
 Alpha  occ. eigenvalues --   -0.47350  -0.46446  -0.46343  -0.44767  -0.44512
 Alpha  occ. eigenvalues --   -0.37298  -0.36323
 Alpha virt. eigenvalues --    0.05106   0.11314   0.16601   0.19488   0.22461
 Alpha virt. eigenvalues --    0.23847   0.25904   0.25997   0.26859   0.27683
 Alpha virt. eigenvalues --    0.28520   0.30306   0.30725   0.31419   0.31452

 Mulliken charges:
               1
     1  C   -0.298803
     2  C   -0.300197
     3  C   -0.476075
     4  H    0.149989
     5  H    0.150561
     6  H    0.152476
     7  H    0.152914
     8  H    0.155912
     9  H    0.155499
    10  H    0.161732
    11  C   -0.299093
    12  C   -0.299775
    13  C   -0.480638
    14  H    0.150800
    15  H    0.151570
    16  H    0.151591
    17  H    0.153009
    18  H    0.160228
    19  H    0.159484
    20  H    0.149677
    21  C   -0.172354
    22  C   -0.218597
    23  C   -0.171180
    24  C    0.158727
    25  C   -0.171099
    26  C   -0.222826
    27  H    0.226103
    28  H    0.223266
    29  H    0.275472
    30  H    0.275720
    31  H    0.228956
    32  N    0.487951
    33  O   -0.460484
    34  O   -0.460516
 Sum of Mulliken charges =  -0.00000

 Dipole moment (field-independent basis, Debye):
    X=             -4.6522    Y=              2.7728    Z=              0.1167  Tot=              5.4171
 Quadrupole moment (field-independent basis, Debye-Ang):
   XX=           -131.4211   YY=            -90.6668   ZZ=            -96.0222
   XY=             14.7525   XZ=             -0.1976   YZ=             -0.9366

 Normal termination of Gaussian 16 at Thu May  6 05:49:06 2021.
