 Gaussian 16, Revision A.03,
 Gaussian 16:  EM64L-G16RevA.03 25-Dec-2016

 -------------
 #p 6-31g* mp2
 -------------

 ------------------------------------------------------
 Input file generated by CHIRIPA (05-May-2021 14:51:13)
 ------------------------------------------------------
 Symbolic Z-matrix:
 Charge =  0 Multiplicity = 1

                         Standard orientation:
 ---------------------------------------------------------------------
 Center     Atomic      Atomic             Coordinates (Angstroms)
 Number     Number       Type             X           Y           Z
 ---------------------------------------------------------------------
      1          6           0       -3.647359    0.543354    0.284496
      2          6           0       -4.383456    1.789659   -0.208321
      3          6           0       -4.684011    2.781812    0.915553
      4          1           0       -4.251376    0.050662    1.058682
      5          1           0       -2.708278    0.847535    0.767194
      6          1           0       -5.320207    1.483121   -0.691173
      7          1           0       -3.777703    2.279335   -0.981559
      8          1           0       -3.756970    3.116059    1.392496
      9          1           0       -5.308239    2.315321    1.684532
     10          1           0       -5.210512    3.665220    0.541059
     11          6           0       -3.339832   -0.457968   -0.827489
     12          6           0       -2.603735   -1.704273   -0.334672
     13          6           0       -2.303179   -2.696426   -1.458546
     14          1           0       -4.278912   -0.762149   -1.310187
     15          1           0       -2.735814    0.034724   -1.601674
     16          1           0       -3.209488   -2.193949    0.438567
     17          1           0       -1.666983   -1.397735    0.148181
     18          1           0       -1.678952   -2.229935   -2.227524
     19          1           0       -3.230221   -3.030673   -1.935489
     20          1           0       -1.776678   -3.579834   -1.084051
     21          6           0        4.218097    0.138145    0.110789
     22          6           0        4.359695    1.458689   -0.646901
     23          6           0        5.814975    1.806817   -0.961167
     24          1           0        4.792916    0.195461    1.045264
     25          1           0        4.668666   -0.668179   -0.484379
     26          1           0        3.907763    2.262056   -0.051104
     27          1           0        3.784317    1.398290   -1.579590
     28          1           0        6.273855    1.025651   -1.575830
     29          1           0        6.398003    1.894324   -0.038659
     30          1           0        5.893050    2.754523   -1.503032
     31          6           0        2.769093   -0.223530    0.432203
     32          6           0        2.627496   -1.544075    1.189894
     33          6           0        1.172216   -1.892203    1.504161
     34          1           0        2.318525    0.582793    1.027372
     35          1           0        2.194274   -0.280848   -0.502271
     36          1           0        3.202875   -1.483677    2.122583
     37          1           0        3.079428   -2.347442    0.594097
     38          1           0        0.589188   -1.979709    0.581652
     39          1           0        0.713336   -1.111036    2.118823
     40          1           0        1.094140   -2.839908    2.046025
 ---------------------------------------------------------------------

 SCF Done:  E(RHF) =  -470.733189346     A.U. after   11 cycles
 E2 =    -0.1582609385D+01 EUMP2 =    -0.47231579873059D+03

 The electronic state is 1-A.
 Alpha  occ. eigenvalues --  -11.21631 -11.21630 -11.21573 -11.21496 -11.21442
 Alpha  occ. eigenvalues --  -11.21381 -11.21359 -11.21299 -11.21093 -11.21090
 Alpha  occ. eigenvalues --  -11.21052 -11.21051  -1.08464  -1.08384  -1.03569
 Alpha  occ. eigenvalues --   -1.03484  -0.96020  -0.95940  -0.87035  -0.86959
 Alpha  occ. eigenvalues --   -0.79676  -0.79507  -0.78292  -0.78179  -0.65113
 Alpha  occ. eigenvalues --   -0.65007  -0.61047  -0.60826  -0.59380  -0.59317
 Alpha  occ. eigenvalues --   -0.57671  -0.57513  -0.55355  -0.55179  -0.52705
 Alpha  occ. eigenvalues --   -0.52644  -0.52453  -0.52364  -0.49991  -0.49861
 Alpha  occ. eigenvalues --   -0.48085  -0.47771  -0.46740  -0.46481  -0.45896
 Alpha  occ. eigenvalues --   -0.45747  -0.45718  -0.45502  -0.43816  -0.43743
 Alpha virt. eigenvalues --    0.21741   0.23071   0.23618   0.24803   0.26168
 Alpha virt. eigenvalues --    0.26609   0.27117   0.27609   0.27762   0.29015
 Alpha virt. eigenvalues --    0.30987   0.31551   0.31668   0.31904   0.31975

 Mulliken charges:
               1
     1  C   -0.298300
     2  C   -0.299611
     3  C   -0.475665
     4  H    0.149609
     5  H    0.149686
     6  H    0.151853
     7  H    0.151873
     8  H    0.155059
     9  H    0.155137
    10  H    0.160142
    11  C   -0.297609
    12  C   -0.307032
    13  C   -0.476199
    14  H    0.149156
    15  H    0.149125
    16  H    0.151817
    17  H    0.159994
    18  H    0.154146
    19  H    0.155314
    20  H    0.160496
    21  C   -0.298281
    22  C   -0.299672
    23  C   -0.475730
    24  H    0.149807
    25  H    0.149693
    26  H    0.151872
    27  H    0.151858
    28  H    0.155267
    29  H    0.155252
    30  H    0.160314
    31  C   -0.298308
    32  C   -0.299610
    33  C   -0.480734
    34  H    0.149265
    35  H    0.149195
    36  H    0.152048
    37  H    0.152097
    38  H    0.160902
    39  H    0.155045
    40  H    0.160730
 Sum of Mulliken charges =  -0.00000

 Dipole moment (field-independent basis, Debye):
    X=              0.0276    Y=             -0.0119    Z=              0.0186  Tot=              0.0353
 Quadrupole moment (field-independent basis, Debye-Ang):
   XX=            -85.1148   YY=            -85.1422   ZZ=            -84.5713
   XY=              0.3031   XZ=              0.3770   YZ=             -0.1176

 Normal termination of Gaussian 16 at Thu May  6 05:34:45 2021.
