 Gaussian 16, Revision A.03,
 Gaussian 16:  EM64L-G16RevA.03 25-Dec-2016

 -------------
 #p 6-31g* mp2
 -------------

 ------------------------------------------------------
 Input file generated by CHIRIPA (05-May-2021 14:57:23)
 ------------------------------------------------------
 Symbolic Z-matrix:
 Charge =  0 Multiplicity = 1

                         Standard orientation:
 ---------------------------------------------------------------------
 Center     Atomic      Atomic             Coordinates (Angstroms)
 Number     Number       Type             X           Y           Z
 ---------------------------------------------------------------------
      1          6           0       -5.193773    1.964183    0.133003
      2          6           0       -4.024788    1.917192    0.899675
      3          6           0       -3.210162    0.781118    0.883320
      4          6           0       -3.596421   -0.294685    0.085358
      5          6           0       -4.755089   -0.278198   -0.689565
      6          6           0       -5.554557    0.868271   -0.657776
      7          1           0       -5.820706    2.850750    0.151702
      8          1           0       -3.742120    2.766805    1.514737
      9          1           0       -2.299861    0.717975    1.467086
     10          1           0       -5.010747   -1.140807   -1.292857
     11          1           0       -6.461849    0.901959   -1.254208
     12          7           0       -2.742037   -1.502897    0.059874
     13          8           0       -3.104383   -2.437448   -0.651432
     14          8           0       -1.726202   -1.492466    0.751689
     15          6           0        3.160481   -2.350360    0.135771
     16          6           0        4.457096   -1.908023    0.417988
     17          6           0        4.787930   -0.555117    0.296552
     18          6           0        3.792992    0.332018   -0.111342
     19          6           0        2.492200   -0.077926   -0.399743
     20          6           0        2.183893   -1.435512   -0.271476
     21          1           0        2.912231   -3.403147    0.232759
     22          1           0        5.217558   -2.616253    0.734460
     23          1           0        5.783836   -0.185527    0.508663
     24          1           0        1.755516    0.651803   -0.713129
     25          1           0        1.176097   -1.776191   -0.491317
     26          7           0        4.131306    1.766757   -0.243516
     27          8           0        3.236715    2.528291   -0.604637
     28          8           0        5.284663    2.102603    0.016507
 ---------------------------------------------------------------------

 SCF Done:  E(RHF) =  -868.340374215     A.U. after   16 cycles
 E2 =    -0.2598141161D+01 EUMP2 =    -0.87093851537659D+03

 The electronic state is 1-A.
 Alpha  occ. eigenvalues --  -20.61589 -20.61555 -20.60309 -20.60300 -15.86591
 Alpha  occ. eigenvalues --  -15.85349 -11.31655 -11.30495 -11.28187 -11.28176
 Alpha  occ. eigenvalues --  -11.27861 -11.27132 -11.27106 -11.27042 -11.26958
 Alpha  occ. eigenvalues --  -11.26634 -11.26033 -11.25770  -1.60642  -1.59386
 Alpha  occ. eigenvalues --   -1.40201  -1.38946  -1.19797  -1.18613  -1.09248
 Alpha  occ. eigenvalues --   -1.08039  -1.05149  -1.03962  -0.96132  -0.94924
 Alpha  occ. eigenvalues --   -0.86562  -0.85363  -0.82972  -0.81752  -0.78056
 Alpha  occ. eigenvalues --   -0.76839  -0.72820  -0.71946  -0.71574  -0.70896
 Alpha  occ. eigenvalues --   -0.70705  -0.69712  -0.65450  -0.65144  -0.64250
 Alpha  occ. eigenvalues --   -0.63915  -0.62498  -0.61301  -0.55658  -0.54450
 Alpha  occ. eigenvalues --   -0.53499  -0.53233  -0.52327  -0.52019  -0.49591
 Alpha  occ. eigenvalues --   -0.49553  -0.48343  -0.48304  -0.45665  -0.44402
 Alpha  occ. eigenvalues --   -0.37758  -0.36738  -0.36574  -0.35560
 Alpha virt. eigenvalues --    0.04424   0.05653   0.10919   0.12094   0.15974
 Alpha virt. eigenvalues --    0.17230   0.21094   0.22364   0.27033   0.27810
 Alpha virt. eigenvalues --    0.28449   0.29098   0.30728   0.31944   0.32249

 Mulliken charges:
               1
     1  C   -0.169604
     2  C   -0.218047
     3  C   -0.171279
     4  C    0.157001
     5  C   -0.170644
     6  C   -0.218479
     7  H    0.228148
     8  H    0.227021
     9  H    0.276049
    10  H    0.275689
    11  H    0.225084
    12  N    0.488272
    13  O   -0.458565
    14  O   -0.467860
    15  C   -0.172211
    16  C   -0.218601
    17  C   -0.173300
    18  C    0.158051
    19  C   -0.174013
    20  C   -0.220452
    21  H    0.227752
    22  H    0.220868
    23  H    0.272506
    24  H    0.271576
    25  H    0.243293
    26  N    0.488228
    27  O   -0.464047
    28  O   -0.462437
 Sum of Mulliken charges =  -0.00000

 Dipole moment (field-independent basis, Debye):
    X=             -4.6551    Y=             -0.8570    Z=              0.5570  Tot=              4.7660
 Quadrupole moment (field-independent basis, Debye-Ang):
   XX=            -86.4524   YY=           -110.4446   ZZ=           -103.7452
   XY=            -34.5850   XZ=              5.2915   YZ=              2.5317

 Normal termination of Gaussian 16 at Thu May  6 04:58:49 2021.
