 Gaussian 16, Revision A.03,
 Gaussian 16:  EM64L-G16RevA.03 25-Dec-2016

 -------------
 #p 6-31g* mp2
 -------------

 ------------------------------------------------------
 Input file generated by CHIRIPA (05-May-2021 14:53:12)
 ------------------------------------------------------
 Symbolic Z-matrix:
 Charge =  0 Multiplicity = 1

                         Standard orientation:
 ---------------------------------------------------------------------
 Center     Atomic      Atomic             Coordinates (Angstroms)
 Number     Number       Type             X           Y           Z
 ---------------------------------------------------------------------
      1          6           0       -3.790139   -0.335181    0.224263
      2          6           0       -4.518217   -1.122737   -0.865527
      3          6           0       -5.193757   -2.385872   -0.330804
      4          1           0       -3.038599   -0.983016    0.695901
      5          1           0       -4.506934   -0.063511    1.011534
      6          1           0       -3.800545   -1.391648   -1.651180
      7          1           0       -5.267980   -0.472893   -1.334755
      8          1           0       -5.930779   -2.132520    0.438099
      9          1           0       -4.455006   -3.056494    0.119877
     10          1           0       -5.708241   -2.933546   -1.126555
     11          6           0       -3.109766    0.930281   -0.294800
     12          6           0       -2.381688    1.717837    0.794990
     13          6           0       -1.706148    2.980972    0.260267
     14          1           0       -2.392970    0.658611   -1.082071
     15          1           0       -3.861306    1.578116   -0.766438
     16          1           0       -1.631925    1.067993    1.264218
     17          1           0       -3.099360    1.986748    1.580643
     18          1           0       -2.444899    3.651594   -0.190414
     19          1           0       -0.969126    2.727620   -0.508636
     20          1           0       -1.191664    3.528646    1.056018
     21          6           0        2.957357   -2.714174    0.399489
     22          6           0        3.783328   -2.052332   -0.514982
     23          6           0        3.647018   -0.677516   -0.729106
     24          6           0        2.669938    0.007462   -0.008404
     25          6           0        1.831842   -0.623624    0.909537
     26          6           0        1.985963   -1.998969    1.107582
     27          1           0        3.070164   -3.782370    0.559580
     28          1           0        4.538582   -2.605217   -1.066303
     29          1           0        4.273080   -0.140148   -1.431032
     30          1           0        1.087988   -0.045583    1.444296
     31          1           0        1.343100   -2.510344    1.818404
     32          7           0        2.516205    1.463197   -0.226575
     33          8           0        1.647781    2.043956    0.420879
     34          8           0        3.267043    1.995881   -1.040902
 ---------------------------------------------------------------------

 SCF Done:  E(RHF) =  -669.535651039     A.U. after   15 cycles
 E2 =    -0.2091734987D+01 EUMP2 =    -0.67162738602636D+03

 The electronic state is 1-A.
 Alpha  occ. eigenvalues --  -20.60912 -20.60902 -15.85939 -11.31284 -11.27850
 Alpha  occ. eigenvalues --  -11.27846 -11.27588 -11.26861 -11.26851 -11.21542
 Alpha  occ. eigenvalues --  -11.21264 -11.21107 -11.21051 -11.20989 -11.19850
 Alpha  occ. eigenvalues --   -1.59975  -1.39530  -1.19455  -1.08855  -1.08142
 Alpha  occ. eigenvalues --   -1.04854  -1.03119  -0.95710  -0.95514  -0.86542
 Alpha  occ. eigenvalues --   -0.86252  -0.82525  -0.79223  -0.77933  -0.77578
 Alpha  occ. eigenvalues --   -0.72168  -0.71296  -0.70562  -0.65114  -0.64870
 Alpha  occ. eigenvalues --   -0.64766  -0.62204  -0.60506  -0.58968  -0.57140
 Alpha  occ. eigenvalues --   -0.55356  -0.54812  -0.53185  -0.52947  -0.52181
 Alpha  occ. eigenvalues --   -0.51960  -0.49504  -0.48927  -0.48892  -0.47520
 Alpha  occ. eigenvalues --   -0.46297  -0.45482  -0.45411  -0.44828  -0.43379
 Alpha  occ. eigenvalues --   -0.37433  -0.36455
 Alpha virt. eigenvalues --    0.04919   0.11181   0.16404   0.20517   0.22959
 Alpha virt. eigenvalues --    0.24133   0.25995   0.27338   0.27650   0.28533
 Alpha virt. eigenvalues --    0.28912   0.30284   0.31494   0.32021   0.32861

 Mulliken charges:
               1
     1  C   -0.296308
     2  C   -0.299327
     3  C   -0.475088
     4  H    0.142829
     5  H    0.149374
     6  H    0.151278
     7  H    0.153108
     8  H    0.155392
     9  H    0.152030
    10  H    0.159965
    11  C   -0.298223
    12  C   -0.299776
    13  C   -0.471157
    14  H    0.149153
    15  H    0.150239
    16  H    0.144216
    17  H    0.148420
    18  H    0.146785
    19  H    0.168005
    20  H    0.165729
    21  C   -0.170524
    22  C   -0.218629
    23  C   -0.170581
    24  C    0.157401
    25  C   -0.173659
    26  C   -0.219349
    27  H    0.226018
    28  H    0.223814
    29  H    0.275833
    30  H    0.279635
    31  H    0.224021
    32  N    0.489018
    33  O   -0.460313
    34  O   -0.459327
 Sum of Mulliken charges =  -0.00000

 Dipole moment (field-independent basis, Debye):
    X=              0.7395    Y=             -5.0202    Z=              0.7189  Tot=              5.1250
 Quadrupole moment (field-independent basis, Debye-Ang):
   XX=            -89.4589   YY=            -95.8519   ZZ=            -93.1133
   XY=            -14.9934   XZ=             -0.7753   YZ=              0.4068

 Normal termination of Gaussian 16 at Thu May  6 15:21:13 2021.
