 Gaussian 16, Revision A.03,
 Gaussian 16:  EM64L-G16RevA.03 25-Dec-2016

 -------------
 #p 6-31g* mp2
 -------------

 ------------------------------------------------------
 Input file generated by CHIRIPA (05-May-2021 14:57:21)
 ------------------------------------------------------
 Symbolic Z-matrix:
 Charge =  0 Multiplicity = 1

                         Standard orientation:
 ---------------------------------------------------------------------
 Center     Atomic      Atomic             Coordinates (Angstroms)
 Number     Number       Type             X           Y           Z
 ---------------------------------------------------------------------
      1          6           0        3.940686    2.585913    0.485695
      2          6           0        2.723550    1.992257    0.135448
      3          6           0        2.657882    0.626822   -0.157508
      4          6           0        3.834056   -0.118407   -0.090129
      5          6           0        5.061791    0.444055    0.255694
      6          6           0        5.103871    1.811283    0.544596
      7          1           0        3.982537    3.647312    0.711696
      8          1           0        1.818608    2.591389    0.088900
      9          1           0        1.728915    0.141634   -0.431425
     10          1           0        5.947057   -0.179069    0.293622
     11          1           0        6.050509    2.269641    0.816312
     12          7           0        3.777021   -1.564881   -0.398122
     13          8           0        4.827436   -2.199580   -0.331607
     14          8           0        2.682984   -2.036539   -0.700212
     15          6           0       -1.620988   -1.269002    0.365450
     16          6           0       -1.701512   -0.107760   -0.410148
     17          6           0       -2.927636    0.537239   -0.597614
     18          6           0       -4.058315   -0.008907    0.007843
     19          6           0       -4.010410   -1.164381    0.786223
     20          6           0       -2.773662   -1.792683    0.960111
     21          1           0       -0.664379   -1.763568    0.505805
     22          1           0       -0.807973    0.301194   -0.873170
     23          1           0       -3.018496    1.437560   -1.193085
     24          1           0       -4.918440   -1.548276    1.235136
     25          1           0       -2.714115   -2.694381    1.562972
     26          7           0       -5.361982    0.665087   -0.183432
     27          8           0       -6.343500    0.163863    0.360657
     28          8           0       -5.377592    1.681825   -0.873821
 ---------------------------------------------------------------------

 SCF Done:  E(RHF) =  -868.338070169     A.U. after   16 cycles
 E2 =    -0.2599503058D+01 EUMP2 =    -0.87093757322667D+03

 The electronic state is 1-A.
 Alpha  occ. eigenvalues --  -20.61731 -20.61681 -20.60815 -20.60805 -15.86752
 Alpha  occ. eigenvalues --  -15.85869 -11.32046 -11.31213 -11.28707 -11.28530
 Alpha  occ. eigenvalues --  -11.28252 -11.27865 -11.27776 -11.27606 -11.27518
 Alpha  occ. eigenvalues --  -11.27443 -11.26901 -11.26712  -1.60771  -1.59889
 Alpha  occ. eigenvalues --   -1.40333  -1.39444  -1.20191  -1.19395  -1.09583
 Alpha  occ. eigenvalues --   -1.08771  -1.05594  -1.04817  -0.96443  -0.95604
 Alpha  occ. eigenvalues --   -0.86990  -0.86210  -0.83287  -0.82454  -0.78367
 Alpha  occ. eigenvalues --   -0.77526  -0.72974  -0.72087  -0.72085  -0.71302
 Alpha  occ. eigenvalues --   -0.71214  -0.70424  -0.65846  -0.65611  -0.65044
 Alpha  occ. eigenvalues --   -0.64850  -0.62972  -0.62152  -0.56053  -0.55211
 Alpha  occ. eigenvalues --   -0.53903  -0.53698  -0.53121  -0.52903  -0.49742
 Alpha  occ. eigenvalues --   -0.49705  -0.48844  -0.48841  -0.45753  -0.44855
 Alpha  occ. eigenvalues --   -0.38130  -0.37335  -0.37182  -0.36432
 Alpha virt. eigenvalues --    0.04176   0.05045   0.10466   0.11210   0.15709
 Alpha virt. eigenvalues --    0.16541   0.18085   0.22041   0.24793   0.26906
 Alpha virt. eigenvalues --    0.27872   0.28993   0.30671   0.31405   0.31609

 Mulliken charges:
               1
     1  C   -0.169973
     2  C   -0.218807
     3  C   -0.176895
     4  C    0.160202
     5  C   -0.169489
     6  C   -0.218105
     7  H    0.229259
     8  H    0.223772
     9  H    0.270685
    10  H    0.277796
    11  H    0.226795
    12  N    0.488649
    13  O   -0.454960
    14  O   -0.468226
    15  C   -0.173655
    16  C   -0.222423
    17  C   -0.170965
    18  C    0.158114
    19  C   -0.170195
    20  C   -0.219240
    21  H    0.239472
    22  H    0.215329
    23  H    0.273871
    24  H    0.276123
    25  H    0.226270
    26  N    0.488104
    27  O   -0.459824
    28  O   -0.461685
 Sum of Mulliken charges =  -0.00000

 Dipole moment (field-independent basis, Debye):
    X=              5.0717    Y=              2.6856    Z=              1.8809  Tot=              6.0392
 Quadrupole moment (field-independent basis, Debye-Ang):
   XX=           -133.7539   YY=           -103.9640   ZZ=           -104.7156
   XY=             31.3274   XZ=              1.0457   YZ=             -2.9661

 Normal termination of Gaussian 16 at Thu May  6 00:09:04 2021.
