 Gaussian 16, Revision A.03,
 Gaussian 16:  EM64L-G16RevA.03 25-Dec-2016

 -------------
 #p 6-31g* mp2
 -------------

 ------------------------------------------------------
 Input file generated by CHIRIPA (05-May-2021 14:53:15)
 ------------------------------------------------------
 Symbolic Z-matrix:
 Charge =  0 Multiplicity = 1

                         Standard orientation:
 ---------------------------------------------------------------------
 Center     Atomic      Atomic             Coordinates (Angstroms)
 Number     Number       Type             X           Y           Z
 ---------------------------------------------------------------------
      1          6           0        2.890690    1.089115   -0.196569
      2          6           0        3.390125    2.300291    0.591847
      3          6           0        2.519283    3.539993    0.385524
      4          1           0        2.858786    1.342868   -1.264997
      5          1           0        1.857179    0.866301    0.102772
      6          1           0        4.422861    2.519905    0.292111
      7          1           0        3.421025    2.043563    1.658502
      8          1           0        1.489734    3.344660    0.702502
      9          1           0        2.497262    3.823708   -0.671653
     10          1           0        2.894355    4.393926    0.958218
     11          6           0        3.750944   -0.157995   -0.000591
     12          6           0        3.251509   -1.369171   -0.789008
     13          6           0        4.122350   -2.608873   -0.582684
     14          1           0        4.784455    0.064819   -0.299932
     15          1           0        3.782848   -0.411748    1.067836
     16          1           0        3.220608   -1.112443   -1.855662
     17          1           0        2.218773   -1.588785   -0.489271
     18          1           0        4.144372   -2.892588    0.474492
     19          1           0        5.151899   -2.413540   -0.899662
     20          1           0        3.747279   -3.462806   -1.155378
     21          6           0       -0.882152   -1.866500    1.161369
     22          6           0       -0.852541   -1.654958   -0.220982
     23          6           0       -1.796264   -0.824324   -0.832523
     24          6           0       -2.759921   -0.218435   -0.027815
     25          6           0       -2.815571   -0.409478    1.351929
     26          6           0       -1.861846   -1.244183    1.942036
     27          1           0       -0.145161   -2.513337    1.628102
     28          1           0       -0.092848   -2.136950   -0.829748
     29          1           0       -1.796412   -0.643153   -1.900509
     30          1           0       -3.584990    0.084777    1.932553
     31          1           0       -1.887261   -1.406645    3.015816
     32          7           0       -3.764293    0.663073   -0.663880
     33          8           0       -4.603043    1.185227    0.067208
     34          8           0       -3.693751    0.815156   -1.881473
 ---------------------------------------------------------------------

 SCF Done:  E(RHF) =  -669.535519877     A.U. after   15 cycles
 E2 =    -0.2091895856D+01 EUMP2 =    -0.67162741573293D+03

 The electronic state is 1-A.
 Alpha  occ. eigenvalues --  -20.60792 -20.60786 -15.85846 -11.31233 -11.27806
 Alpha  occ. eigenvalues --  -11.27799 -11.27562 -11.26823 -11.26803 -11.22439
 Alpha  occ. eigenvalues --  -11.21984 -11.21905 -11.21864 -11.21763 -11.21235
 Alpha  occ. eigenvalues --   -1.59866  -1.39419  -1.19412  -1.08969  -1.08800
 Alpha  occ. eigenvalues --   -1.04815  -1.04059  -0.96479  -0.95632  -0.87496
 Alpha  occ. eigenvalues --   -0.86216  -0.82461  -0.80161  -0.78751  -0.77500
 Alpha  occ. eigenvalues --   -0.72064  -0.71190  -0.70516  -0.65648  -0.65060
 Alpha  occ. eigenvalues --   -0.64802  -0.62192  -0.61430  -0.59876  -0.58090
 Alpha  occ. eigenvalues --   -0.55758  -0.55316  -0.53221  -0.53123  -0.52960
 Alpha  occ. eigenvalues --   -0.52847  -0.50419  -0.48836  -0.48817  -0.48436
 Alpha  occ. eigenvalues --   -0.47193  -0.46284  -0.46188  -0.44820  -0.44296
 Alpha  occ. eigenvalues --   -0.37382  -0.36397
 Alpha virt. eigenvalues --    0.05030   0.11088   0.16509   0.20272   0.22665
 Alpha virt. eigenvalues --    0.23876   0.25654   0.26380   0.27444   0.28040
 Alpha virt. eigenvalues --    0.28557   0.30248   0.31060   0.31556   0.31828

 Mulliken charges:
               1
     1  C   -0.301153
     2  C   -0.299869
     3  C   -0.476195
     4  H    0.150752
     5  H    0.151858
     6  H    0.152420
     7  H    0.150893
     8  H    0.156894
     9  H    0.156832
    10  H    0.161187
    11  C   -0.297335
    12  C   -0.304721
    13  C   -0.475884
    14  H    0.152183
    15  H    0.148250
    16  H    0.154385
    17  H    0.144215
    18  H    0.153895
    19  H    0.159739
    20  H    0.158806
    21  C   -0.172477
    22  C   -0.218840
    23  C   -0.171816
    24  C    0.158413
    25  C   -0.170923
    26  C   -0.218686
    27  H    0.226044
    28  H    0.227706
    29  H    0.276298
    30  H    0.275834
    31  H    0.223611
    32  N    0.488081
    33  O   -0.460326
    34  O   -0.460073
 Sum of Mulliken charges =  -0.00000

 Dipole moment (field-independent basis, Debye):
    X=              3.5788    Y=             -3.0252    Z=              2.2271  Tot=              5.1884
 Quadrupole moment (field-independent basis, Debye-Ang):
   XX=           -113.7202   YY=            -94.8122   ZZ=            -90.3364
   XY=              8.2310   XZ=             -9.0673   YZ=              0.2376

 Normal termination of Gaussian 16 at Thu May  6 18:48:45 2021.
