 Gaussian 16, Revision A.03,
 Gaussian 16:  EM64L-G16RevA.03 25-Dec-2016

 -------------
 #p 6-31g* mp2
 -------------

 ------------------------------------------------------
 Input file generated by CHIRIPA (05-May-2021 14:53:15)
 ------------------------------------------------------
 Symbolic Z-matrix:
 Charge =  0 Multiplicity = 1

                         Standard orientation:
 ---------------------------------------------------------------------
 Center     Atomic      Atomic             Coordinates (Angstroms)
 Number     Number       Type             X           Y           Z
 ---------------------------------------------------------------------
      1          6           0        3.393811   -0.637904   -0.240542
      2          6           0        4.320077   -1.375066    0.727244
      3          6           0        4.249782   -2.894442    0.571203
      4          1           0        2.361275   -0.977046   -0.079927
      5          1           0        3.656821   -0.914156   -1.271030
      6          1           0        4.056301   -1.096440    1.755546
      7          1           0        5.350503   -1.033990    0.564437
      8          1           0        4.533496   -3.191003   -0.443764
      9          1           0        3.231941   -3.253808    0.754113
     10          1           0        4.919750   -3.401473    1.272574
     11          6           0        3.452890    0.881812   -0.096671
     12          6           0        2.526625    1.618973   -1.064457
     13          6           0        2.596920    3.138349   -0.908416
     14          1           0        3.189880    1.158064    0.933817
     15          1           0        4.485427    1.220953   -0.257286
     16          1           0        1.496199    1.277897   -0.901650
     17          1           0        2.790401    1.340348   -2.092759
     18          1           0        3.614761    3.497715   -1.091326
     19          1           0        2.313206    3.434910    0.106551
     20          1           0        1.926952    3.645381   -1.609787
     21          6           0       -3.328296   -0.985449   -2.136768
     22          6           0       -2.017007   -0.557868   -1.903922
     23          6           0       -1.643548   -0.062847   -0.650914
     24          6           0       -2.611285   -0.009218    0.351034
     25          6           0       -3.925738   -0.427651    0.149988
     26          6           0       -4.276803   -0.919093   -1.110879
     27          1           0       -3.609710   -1.368603   -3.113188
     28          1           0       -1.278282   -0.608247   -2.698776
     29          1           0       -0.635436    0.274856   -0.443347
     30          1           0       -4.639998   -0.365266    0.961998
     31          1           0       -5.295906   -1.250458   -1.288848
     32          7           0       -2.227775    0.512944    1.681697
     33          8           0       -3.099042    0.549921    2.547816
     34          8           0       -1.063173    0.875350    1.833356
 ---------------------------------------------------------------------

 SCF Done:  E(RHF) =  -669.535704610     A.U. after   15 cycles
 E2 =    -0.2091441586D+01 EUMP2 =    -0.67162714619559D+03

 The electronic state is 1-A.
 Alpha  occ. eigenvalues --  -20.60808 -20.60800 -15.85858 -11.31199 -11.27767
 Alpha  occ. eigenvalues --  -11.27754 -11.27507 -11.26783 -11.26765 -11.21801
 Alpha  occ. eigenvalues --  -11.21516 -11.21411 -11.21300 -11.21018 -11.21015
 Alpha  occ. eigenvalues --   -1.59881  -1.39436  -1.19372  -1.08771  -1.08426
 Alpha  occ. eigenvalues --   -1.04772  -1.03522  -0.95945  -0.95611  -0.86965
 Alpha  occ. eigenvalues --   -0.86173  -0.82442  -0.79612  -0.78266  -0.77488
 Alpha  occ. eigenvalues --   -0.72080  -0.71202  -0.70491  -0.65086  -0.65024
 Alpha  occ. eigenvalues --   -0.64742  -0.62143  -0.60890  -0.59327  -0.57575
 Alpha  occ. eigenvalues --   -0.55283  -0.55205  -0.53102  -0.52884  -0.52649
 Alpha  occ. eigenvalues --   -0.52374  -0.49872  -0.48837  -0.48833  -0.47919
 Alpha  occ. eigenvalues --   -0.46632  -0.45801  -0.45683  -0.44846  -0.43775
 Alpha  occ. eigenvalues --   -0.37353  -0.36372
 Alpha virt. eigenvalues --    0.05032   0.11266   0.16538   0.19715   0.22924
 Alpha virt. eigenvalues --    0.24124   0.25104   0.27104   0.27820   0.28029
 Alpha virt. eigenvalues --    0.29534   0.30877   0.31484   0.31824   0.32010

 Mulliken charges:
               1
     1  C   -0.298730
     2  C   -0.300227
     3  C   -0.475970
     4  H    0.147415
     5  H    0.146076
     6  H    0.157049
     7  H    0.151748
     8  H    0.153037
     9  H    0.155628
    10  H    0.161110
    11  C   -0.298763
    12  C   -0.304258
    13  C   -0.475891
    14  H    0.159483
    15  H    0.149790
    16  H    0.147236
    17  H    0.148502
    18  H    0.155292
    19  H    0.163827
    20  H    0.158085
    21  C   -0.170572
    22  C   -0.223070
    23  C   -0.183289
    24  C    0.158417
    25  C   -0.169775
    26  C   -0.219062
    27  H    0.225749
    28  H    0.224390
    29  H    0.292859
    30  H    0.275629
    31  H    0.223533
    32  N    0.486379
    33  O   -0.459985
    34  O   -0.461642
 Sum of Mulliken charges =  -0.00000

 Dipole moment (field-independent basis, Debye):
    X=             -1.2964    Y=             -1.7806    Z=             -4.5673  Tot=              5.0706
 Quadrupole moment (field-independent basis, Debye-Ang):
   XX=            -82.5173   YY=            -96.5478   ZZ=            -97.6788
   XY=              6.0792   XZ=             10.1028   YZ=             -0.7271

 Normal termination of Gaussian 16 at Thu May  6 01:07:11 2021.
