 Gaussian 16, Revision A.03,
 Gaussian 16:  EM64L-G16RevA.03 25-Dec-2016

 -------------
 #p 6-31g* mp2
 -------------

 ------------------------------------------------------
 Input file generated by CHIRIPA (05-May-2021 14:53:18)
 ------------------------------------------------------
 Symbolic Z-matrix:
 Charge =  0 Multiplicity = 1

                         Standard orientation:
 ---------------------------------------------------------------------
 Center     Atomic      Atomic             Coordinates (Angstroms)
 Number     Number       Type             X           Y           Z
 ---------------------------------------------------------------------
      1          6           0        4.616391   -0.288505    0.012774
      2          6           0        4.917506    0.996653   -0.759030
      3          6           0        6.405658    1.347592   -0.765226
      4          1           0        4.973359   -0.180275    1.046120
      5          1           0        5.187426   -1.116258   -0.430102
      6          1           0        4.345008    1.821466   -0.315694
      7          1           0        4.559607    0.885422   -1.790608
      8          1           0        6.989012    0.544155   -1.226514
      9          1           0        6.773194    1.485516    0.256780
     10          1           0        6.598366    2.269701   -1.322397
     11          6           0        3.132828   -0.652562    0.027962
     12          6           0        2.831713   -1.937721    0.799766
     13          6           0        1.343560   -2.288660    0.805962
     14          1           0        2.561793    0.175191    0.470838
     15          1           0        2.775859   -0.760792   -1.005384
     16          1           0        3.189611   -1.826490    1.831344
     17          1           0        3.404210   -2.762533    0.356430
     18          1           0        0.976025   -2.426583   -0.216044
     19          1           0        0.760206   -1.485222    1.267250
     20          1           0        1.150853   -3.210768    1.363133
     21          6           0       -1.755397    2.400921    0.767972
     22          6           0       -3.087912    2.522779    0.360450
     23          6           0       -3.802218    1.402947   -0.075772
     24          6           0       -3.149976    0.171031   -0.091696
     25          6           0       -1.823377    0.017392    0.308079
     26          6           0       -1.128487    1.150819    0.740534
     27          1           0       -1.208048    3.276114    1.105378
     28          1           0       -3.577335    3.492368    0.380703
     29          1           0       -4.834706    1.468849   -0.396777
     30          1           0       -1.362430   -0.962386    0.276766
     31          1           0       -0.093733    1.053201    1.056444
     32          7           0       -3.895902   -1.021682   -0.551511
     33          8           0       -3.298537   -2.095820   -0.556148
     34          8           0       -5.063799   -0.859809   -0.898570
 ---------------------------------------------------------------------

 SCF Done:  E(RHF) =  -669.535168404     A.U. after   15 cycles
 E2 =    -0.2092047973D+01 EUMP2 =    -0.67162721637660D+03

 The electronic state is 1-A.
 Alpha  occ. eigenvalues --  -20.60683 -20.60677 -15.85734 -11.31072 -11.27668
 Alpha  occ. eigenvalues --  -11.27582 -11.27419 -11.26683 -11.26655 -11.22251
 Alpha  occ. eigenvalues --  -11.22127 -11.22118 -11.21937 -11.21837 -11.21496
 Alpha  occ. eigenvalues --   -1.59758  -1.39312  -1.19258  -1.09059  -1.08662
 Alpha  occ. eigenvalues --   -1.04668  -1.04129  -0.96599  -0.95495  -0.87620
 Alpha  occ. eigenvalues --   -0.86059  -0.82338  -0.80211  -0.78882  -0.77367
 Alpha  occ. eigenvalues --   -0.71955  -0.71081  -0.70379  -0.65701  -0.64916
 Alpha  occ. eigenvalues --   -0.64672  -0.62116  -0.61467  -0.59935  -0.58188
 Alpha  occ. eigenvalues --   -0.55896  -0.55180  -0.53274  -0.53115  -0.52991
 Alpha  occ. eigenvalues --   -0.52623  -0.50543  -0.48724  -0.48709  -0.48489
 Alpha  occ. eigenvalues --   -0.47228  -0.46410  -0.46327  -0.44722  -0.44381
 Alpha  occ. eigenvalues --   -0.37250  -0.36261
 Alpha virt. eigenvalues --    0.05147   0.11380   0.16619   0.19351   0.22549
 Alpha virt. eigenvalues --    0.23682   0.24938   0.25853   0.26746   0.28479
 Alpha virt. eigenvalues --    0.29310   0.29733   0.31340   0.31522   0.31720

 Mulliken charges:
               1
     1  C   -0.298652
     2  C   -0.299638
     3  C   -0.476063
     4  H    0.150240
     5  H    0.152765
     6  H    0.148795
     7  H    0.153697
     8  H    0.156928
     9  H    0.155456
    10  H    0.161238
    11  C   -0.299875
    12  C   -0.300745
    13  C   -0.482922
    14  H    0.140671
    15  H    0.153396
    16  H    0.153221
    17  H    0.157084
    18  H    0.162332
    19  H    0.145027
    20  H    0.169590
    21  C   -0.171070
    22  C   -0.219054
    23  C   -0.170417
    24  C    0.158591
    25  C   -0.178313
    26  C   -0.225245
    27  H    0.225213
    28  H    0.222995
    29  H    0.275194
    30  H    0.285824
    31  H    0.227206
    32  N    0.487969
    33  O   -0.460496
    34  O   -0.460941
 Sum of Mulliken charges =  -0.00000

 Dipole moment (field-independent basis, Debye):
    X=              2.8396    Y=              4.0432    Z=              1.5661  Tot=              5.1830
 Quadrupole moment (field-independent basis, Debye-Ang):
   XX=           -108.7562   YY=            -91.5294   ZZ=            -95.0642
   XY=            -16.3010   XZ=             -4.7755   YZ=             -0.1380

 Normal termination of Gaussian 16 at Wed May  5 23:41:08 2021.
