 Gaussian 16, Revision A.03,
 Gaussian 16:  EM64L-G16RevA.03 25-Dec-2016

 -------------
 #p 6-31g* mp2
 -------------

 ------------------------------------------------------
 Input file generated by CHIRIPA (05-May-2021 14:51:10)
 ------------------------------------------------------
 Symbolic Z-matrix:
 Charge =  0 Multiplicity = 1

                         Standard orientation:
 ---------------------------------------------------------------------
 Center     Atomic      Atomic             Coordinates (Angstroms)
 Number     Number       Type             X           Y           Z
 ---------------------------------------------------------------------
      1          6           0        2.825207    1.306154   -0.351231
      2          6           0        2.160187    2.181486    0.711561
      3          6           0        2.090482    3.653966    0.305683
      4          1           0        3.838776    1.682771   -0.545607
      5          1           0        2.270050    1.401514   -1.294684
      6          1           0        2.715618    2.083431    1.653101
      7          1           0        1.148153    1.802626    0.903568
      8          1           0        1.518529    3.771643   -0.620396
      9          1           0        3.094900    4.054043    0.133395
     10          1           0        1.611469    4.261541    1.079801
     11          6           0        2.902310   -0.168538    0.040006
     12          6           0        3.567330   -1.043869   -1.022787
     13          6           0        3.637035   -2.516349   -0.616908
     14          1           0        3.457466   -0.263897    0.983458
     15          1           0        1.888741   -0.545155    0.234382
     16          1           0        4.579364   -0.665009   -1.214794
     17          1           0        3.011898   -0.945814   -1.964327
     18          1           0        2.632616   -2.916426   -0.444621
     19          1           0        4.208988   -2.634026    0.309171
     20          1           0        4.116048   -3.123925   -1.391026
     21          6           0       -3.299049   -0.286770   -0.405109
     22          6           0       -4.570078    0.397147    0.099596
     23          6           0       -5.430483    0.956271   -1.033928
     24          1           0       -2.711915    0.432325   -0.992578
     25          1           0       -3.575877   -1.098987   -1.091451
     26          1           0       -4.290985    1.206941    0.785859
     27          1           0       -5.154161   -0.323606    0.686094
     28          1           0       -5.737483    0.156141   -1.715209
     29          1           0       -4.869403    1.695385   -1.614876
     30          1           0       -6.333930    1.440803   -0.650689
     31          6           0       -2.428468   -0.850846    0.716334
     32          6           0       -1.157439   -1.534764    0.211630
     33          6           0       -0.297034   -2.093888    1.345153
     34          1           0       -2.151640   -0.038630    1.402677
     35          1           0       -3.015601   -1.569942    1.303804
     36          1           0       -0.573357   -0.814011   -0.374868
     37          1           0       -1.436532   -2.344558   -0.474633
     38          1           0       -0.858114   -2.833002    1.926103
     39          1           0        0.009965   -1.293758    2.026435
     40          1           0        0.606413   -2.578420    0.961914
 ---------------------------------------------------------------------

 SCF Done:  E(RHF) =  -470.732460315     A.U. after   11 cycles
 E2 =    -0.1584279439D+01 EUMP2 =    -0.47231673975360D+03

 The electronic state is 1-A.
 Alpha  occ. eigenvalues --  -11.21689 -11.21637 -11.21633 -11.21578 -11.21464
 Alpha  occ. eigenvalues --  -11.21402 -11.21375 -11.21257 -11.21099 -11.21099
 Alpha  occ. eigenvalues --  -11.21095 -11.21077  -1.08506  -1.08403  -1.03607
 Alpha  occ. eigenvalues --   -1.03520  -0.96045  -0.95973  -0.87054  -0.86996
 Alpha  occ. eigenvalues --   -0.79664  -0.79584  -0.78309  -0.78227  -0.65299
 Alpha  occ. eigenvalues --   -0.64921  -0.61051  -0.60923  -0.59515  -0.59229
 Alpha  occ. eigenvalues --   -0.57655  -0.57578  -0.55455  -0.55150  -0.52762
 Alpha  occ. eigenvalues --   -0.52666  -0.52477  -0.52384  -0.50013  -0.49893
 Alpha  occ. eigenvalues --   -0.48028  -0.47838  -0.46696  -0.46610  -0.45910
 Alpha  occ. eigenvalues --   -0.45785  -0.45730  -0.45543  -0.43815  -0.43770
 Alpha virt. eigenvalues --    0.19955   0.22812   0.23551   0.24356   0.26151
 Alpha virt. eigenvalues --    0.26654   0.26741   0.27555   0.27841   0.29872
 Alpha virt. eigenvalues --    0.30380   0.31264   0.31791   0.32048   0.32220

 Mulliken charges:
               1
     1  C   -0.297586
     2  C   -0.300267
     3  C   -0.475627
     4  H    0.149598
     5  H    0.148723
     6  H    0.152222
     7  H    0.150963
     8  H    0.154989
     9  H    0.155526
    10  H    0.160138
    11  C   -0.310729
    12  C   -0.299110
    13  C   -0.479940
    14  H    0.148878
    15  H    0.165933
    16  H    0.151788
    17  H    0.151500
    18  H    0.158287
    19  H    0.155485
    20  H    0.160467
    21  C   -0.298303
    22  C   -0.299733
    23  C   -0.475750
    24  H    0.149405
    25  H    0.149689
    26  H    0.152082
    27  H    0.152087
    28  H    0.155230
    29  H    0.155210
    30  H    0.160430
    31  C   -0.298109
    32  C   -0.303867
    33  C   -0.484998
    34  H    0.149671
    35  H    0.150215
    36  H    0.153348
    37  H    0.152453
    38  H    0.157176
    39  H    0.156816
    40  H    0.165708
 Sum of Mulliken charges =  -0.00000

 Dipole moment (field-independent basis, Debye):
    X=             -0.0237    Y=             -0.0226    Z=              0.0185  Tot=              0.0376
 Quadrupole moment (field-independent basis, Debye-Ang):
   XX=            -84.2574   YY=            -85.3736   ZZ=            -85.1252
   XY=              1.0697   XZ=             -0.0681   YZ=              0.5928

 Normal termination of Gaussian 16 at Wed May  5 19:47:41 2021.
