 Gaussian 16, Revision A.03,
 Gaussian 16:  EM64L-G16RevA.03 25-Dec-2016

 -------------
 #p 6-31g* mp2
 -------------

 ------------------------------------------------------
 Input file generated by CHIRIPA (05-May-2021 14:57:25)
 ------------------------------------------------------
 Symbolic Z-matrix:
 Charge =  0 Multiplicity = 1

                         Standard orientation:
 ---------------------------------------------------------------------
 Center     Atomic      Atomic             Coordinates (Angstroms)
 Number     Number       Type             X           Y           Z
 ---------------------------------------------------------------------
      1          6           0       -2.858405    2.105470    1.342565
      2          6           0       -2.279121    0.912873    1.788281
      3          6           0       -2.328386   -0.239221    0.997837
      4          6           0       -2.967817   -0.162682   -0.238512
      5          6           0       -3.554341    1.010636   -0.710322
      6          6           0       -3.493047    2.150466    0.096882
      7          1           0       -2.815462    2.995681    1.963111
      8          1           0       -1.785591    0.874996    2.755255
      9          1           0       -1.888191   -1.175634    1.318426
     10          1           0       -4.039376    1.017492   -1.678884
     11          1           0       -3.943793    3.075275   -0.251831
     12          7           0       -3.026339   -1.375860   -1.084191
     13          8           0       -3.595538   -1.282340   -2.169504
     14          8           0       -2.501901   -2.397298   -0.645709
     15          6           0        1.886736   -1.730955    1.631897
     16          6           0        3.004551   -2.085357    0.869395
     17          6           0        3.606349   -1.155077    0.016772
     18          6           0        3.061754    0.126475   -0.049048
     19          6           0        1.948972    0.509855    0.697964
     20          6           0        1.363437   -0.436762    1.543903
     21          1           0        1.425561   -2.459964    2.291639
     22          1           0        3.413100   -3.089715    0.935712
     23          1           0        4.472541   -1.402724   -0.584726
     24          1           0        1.564339    1.518733    0.610560
     25          1           0        0.495412   -0.158728    2.134897
     26          7           0        3.690243    1.119969   -0.948143
     27          8           0        3.191350    2.242529   -0.988153
     28          8           0        4.669845    0.757296   -1.595822
 ---------------------------------------------------------------------

 SCF Done:  E(RHF) =  -868.336405145     A.U. after   16 cycles
 E2 =    -0.2601335483D+01 EUMP2 =    -0.87093774062793D+03

 The electronic state is 1-A.
 Alpha  occ. eigenvalues --  -20.61241 -20.61222 -20.60848 -20.60834 -15.86297
 Alpha  occ. eigenvalues --  -15.85900 -11.31778 -11.31281 -11.28486 -11.28330
 Alpha  occ. eigenvalues --  -11.28146 -11.27909 -11.27831 -11.27635 -11.27528
 Alpha  occ. eigenvalues --  -11.27321 -11.26966 -11.26829  -1.60305  -1.59917
 Alpha  occ. eigenvalues --   -1.39857  -1.39471  -1.19988  -1.19466  -1.09344
 Alpha  occ. eigenvalues --   -1.08864  -1.05450  -1.04875  -0.96160  -0.95690
 Alpha  occ. eigenvalues --   -0.86809  -0.86304  -0.83030  -0.82521  -0.78071
 Alpha  occ. eigenvalues --   -0.77551  -0.72516  -0.72121  -0.71626  -0.71238
 Alpha  occ. eigenvalues --   -0.71083  -0.70582  -0.65677  -0.65463  -0.65130
 Alpha  occ. eigenvalues --   -0.64947  -0.62848  -0.62149  -0.55888  -0.55397
 Alpha  occ. eigenvalues --   -0.53782  -0.53557  -0.53147  -0.52938  -0.49282
 Alpha  occ. eigenvalues --   -0.49259  -0.48881  -0.48871  -0.45237  -0.44874
 Alpha  occ. eigenvalues --   -0.37952  -0.37490  -0.37100  -0.36323
 Alpha virt. eigenvalues --    0.04486   0.05001   0.10445   0.11247   0.15783
 Alpha virt. eigenvalues --    0.16497   0.19219   0.22158   0.25240   0.27141
 Alpha virt. eigenvalues --    0.28006   0.29178   0.29549   0.31595   0.32510

 Mulliken charges:
               1
     1  C   -0.170129
     2  C   -0.226511
     3  C   -0.166591
     4  C    0.158491
     5  C   -0.168361
     6  C   -0.217899
     7  H    0.228575
     8  H    0.217725
     9  H    0.270635
    10  H    0.278996
    11  H    0.227483
    12  N    0.488636
    13  O   -0.457085
    14  O   -0.461723
    15  C   -0.169236
    16  C   -0.216897
    17  C   -0.169494
    18  C    0.158985
    19  C   -0.171312
    20  C   -0.217582
    21  H    0.225841
    22  H    0.225687
    23  H    0.276874
    24  H    0.273897
    25  H    0.213593
    26  N    0.488342
    27  O   -0.461848
    28  O   -0.459092
 Sum of Mulliken charges =  -0.00000

 Dipole moment (field-independent basis, Debye):
    X=             -2.1028    Y=              0.7818    Z=              5.8959  Tot=              6.3083
 Quadrupole moment (field-independent basis, Debye-Ang):
   XX=           -116.0116   YY=           -103.8637   ZZ=           -105.1006
   XY=            -28.7155   XZ=              2.1254   YZ=             -1.9206

 Normal termination of Gaussian 16 at Thu May  6 03:30:56 2021.
