 Gaussian 16, Revision A.03,
 Gaussian 16:  EM64L-G16RevA.03 25-Dec-2016

 -------------
 #p 6-31g* mp2
 -------------

 ------------------------------------------------------
 Input file generated by CHIRIPA (05-May-2021 14:53:12)
 ------------------------------------------------------
 Symbolic Z-matrix:
 Charge =  0 Multiplicity = 1

                         Standard orientation:
 ---------------------------------------------------------------------
 Center     Atomic      Atomic             Coordinates (Angstroms)
 Number     Number       Type             X           Y           Z
 ---------------------------------------------------------------------
      1          6           0       -4.860025   -0.287419   -0.455441
      2          6           0       -5.962674   -1.051127    0.278656
      3          6           0       -6.695969   -2.043679   -0.624069
      4          1           0       -5.298736    0.246459   -1.309521
      5          1           0       -4.140796   -1.006113   -0.872075
      6          1           0       -6.678864   -0.331143    0.694962
      7          1           0       -5.521318   -1.583095    1.131200
      8          1           0       -5.998530   -2.784075   -1.029029
      9          1           0       -7.162653   -1.525010   -1.467746
     10          1           0       -7.479950   -2.578626   -0.079033
     11          6           0       -4.117830    0.708655    0.433779
     12          6           0       -3.015181    1.472364   -0.300319
     13          6           0       -2.281886    2.464915    0.602407
     14          1           0       -4.837059    1.427350    0.850412
     15          1           0       -3.679119    0.174777    1.287858
     16          1           0       -3.456537    2.004331   -1.152863
     17          1           0       -2.298991    0.752380   -0.716625
     18          1           0       -1.815202    1.946246    1.446083
     19          1           0       -2.979325    3.205311    1.007367
     20          1           0       -1.497905    2.999863    0.057370
     21          6           0        1.082990    0.496573    0.238993
     22          6           0        1.993187    1.372030   -0.362369
     23          6           0        3.338635    1.016208   -0.495428
     24          6           0        3.741317   -0.228460   -0.013825
     25          6           0        2.858547   -1.122533    0.590030
     26          6           0        1.517809   -0.745725    0.712439
     27          1           0        0.039643    0.781136    0.338220
     28          1           0        1.658325    2.337456   -0.730968
     29          1           0        4.064529    1.674693   -0.956833
     30          1           0        3.222116   -2.078158    0.947822
     31          1           0        0.813165   -1.427636    1.179900
     32          7           0        5.163189   -0.616262   -0.149051
     33          8           0        5.492824   -1.718522    0.283386
     34          8           0        5.921096    0.189382   -0.684918
 ---------------------------------------------------------------------

 SCF Done:  E(RHF) =  -669.535185093     A.U. after   15 cycles
 E2 =    -0.2091633354D+01 EUMP2 =    -0.67162681844703D+03

 The electronic state is 1-A.
 Alpha  occ. eigenvalues --  -20.60714 -20.60709 -15.85768 -11.31118 -11.27694
 Alpha  occ. eigenvalues --  -11.27689 -11.27345 -11.26695 -11.26683 -11.22870
 Alpha  occ. eigenvalues --  -11.22508 -11.22402 -11.22276 -11.22180 -11.21621
 Alpha  occ. eigenvalues --   -1.59790  -1.39344  -1.19289  -1.09399  -1.08679
 Alpha  occ. eigenvalues --   -1.04695  -1.04520  -0.96972  -0.95514  -0.87977
 Alpha  occ. eigenvalues --   -0.86089  -0.82357  -0.80586  -0.79143  -0.77410
 Alpha  occ. eigenvalues --   -0.71985  -0.71114  -0.70446  -0.66033  -0.64938
 Alpha  occ. eigenvalues --   -0.64707  -0.62049  -0.61938  -0.60371  -0.58545
 Alpha  occ. eigenvalues --   -0.56421  -0.54945  -0.53656  -0.53369  -0.53021
 Alpha  occ. eigenvalues --   -0.52784  -0.50897  -0.48888  -0.48741  -0.48738
 Alpha  occ. eigenvalues --   -0.47639  -0.46689  -0.46592  -0.44753  -0.44744
 Alpha  occ. eigenvalues --   -0.37252  -0.36306
 Alpha virt. eigenvalues --    0.05115   0.11349   0.16556   0.19214   0.22510
 Alpha virt. eigenvalues --    0.24009   0.25370   0.26002   0.26558   0.27181
 Alpha virt. eigenvalues --    0.29389   0.29972   0.30811   0.31236   0.31916

 Mulliken charges:
               1
     1  C   -0.299000
     2  C   -0.300262
     3  C   -0.476216
     4  H    0.151990
     5  H    0.149379
     6  H    0.153444
     7  H    0.151858
     8  H    0.155737
     9  H    0.156420
    10  H    0.162314
    11  C   -0.298035
    12  C   -0.305899
    13  C   -0.485608
    14  H    0.153397
    15  H    0.147715
    16  H    0.158520
    17  H    0.148167
    18  H    0.152048
    19  H    0.166705
    20  H    0.157273
    21  C   -0.180137
    22  C   -0.223437
    23  C   -0.170617
    24  C    0.158054
    25  C   -0.170456
    26  C   -0.222330
    27  H    0.245782
    28  H    0.223145
    29  H    0.275346
    30  H    0.275211
    31  H    0.222817
    32  N    0.488001
    33  O   -0.460691
    34  O   -0.460633
 Sum of Mulliken charges =  -0.00000

 Dipole moment (field-independent basis, Debye):
    X=             -5.3298    Y=              1.4126    Z=              0.4660  Tot=              5.5335
 Quadrupole moment (field-independent basis, Debye-Ang):
   XX=           -131.4798   YY=            -91.5235   ZZ=            -94.7142
   XY=              6.1403   XZ=              1.2342   YZ=             -2.9536

 Normal termination of Gaussian 16 at Wed May  5 23:20:06 2021.
