 Gaussian 16, Revision A.03,
 Gaussian 16:  EM64L-G16RevA.03 25-Dec-2016

 -------------
 #p 6-31g* mp2
 -------------

 ------------------------------------------------------
 Input file generated by CHIRIPA (05-May-2021 14:51:08)
 ------------------------------------------------------
 Symbolic Z-matrix:
 Charge =  0 Multiplicity = 1

                         Standard orientation:
 ---------------------------------------------------------------------
 Center     Atomic      Atomic             Coordinates (Angstroms)
 Number     Number       Type             X           Y           Z
 ---------------------------------------------------------------------
      1          6           0       -3.040969   -0.453674    0.077047
      2          6           0       -1.877373    0.438025    0.511678
      3          6           0       -0.529053   -0.280851    0.456504
      4          1           0       -3.072058   -1.344200    0.719653
      5          1           0       -2.857095   -0.812171   -0.945237
      6          1           0       -2.064054    0.795851    1.532328
      7          1           0       -1.849167    1.326624   -0.131914
      8          1           0       -0.316618   -0.623652   -0.561317
      9          1           0       -0.532725   -1.157442    1.112381
     10          1           0        0.288722    0.374928    0.771241
     11          6           0       -4.395549    0.250855    0.126838
     12          6           0       -5.559145   -0.640844   -0.307793
     13          6           0       -6.907465    0.078031   -0.252619
     14          1           0       -4.579423    0.609352    1.149122
     15          1           0       -4.364460    1.141381   -0.515768
     16          1           0       -5.587350   -1.529444    0.335799
     17          1           0       -5.372463   -0.998670   -1.328443
     18          1           0       -6.903792    0.954623   -0.908496
     19          1           0       -7.119900    0.420833    0.765202
     20          1           0       -7.725240   -0.577747   -0.567356
     21          6           0        3.883375    0.805479    0.143934
     22          6           0        3.018144    1.890438   -0.498114
     23          6           0        3.360360    3.293534    0.003883
     24          1           0        3.761342    0.846001    1.234993
     25          1           0        4.941242    1.021172   -0.060488
     26          1           0        1.962148    1.672006   -0.293716
     27          1           0        3.142103    1.847203   -1.587783
     28          1           0        4.405425    3.536387   -0.213975
     29          1           0        3.218766    3.360194    1.087446
     30          1           0        2.729945    4.053620   -0.468037
     31          6           0        3.553143   -0.602660   -0.347819
     32          6           0        4.418375   -1.687618    0.294229
     33          6           0        4.076158   -3.090714   -0.207768
     34          1           0        2.495275   -0.818354   -0.143397
     35          1           0        3.675176   -0.643182   -1.438878
     36          1           0        4.294415   -1.644383    1.383899
     37          1           0        5.474369   -1.469187    0.089831
     38          1           0        4.217751   -3.157375   -1.291331
     39          1           0        3.031092   -3.333567    0.010090
     40          1           0        4.706572   -3.850801    0.264152
 ---------------------------------------------------------------------

 SCF Done:  E(RHF) =  -470.732848307     A.U. after   11 cycles
 E2 =    -0.1583230380D+01 EUMP2 =    -0.47231607868690D+03

 The electronic state is 1-A.
 Alpha  occ. eigenvalues --  -11.21667 -11.21625 -11.21531 -11.21526 -11.21445
 Alpha  occ. eigenvalues --  -11.21384 -11.21327 -11.21235 -11.21156 -11.21089
 Alpha  occ. eigenvalues --  -11.21040 -11.21011  -1.08477  -1.08358  -1.03584
 Alpha  occ. eigenvalues --   -1.03470  -0.96044  -0.95915  -0.87063  -0.86936
 Alpha  occ. eigenvalues --   -0.79662  -0.79534  -0.78295  -0.78151  -0.65114
 Alpha  occ. eigenvalues --   -0.65011  -0.60987  -0.60891  -0.59437  -0.59252
 Alpha  occ. eigenvalues --   -0.57646  -0.57527  -0.55324  -0.55209  -0.52809
 Alpha  occ. eigenvalues --   -0.52582  -0.52491  -0.52318  -0.49979  -0.49864
 Alpha  occ. eigenvalues --   -0.48023  -0.47798  -0.46689  -0.46554  -0.45855
 Alpha  occ. eigenvalues --   -0.45764  -0.45696  -0.45593  -0.43763  -0.43685
 Alpha virt. eigenvalues --    0.21328   0.22974   0.23913   0.24545   0.25943
 Alpha virt. eigenvalues --    0.26623   0.27154   0.27435   0.27917   0.29437
 Alpha virt. eigenvalues --    0.30069   0.31326   0.31731   0.31860   0.32125

 Mulliken charges:
               1
     1  C   -0.298667
     2  C   -0.300766
     3  C   -0.481231
     4  H    0.149742
     5  H    0.149833
     6  H    0.152042
     7  H    0.152577
     8  H    0.156638
     9  H    0.155130
    10  H    0.165063
    11  C   -0.298341
    12  C   -0.299676
    13  C   -0.475732
    14  H    0.149581
    15  H    0.149793
    16  H    0.151975
    17  H    0.152029
    18  H    0.155240
    19  H    0.155208
    20  H    0.160351
    21  C   -0.297636
    22  C   -0.306326
    23  C   -0.475256
    24  H    0.148788
    25  H    0.149326
    26  H    0.157965
    27  H    0.151735
    28  H    0.155169
    29  H    0.154714
    30  H    0.159919
    31  C   -0.306230
    32  C   -0.299110
    33  C   -0.475731
    34  H    0.159919
    35  H    0.148735
    36  H    0.151592
    37  H    0.151456
    38  H    0.154888
    39  H    0.155414
    40  H    0.159881
 Sum of Mulliken charges =  -0.00000

 Dipole moment (field-independent basis, Debye):
    X=             -0.0611    Y=             -0.0114    Z=             -0.0017  Tot=              0.0622
 Quadrupole moment (field-independent basis, Debye-Ang):
   XX=            -85.6363   YY=            -86.0800   ZZ=            -83.3406
   XY=              0.3482   XZ=             -0.6834   YZ=             -0.6678

 Normal termination of Gaussian 16 at Wed May  5 21:19:55 2021.
