 Gaussian 16, Revision A.03,
 Gaussian 16:  EM64L-G16RevA.03 25-Dec-2016

 -------------
 #p 6-31g* mp2
 -------------

 ------------------------------------------------------
 Input file generated by CHIRIPA (05-May-2021 14:57:25)
 ------------------------------------------------------
 Symbolic Z-matrix:
 Charge =  0 Multiplicity = 1

                         Standard orientation:
 ---------------------------------------------------------------------
 Center     Atomic      Atomic             Coordinates (Angstroms)
 Number     Number       Type             X           Y           Z
 ---------------------------------------------------------------------
      1          6           0       -1.264695    2.111906   -1.067026
      2          6           0       -2.542309    2.339437   -0.545058
      3          6           0       -3.310868    1.276900   -0.060412
      4          6           0       -2.768271   -0.006097   -0.113292
      5          6           0       -1.498611   -0.264921   -0.627357
      6          6           0       -0.747834    0.812744   -1.106441
      7          1           0       -0.674567    2.943186   -1.441351
      8          1           0       -2.946266    3.347330   -0.513189
      9          1           0       -4.302830    1.424697    0.348960
     10          1           0       -1.122860   -1.280739   -0.645860
     11          1           0        0.244077    0.633069   -1.511255
     12          7           0       -3.572497   -1.138965    0.396836
     13          8           0       -3.071730   -2.259916    0.339049
     14          8           0       -4.688388   -0.884505    0.844804
     15          6           0        2.657071    2.156062    1.148901
     16          6           0        2.935462    1.949506   -0.206220
     17          6           0        2.926453    0.659167   -0.744263
     18          6           0        2.633662   -0.406515    0.105377
     19          6           0        2.352189   -0.233045    1.459620
     20          6           0        2.366834    1.066049    1.976038
     21          1           0        2.666259    3.161830    1.558466
     22          1           0        3.161199    2.794145   -0.850947
     23          1           0        3.138355    0.470733   -1.789734
     24          1           0        2.130694   -1.094833    2.077422
     25          1           0        2.150251    1.223473    3.028822
     26          7           0        2.621140   -1.777173   -0.452778
     27          8           0        2.360211   -2.699314    0.316772
     28          8           0        2.872493   -1.903401   -1.649242
 ---------------------------------------------------------------------

 SCF Done:  E(RHF) =  -868.336238569     A.U. after   16 cycles
 E2 =    -0.2603100419D+01 EUMP2 =    -0.87093933898876D+03

 The electronic state is 1-A.
 Alpha  occ. eigenvalues --  -20.61536 -20.61500 -20.60636 -20.60609 -15.86570
 Alpha  occ. eigenvalues --  -15.85677 -11.32037 -11.31115 -11.28647 -11.28548
 Alpha  occ. eigenvalues --  -11.28349 -11.27708 -11.27702 -11.27613 -11.27563
 Alpha  occ. eigenvalues --  -11.27483 -11.26779 -11.26614  -1.60605  -1.59703
 Alpha  occ. eigenvalues --   -1.40148  -1.39251  -1.20240  -1.19291  -1.09596
 Alpha  occ. eigenvalues --   -1.08689  -1.05644  -1.04697  -0.96410  -0.95509
 Alpha  occ. eigenvalues --   -0.87030  -0.86099  -0.83224  -0.82336  -0.78266
 Alpha  occ. eigenvalues --   -0.77368  -0.72763  -0.71969  -0.71891  -0.71302
 Alpha  occ. eigenvalues --   -0.71032  -0.70427  -0.65863  -0.65611  -0.64944
 Alpha  occ. eigenvalues --   -0.64747  -0.62963  -0.62068  -0.56099  -0.55268
 Alpha  occ. eigenvalues --   -0.54160  -0.53701  -0.52987  -0.52589  -0.49545
 Alpha  occ. eigenvalues --   -0.49523  -0.48663  -0.48642  -0.45513  -0.44640
 Alpha  occ. eigenvalues --   -0.38222  -0.37399  -0.37117  -0.36266
 Alpha virt. eigenvalues --    0.04212   0.05156   0.10265   0.11348   0.15698
 Alpha virt. eigenvalues --    0.16625   0.20470   0.21593   0.26326   0.26999
 Alpha virt. eigenvalues --    0.27848   0.28292   0.30059   0.30941   0.31951

 Mulliken charges:
               1
     1  C   -0.173928
     2  C   -0.219165
     3  C   -0.172279
     4  C    0.158101
     5  C   -0.176400
     6  C   -0.215606
     7  H    0.219464
     8  H    0.221083
     9  H    0.274811
    10  H    0.281780
    11  H    0.227372
    12  N    0.487411
    13  O   -0.456325
    14  O   -0.462227
    15  C   -0.169772
    16  C   -0.218568
    17  C   -0.190122
    18  C    0.160427
    19  C   -0.168901
    20  C   -0.215236
    21  H    0.227788
    22  H    0.223428
    23  H    0.276262
    24  H    0.281234
    25  H    0.228357
    26  N    0.485369
    27  O   -0.453270
    28  O   -0.461089
 Sum of Mulliken charges =  -0.00000

 Dipole moment (field-independent basis, Debye):
    X=              3.0618    Y=              8.6477    Z=              0.4273  Tot=              9.1837
 Quadrupole moment (field-independent basis, Debye-Ang):
   XX=           -118.4289   YY=           -106.9592   ZZ=           -100.3000
   XY=             -0.3385   XZ=              8.2124   YZ=             -1.5903

 Normal termination of Gaussian 16 at Thu May  6 09:52:51 2021.
