 Gaussian 16, Revision A.03,
 Gaussian 16:  EM64L-G16RevA.03 25-Dec-2016

 -------------
 #p 6-31g* mp2
 -------------

 ------------------------------------------------------
 Input file generated by CHIRIPA (05-May-2021 14:51:11)
 ------------------------------------------------------
 Symbolic Z-matrix:
 Charge =  0 Multiplicity = 1

                         Standard orientation:
 ---------------------------------------------------------------------
 Center     Atomic      Atomic             Coordinates (Angstroms)
 Number     Number       Type             X           Y           Z
 ---------------------------------------------------------------------
      1          6           0       -3.206670    0.504683   -0.082950
      2          6           0       -3.389359    1.983937   -0.424149
      3          6           0       -2.099767    2.790334   -0.267721
      4          1           0       -2.839627    0.415508    0.948685
      5          1           0       -2.426747    0.079923   -0.730015
      6          1           0       -4.169678    2.405441    0.222421
      7          1           0       -3.756193    2.069593   -1.455028
      8          1           0       -1.317292    2.396860   -0.924618
      9          1           0       -1.733126    2.734617    0.762362
     10          1           0       -2.253088    3.845025   -0.516678
     11          6           0       -4.487098   -0.314619   -0.234535
     12          6           0       -4.304409   -1.793873    0.106664
     13          6           0       -5.594002   -2.600270   -0.049764
     14          1           0       -5.267022    0.110141    0.412530
     15          1           0       -4.854142   -0.225444   -1.266170
     16          1           0       -3.937575   -1.879529    1.137543
     17          1           0       -3.524091   -2.215377   -0.539906
     18          1           0       -5.960642   -2.544553   -1.079847
     19          1           0       -6.376476   -2.206796    0.607133
     20          1           0       -5.440681   -3.654961    0.199193
     21          6           0        3.303932    0.441819    0.179383
     22          6           0        1.999412   -0.039256    0.815606
     23          6           0        0.922897    1.045987    0.849630
     24          1           0        3.676589    1.312626    0.735950
     25          1           0        3.099088    0.788568   -0.842967
     26          1           0        2.206897   -0.386284    1.835968
     27          1           0        1.629918   -0.909137    0.257576
     28          1           0        0.687014    1.386526   -0.163775
     29          1           0        1.267271    1.912350    1.423584
     30          1           0       -0.001143    0.680611    1.308446
     31          6           0        4.389837   -0.631882    0.138103
     32          6           0        5.694356   -0.150808   -0.498122
     33          6           0        6.770871   -1.236051   -0.532146
     34          1           0        4.594680   -0.978632    1.160453
     35          1           0        4.017180   -1.502689   -0.418464
     36          1           0        6.063850    0.719073    0.059908
     37          1           0        5.486872    0.196220   -1.518483
     38          1           0        6.426498   -2.102414   -1.106100
     39          1           0        7.006755   -1.576591    0.481261
     40          1           0        7.694911   -0.870676   -0.990960
 ---------------------------------------------------------------------

 SCF Done:  E(RHF) =  -470.732172874     A.U. after   11 cycles
 E2 =    -0.1583324314D+01 EUMP2 =    -0.47231549718796D+03

 The electronic state is 1-A.
 Alpha  occ. eigenvalues --  -11.21598 -11.21580 -11.21547 -11.21517 -11.21388
 Alpha  occ. eigenvalues --  -11.21369 -11.21328 -11.21309 -11.21068 -11.21056
 Alpha  occ. eigenvalues --  -11.20926 -11.20920  -1.08416  -1.08379  -1.03536
 Alpha  occ. eigenvalues --   -1.03438  -0.96013  -0.95860  -0.87072  -0.86842
 Alpha  occ. eigenvalues --   -0.79712  -0.79407  -0.78253  -0.78159  -0.65062
 Alpha  occ. eigenvalues --   -0.65003  -0.60983  -0.60813  -0.59438  -0.59179
 Alpha  occ. eigenvalues --   -0.57652  -0.57468  -0.55363  -0.55098  -0.52782
 Alpha  occ. eigenvalues --   -0.52647  -0.52489  -0.52084  -0.50045  -0.49728
 Alpha  occ. eigenvalues --   -0.47988  -0.47714  -0.46695  -0.46459  -0.45817
 Alpha  occ. eigenvalues --   -0.45714  -0.45703  -0.45561  -0.43761  -0.43670
 Alpha virt. eigenvalues --    0.21843   0.23087   0.23556   0.25002   0.25457
 Alpha virt. eigenvalues --    0.26532   0.26848   0.27333   0.27954   0.29316
 Alpha virt. eigenvalues --    0.29672   0.31268   0.31570   0.31983   0.32354

 Mulliken charges:
               1
     1  C   -0.299224
     2  C   -0.299953
     3  C   -0.476882
     4  H    0.149877
     5  H    0.150013
     6  H    0.151409
     7  H    0.151321
     8  H    0.156895
     9  H    0.158836
    10  H    0.158790
    11  C   -0.298216
    12  C   -0.299574
    13  C   -0.475681
    14  H    0.149495
    15  H    0.149626
    16  H    0.151765
    17  H    0.151794
    18  H    0.155161
    19  H    0.155199
    20  H    0.160213
    21  C   -0.298315
    22  C   -0.300894
    23  C   -0.476951
    24  H    0.149581
    25  H    0.149095
    26  H    0.151173
    27  H    0.151395
    28  H    0.157758
    29  H    0.153977
    30  H    0.162620
    31  C   -0.298129
    32  C   -0.299579
    33  C   -0.475669
    34  H    0.149472
    35  H    0.149457
    36  H    0.151917
    37  H    0.151801
    38  H    0.155100
    39  H    0.155155
    40  H    0.160170
 Sum of Mulliken charges =  -0.00000

 Dipole moment (field-independent basis, Debye):
    X=             -0.0142    Y=              0.0189    Z=              0.0036  Tot=              0.0239
 Quadrupole moment (field-independent basis, Debye-Ang):
   XX=            -86.3426   YY=            -85.6834   ZZ=            -82.9857
   XY=              0.0865   XZ=              0.0693   YZ=              0.4078

 Normal termination of Gaussian 16 at Wed May  5 15:15:32 2021.
