 Gaussian 16, Revision A.03,
 Gaussian 16:  EM64L-G16RevA.03 25-Dec-2016

 -------------
 #p 6-31g* mp2
 -------------

 ------------------------------------------------------
 Input file generated by CHIRIPA (05-May-2021 14:57:24)
 ------------------------------------------------------
 Symbolic Z-matrix:
 Charge =  0 Multiplicity = 1

                         Standard orientation:
 ---------------------------------------------------------------------
 Center     Atomic      Atomic             Coordinates (Angstroms)
 Number     Number       Type             X           Y           Z
 ---------------------------------------------------------------------
      1          6           0        4.990127   -1.748641   -0.862042
      2          6           0        5.546354   -0.467416   -0.787249
      3          6           0        4.774206    0.618191   -0.363228
      4          6           0        3.443266    0.385513   -0.020084
      5          6           0        2.860319   -0.879149   -0.084075
      6          6           0        3.651246   -1.950064   -0.510835
      7          1           0        5.597244   -2.586260   -1.192496
      8          1           0        6.585868   -0.308029   -1.059375
      9          1           0        5.179438    1.620534   -0.296036
     10          1           0        1.821137   -1.006851    0.193794
     11          1           0        3.216613   -2.943984   -0.567947
     12          7           0        2.615887    1.527019    0.430258
     13          8           0        1.445812    1.295703    0.726996
     14          8           0        3.153130    2.631433    0.477972
     15          6           0       -5.422734    0.859912   -1.266215
     16          6           0       -5.452253   -0.511796   -0.994065
     17          6           0       -4.436374   -1.108312   -0.241264
     18          6           0       -3.401443   -0.299594    0.225836
     19          6           0       -3.343920    1.069810   -0.028554
     20          6           0       -4.370517    1.644953   -0.783442
     21          1           0       -6.216056    1.314998   -1.851819
     22          1           0       -6.268178   -1.123927   -1.367707
     23          1           0       -4.434419   -2.167828   -0.015786
     24          1           0       -2.517488    1.654126    0.357456
     25          1           0       -4.344993    2.710493   -0.993247
     26          7           0       -2.320304   -0.919784    1.023897
     27          8           0       -1.419568   -0.185448    1.423978
     28          8           0       -2.394114   -2.128483    1.234226
 ---------------------------------------------------------------------

 SCF Done:  E(RHF) =  -868.337886704     A.U. after   16 cycles
 E2 =    -0.2599561358D+01 EUMP2 =    -0.87093744806222D+03

 The electronic state is 1-A.
 Alpha  occ. eigenvalues --  -20.60382 -20.60260 -20.60012 -20.59936 -15.85342
 Alpha  occ. eigenvalues --  -15.85017 -11.30741 -11.30460 -11.27377 -11.27231
 Alpha  occ. eigenvalues --  -11.27109 -11.27107 -11.26940 -11.26858 -11.26393
 Alpha  occ. eigenvalues --  -11.26310 -11.26141 -11.26048  -1.59406  -1.59066
 Alpha  occ. eigenvalues --   -1.38943  -1.38604  -1.18931  -1.18658  -1.08333
 Alpha  occ. eigenvalues --   -1.08053  -1.04331  -1.04063  -0.95154  -0.94860
 Alpha  occ. eigenvalues --   -0.85728  -0.85460  -0.81983  -0.81662  -0.77017
 Alpha  occ. eigenvalues --   -0.76685  -0.71624  -0.71152  -0.70720  -0.70399
 Alpha  occ. eigenvalues --   -0.70035  -0.69763  -0.64579  -0.64337  -0.64299
 Alpha  occ. eigenvalues --   -0.64070  -0.61660  -0.61386  -0.54854  -0.54592
 Alpha  occ. eigenvalues --   -0.52676  -0.52418  -0.52409  -0.52149  -0.48375
 Alpha  occ. eigenvalues --   -0.48322  -0.48029  -0.47965  -0.44327  -0.43994
 Alpha  occ. eigenvalues --   -0.36937  -0.36673  -0.35939  -0.35675
 Alpha virt. eigenvalues --    0.05493   0.05809   0.11713   0.11974   0.16958
 Alpha virt. eigenvalues --    0.17269   0.21832   0.22118   0.27768   0.28024
 Alpha virt. eigenvalues --    0.28710   0.29081   0.31346   0.31643   0.33012

 Mulliken charges:
               1
     1  C   -0.171315
     2  C   -0.219274
     3  C   -0.171886
     4  C    0.156427
     5  C   -0.173844
     6  C   -0.219816
     7  H    0.223152
     8  H    0.220544
     9  H    0.273170
    10  H    0.288835
    11  H    0.224334
    12  N    0.487585
    13  O   -0.451473
    14  O   -0.467701
    15  C   -0.171053
    16  C   -0.219162
    17  C   -0.171989
    18  C    0.156181
    19  C   -0.171884
    20  C   -0.219478
    21  H    0.224154
    22  H    0.221265
    23  H    0.273130
    24  H    0.286945
    25  H    0.224456
    26  N    0.486271
    27  O   -0.448454
    28  O   -0.469119
 Sum of Mulliken charges =  -0.00000

 Dipole moment (field-independent basis, Debye):
    X=             -1.0110    Y=             -1.7319    Z=             -4.2735  Tot=              4.7206
 Quadrupole moment (field-independent basis, Debye-Ang):
   XX=            -57.6573   YY=           -104.3491   ZZ=           -107.6327
   XY=            -14.9901   XZ=              3.1028   YZ=              0.9508

 Normal termination of Gaussian 16 at Fri May  7 01:54:38 2021.
