 Gaussian 16, Revision A.03,
 Gaussian 16:  EM64L-G16RevA.03 25-Dec-2016

 -------------
 #p 6-31g* mp2
 -------------

 ------------------------------------------------------
 Input file generated by CHIRIPA (05-May-2021 14:51:12)
 ------------------------------------------------------
 Symbolic Z-matrix:
 Charge =  0 Multiplicity = 1

                         Standard orientation:
 ---------------------------------------------------------------------
 Center     Atomic      Atomic             Coordinates (Angstroms)
 Number     Number       Type             X           Y           Z
 ---------------------------------------------------------------------
      1          6           0       -3.223600   -0.125482    0.325369
      2          6           0       -2.738154   -1.462743   -0.235041
      3          6           0       -3.462235   -2.659938    0.381582
      4          1           0       -3.083364   -0.119192    1.414975
      5          1           0       -4.304125   -0.032398    0.148747
      6          1           0       -1.658610   -1.552667   -0.058645
      7          1           0       -2.879384   -1.465776   -1.323462
      8          1           0       -4.538981   -2.597507    0.193640
      9          1           0       -3.311271   -2.684892    1.465643
     10          1           0       -3.099701   -3.605616   -0.033295
     11          6           0       -2.509142    1.080828   -0.281338
     12          6           0       -2.994587    2.418090    0.279072
     13          6           0       -2.270506    3.615285   -0.337551
     14          1           0       -1.428616    0.987745   -0.104716
     15          1           0       -2.649377    1.074538   -1.370944
     16          1           0       -2.853357    2.421123    1.367493
     17          1           0       -4.074131    2.508014    0.102676
     18          1           0       -2.421470    3.640238   -1.421612
     19          1           0       -1.193760    3.552854   -0.149609
     20          1           0       -2.633040    4.560963    0.077326
     21          6           0        2.943955    0.257303   -0.214947
     22          6           0        4.113920    0.948089    0.486466
     23          6           0        4.256182    2.417974    0.090241
     24          1           0        3.079775    0.333901   -1.302435
     25          1           0        2.014786    0.793621    0.022547
     26          1           0        5.040419    0.409807    0.248836
     27          1           0        3.975397    0.869670    1.572411
     28          1           0        3.347954    2.974686    0.342819
     29          1           0        4.419028    2.512210   -0.988277
     30          1           0        5.098581    2.892343    0.603267
     31          6           0        2.788786   -1.212650    0.170915
     32          6           0        1.618821   -1.903436   -0.530497
     33          6           0        1.476559   -3.373321   -0.134272
     34          1           0        3.717956   -1.748968   -0.066578
     35          1           0        2.652966   -1.289248    1.258404
     36          1           0        1.757344   -1.825018   -1.616442
     37          1           0        0.692322   -1.365155   -0.292867
     38          1           0        1.313713   -3.467558    0.944246
     39          1           0        2.384787   -3.930034   -0.386849
     40          1           0        0.634160   -3.847690   -0.647298
 ---------------------------------------------------------------------

 SCF Done:  E(RHF) =  -470.733346804     A.U. after   11 cycles
 E2 =    -0.1583220421D+01 EUMP2 =    -0.47231656722459D+03

 The electronic state is 1-A.
 Alpha  occ. eigenvalues --  -11.21625 -11.21625 -11.21607 -11.21583 -11.21434
 Alpha  occ. eigenvalues --  -11.21429 -11.21374 -11.21368 -11.21091 -11.21088
 Alpha  occ. eigenvalues --  -11.21088 -11.21070  -1.08469  -1.08436  -1.03572
 Alpha  occ. eigenvalues --   -1.03521  -0.96008  -0.95983  -0.87020  -0.87001
 Alpha  occ. eigenvalues --   -0.79678  -0.79549  -0.78347  -0.78183  -0.65207
 Alpha  occ. eigenvalues --   -0.64977  -0.61092  -0.60817  -0.59436  -0.59288
 Alpha  occ. eigenvalues --   -0.57665  -0.57541  -0.55324  -0.55242  -0.52710
 Alpha  occ. eigenvalues --   -0.52664  -0.52435  -0.52402  -0.49987  -0.49898
 Alpha  occ. eigenvalues --   -0.48068  -0.47832  -0.46877  -0.46476  -0.46087
 Alpha  occ. eigenvalues --   -0.45782  -0.45770  -0.45285  -0.43813  -0.43787
 Alpha virt. eigenvalues --    0.20346   0.22899   0.23489   0.24442   0.25312
 Alpha virt. eigenvalues --    0.26985   0.27025   0.27065   0.28253   0.29665
 Alpha virt. eigenvalues --    0.30736   0.30910   0.31594   0.31701   0.32485

 Mulliken charges:
               1
     1  C   -0.297800
     2  C   -0.308796
     3  C   -0.474974
     4  H    0.149195
     5  H    0.149729
     6  H    0.161171
     7  H    0.151939
     8  H    0.155101
     9  H    0.154955
    10  H    0.160253
    11  C   -0.299879
    12  C   -0.299722
    13  C   -0.475541
    14  H    0.149790
    15  H    0.150136
    16  H    0.151779
    17  H    0.152225
    18  H    0.155446
    19  H    0.154838
    20  H    0.160341
    21  C   -0.298758
    22  C   -0.299708
    23  C   -0.475639
    24  H    0.150127
    25  H    0.149086
    26  H    0.152141
    27  H    0.151857
    28  H    0.154980
    29  H    0.155394
    30  H    0.160368
    31  C   -0.297640
    32  C   -0.307436
    33  C   -0.475925
    34  H    0.149748
    35  H    0.149300
    36  H    0.152471
    37  H    0.158164
    38  H    0.154907
    39  H    0.155445
    40  H    0.160930
 Sum of Mulliken charges =  -0.00000

 Dipole moment (field-independent basis, Debye):
    X=              0.0055    Y=             -0.0064    Z=             -0.0163  Tot=              0.0184
 Quadrupole moment (field-independent basis, Debye-Ang):
   XX=            -84.1024   YY=            -86.7844   ZZ=            -83.7839
   XY=             -0.8966   XZ=              0.2384   YZ=              0.7129

 Normal termination of Gaussian 16 at Wed May  5 15:18:07 2021.
