 Gaussian 16, Revision A.03,
 Gaussian 16:  EM64L-G16RevA.03 25-Dec-2016

 -------------
 #p 6-31g* mp2
 -------------

 ------------------------------------------------------
 Input file generated by CHIRIPA (05-May-2021 14:55:24)
 ------------------------------------------------------
 Symbolic Z-matrix:
 Charge =  0 Multiplicity = 1

                         Standard orientation:
 ---------------------------------------------------------------------
 Center     Atomic      Atomic             Coordinates (Angstroms)
 Number     Number       Type             X           Y           Z
 ---------------------------------------------------------------------
      1          6           0        3.794487    1.268521   -0.609664
      2          6           0        3.105375    1.337550    0.605606
      3          6           0        2.266030    0.293710    1.006163
      4          6           0        2.138507   -0.809169    0.163140
      5          6           0        2.811744   -0.907368   -1.053576
      6          6           0        3.645735    0.148257   -1.433923
      7          1           0        4.444431    2.083978   -0.912976
      8          1           0        3.218985    2.206334    1.247752
      9          1           0        1.720768    0.321188    1.941766
     10          1           0        2.678335   -1.786346   -1.672461
     11          1           0        4.179675    0.091926   -2.378264
     12          7           0        1.252764   -1.920474    0.576494
     13          8           0        1.157435   -2.881195   -0.184140
     14          8           0        0.670620   -1.809751    1.653288
     15          6           0       -2.245795    1.088075   -0.324180
     16          6           0       -1.832097    2.307220    0.500759
     17          6           0       -0.472827    2.869586    0.083716
     18          1           0       -1.478466    0.308215   -0.224341
     19          1           0       -2.273156    1.365405   -1.387070
     20          1           0       -1.806867    2.028039    1.561908
     21          1           0       -2.600594    3.084198    0.399098
     22          1           0       -0.488484    3.175320   -0.967417
     23          1           0        0.309753    2.113161    0.202000
     24          1           0       -0.196690    3.740520    0.686280
     25          6           0       -3.602494    0.514516    0.080942
     26          6           0       -4.016194   -0.704629   -0.743996
     27          6           0       -5.375463   -1.266995   -0.326954
     28          1           0       -3.575134    0.237187    1.143832
     29          1           0       -4.369824    1.294378   -0.018897
     30          1           0       -3.247697   -1.481606   -0.642336
     31          1           0       -4.041423   -0.425447   -1.805146
     32          1           0       -6.158043   -0.510569   -0.445237
     33          1           0       -5.359806   -1.572729    0.724180
     34          1           0       -5.651600   -2.137928   -0.929517
 ---------------------------------------------------------------------

 SCF Done:  E(RHF) =  -669.534935550     A.U. after   15 cycles
 E2 =    -0.2093253120D+01 EUMP2 =    -0.67162818866937D+03

 The electronic state is 1-A.
 Alpha  occ. eigenvalues --  -20.60903 -20.60897 -15.85951 -11.31297 -11.27845
 Alpha  occ. eigenvalues --  -11.27841 -11.27576 -11.26857 -11.26842 -11.21444
 Alpha  occ. eigenvalues --  -11.21071 -11.21030 -11.21015 -11.20908 -11.20540
 Alpha  occ. eigenvalues --   -1.59976  -1.39528  -1.19472  -1.08859  -1.08065
 Alpha  occ. eigenvalues --   -1.04876  -1.03200  -0.95721  -0.95650  -0.86697
 Alpha  occ. eigenvalues --   -0.86258  -0.82531  -0.79279  -0.77860  -0.77580
 Alpha  occ. eigenvalues --   -0.72165  -0.71300  -0.70563  -0.65117  -0.64857
 Alpha  occ. eigenvalues --   -0.64687  -0.62213  -0.60611  -0.59063  -0.57288
 Alpha  occ. eigenvalues --   -0.55353  -0.55056  -0.53251  -0.52945  -0.52378
 Alpha  occ. eigenvalues --   -0.52022  -0.49589  -0.48926  -0.48920  -0.47585
 Alpha  occ. eigenvalues --   -0.46300  -0.45421  -0.45315  -0.44894  -0.43452
 Alpha  occ. eigenvalues --   -0.37438  -0.36357
 Alpha virt. eigenvalues --    0.04933   0.11120   0.16407   0.21186   0.23142
 Alpha virt. eigenvalues --    0.24592   0.26777   0.27215   0.27779   0.28265
 Alpha virt. eigenvalues --    0.28608   0.30737   0.31760   0.31804   0.32315

 Mulliken charges:
               1
     1  C   -0.170214
     2  C   -0.214532
     3  C   -0.177359
     4  C    0.161240
     5  C   -0.170952
     6  C   -0.218056
     7  H    0.226372
     8  H    0.225396
     9  H    0.276765
    10  H    0.275997
    11  H    0.223991
    12  N    0.488091
    13  O   -0.459576
    14  O   -0.460931
    15  C   -0.297789
    16  C   -0.298927
    17  C   -0.484461
    18  H    0.151230
    19  H    0.147151
    20  H    0.152465
    21  H    0.150978
    22  H    0.153954
    23  H    0.161550
    24  H    0.153658
    25  C   -0.298165
    26  C   -0.301617
    27  C   -0.475714
    28  H    0.153413
    29  H    0.146801
    30  H    0.160830
    31  H    0.148800
    32  H    0.152279
    33  H    0.157129
    34  H    0.160203
 Sum of Mulliken charges =  -0.00000

 Dipole moment (field-independent basis, Debye):
    X=              3.2475    Y=              3.7607    Z=             -1.4429  Tot=              5.1741
 Quadrupole moment (field-independent basis, Debye-Ang):
   XX=            -82.4432   YY=           -100.7572   ZZ=            -91.4971
   XY=              4.9655   XZ=             -3.4780   YZ=              3.8841

 Normal termination of Gaussian 16 at Thu May  6 20:52:47 2021.
