 Gaussian 16, Revision A.03,
 Gaussian 16:  EM64L-G16RevA.03 25-Dec-2016

 -------------
 #p 6-31g* mp2
 -------------

 ------------------------------------------------------
 Input file generated by CHIRIPA (05-May-2021 14:51:10)
 ------------------------------------------------------
 Symbolic Z-matrix:
 Charge =  0 Multiplicity = 1

                         Standard orientation:
 ---------------------------------------------------------------------
 Center     Atomic      Atomic             Coordinates (Angstroms)
 Number     Number       Type             X           Y           Z
 ---------------------------------------------------------------------
      1          6           0        4.064400   -0.229096   -0.379655
      2          6           0        5.429674    0.216255    0.145393
      3          6           0        6.485949    0.306692   -0.956378
      4          1           0        4.168501   -1.206239   -0.870877
      5          1           0        3.729199    0.475538   -1.153300
      6          1           0        5.761570   -0.488236    0.918796
      7          1           0        5.322274    1.192363    0.635590
      8          1           0        6.180580    1.024183   -1.724855
      9          1           0        6.622372   -0.665965   -1.440040
     10          1           0        7.454192    0.626751   -0.558978
     11          6           0        2.997914   -0.324249    0.709970
     12          6           0        1.632640   -0.769599    0.184922
     13          6           0        0.576365   -0.860037    1.286693
     14          1           0        3.333115   -1.028882    1.483615
     15          1           0        2.893813    0.652894    1.201192
     16          1           0        1.740040   -1.745708   -0.305276
     17          1           0        1.300744   -0.065109   -0.588482
     18          1           0        0.439942    0.112620    1.770354
     19          1           0        0.881734   -1.577528    2.055170
     20          1           0       -0.391878   -1.180096    0.889293
     21          6           0       -3.225038    0.865864    0.212437
     22          6           0       -3.390325    2.202167   -0.512105
     23          6           0       -2.772790    3.371292    0.255741
     24          1           0       -3.684727    0.936364    1.207756
     25          1           0       -2.155260    0.674742    0.375046
     26          1           0       -4.459405    2.390050   -0.674529
     27          1           0       -2.930357    2.128415   -1.505889
     28          1           0       -1.700280    3.210295    0.405425
     29          1           0       -3.238015    3.473417    1.241508
     30          1           0       -2.902386    4.316744   -0.280156
     31          6           0       -3.837276   -0.312519   -0.542751
     32          6           0       -3.671989   -1.648821    0.181791
     33          6           0       -4.289525   -2.817947   -0.586057
     34          1           0       -4.907054   -0.121397   -0.705360
     35          1           0       -3.377587   -0.383019   -1.538071
     36          1           0       -4.131956   -1.575070    1.175574
     37          1           0       -2.602908   -1.836706    0.344214
     38          1           0       -3.824298   -2.920072   -1.571823
     39          1           0       -5.362034   -2.656950   -0.735739
     40          1           0       -4.159927   -3.763399   -0.050159
 ---------------------------------------------------------------------

 SCF Done:  E(RHF) =  -470.732975645     A.U. after   11 cycles
 E2 =    -0.1583217859D+01 EUMP2 =    -0.47231619350401D+03

 The electronic state is 1-A.
 Alpha  occ. eigenvalues --  -11.21661 -11.21623 -11.21596 -11.21580 -11.21440
 Alpha  occ. eigenvalues --  -11.21380 -11.21373 -11.21295 -11.21103 -11.21088
 Alpha  occ. eigenvalues --  -11.21068 -11.21068  -1.08471  -1.08409  -1.03571
 Alpha  occ. eigenvalues --   -1.03519  -0.96026  -0.95960  -0.87040  -0.86983
 Alpha  occ. eigenvalues --   -0.79645  -0.79578  -0.78284  -0.78215  -0.65127
 Alpha  occ. eigenvalues --   -0.65041  -0.60993  -0.60912  -0.59447  -0.59284
 Alpha  occ. eigenvalues --   -0.57639  -0.57571  -0.55349  -0.55209  -0.52808
 Alpha  occ. eigenvalues --   -0.52613  -0.52448  -0.52386  -0.49996  -0.49877
 Alpha  occ. eigenvalues --   -0.48022  -0.47850  -0.46688  -0.46598  -0.45820
 Alpha  occ. eigenvalues --   -0.45767  -0.45739  -0.45657  -0.43793  -0.43707
 Alpha virt. eigenvalues --    0.20941   0.23116   0.23915   0.24169   0.26243
 Alpha virt. eigenvalues --    0.26652   0.27075   0.27429   0.27898   0.28957
 Alpha virt. eigenvalues --    0.30316   0.31544   0.31681   0.31898   0.32005

 Mulliken charges:
               1
     1  C   -0.298250
     2  C   -0.299687
     3  C   -0.475728
     4  H    0.149700
     5  H    0.149487
     6  H    0.152006
     7  H    0.152033
     8  H    0.155205
     9  H    0.155200
    10  H    0.160356
    11  C   -0.298648
    12  C   -0.299599
    13  C   -0.485836
    14  H    0.149814
    15  H    0.149807
    16  H    0.152063
    17  H    0.151475
    18  H    0.155892
    19  H    0.155808
    20  H    0.169153
    21  C   -0.304465
    22  C   -0.299369
    23  C   -0.475541
    24  H    0.149430
    25  H    0.156786
    26  H    0.151823
    27  H    0.151577
    28  H    0.154578
    29  H    0.155279
    30  H    0.160131
    31  C   -0.297821
    32  C   -0.307307
    33  C   -0.475143
    34  H    0.149528
    35  H    0.149170
    36  H    0.152354
    37  H    0.158146
    38  H    0.155055
    39  H    0.155293
    40  H    0.160244
 Sum of Mulliken charges =  -0.00000

 Dipole moment (field-independent basis, Debye):
    X=              0.0177    Y=             -0.0127    Z=              0.0168  Tot=              0.0275
 Quadrupole moment (field-independent basis, Debye-Ang):
   XX=            -84.8715   YY=            -84.7320   ZZ=            -85.1859
   XY=             -0.8501   XZ=             -0.0001   YZ=             -0.4285

 Normal termination of Gaussian 16 at Thu May  6 05:25:26 2021.
