 Gaussian 16, Revision A.03,
 Gaussian 16:  EM64L-G16RevA.03 25-Dec-2016

 -------------
 #p 6-31g* mp2
 -------------

 ------------------------------------------------------
 Input file generated by CHIRIPA (05-May-2021 14:53:11)
 ------------------------------------------------------
 Symbolic Z-matrix:
 Charge =  0 Multiplicity = 1

                         Standard orientation:
 ---------------------------------------------------------------------
 Center     Atomic      Atomic             Coordinates (Angstroms)
 Number     Number       Type             X           Y           Z
 ---------------------------------------------------------------------
      1          6           0       -3.189403    0.795611    0.189690
      2          6           0       -2.451666    1.866347   -0.614833
      3          6           0       -1.154041    2.319652    0.054852
      4          1           0       -3.409745    1.186376    1.192534
      5          1           0       -2.526495   -0.069412    0.329987
      6          1           0       -3.116250    2.728533   -0.754757
      7          1           0       -2.233224    1.473056   -1.615943
      8          1           0       -0.469554    1.474451    0.180204
      9          1           0       -1.357597    2.737061    1.046283
     10          1           0       -0.642912    3.085239   -0.537165
     11          6           0       -4.488583    0.332254   -0.466936
     12          6           0       -5.226320   -0.738481    0.337586
     13          6           0       -6.523945   -1.191787   -0.332098
     14          1           0       -5.151491    1.197278   -0.607233
     15          1           0       -4.268241   -0.058511   -1.469780
     16          1           0       -5.444762   -0.345191    1.338696
     17          1           0       -4.561736   -1.600668    0.477510
     18          1           0       -6.320388   -1.609196   -1.323529
     19          1           0       -7.208432   -0.346586   -0.457450
     20          1           0       -7.035074   -1.957374    0.259919
     21          6           0        5.088961    0.865313   -0.433495
     22          6           0        4.163107    1.374676    0.482946
     23          6           0        3.001779    0.659742    0.790738
     24          6           0        2.797184   -0.566821    0.160678
     25          6           0        3.700792   -1.100866   -0.756697
     26          6           0        4.855260   -0.368657   -1.049307
     27          1           0        5.988444    1.427400   -0.666698
     28          1           0        4.341989    2.332727    0.962719
     29          1           0        2.268387    1.030643    1.496419
     30          1           0        3.494945   -2.058699   -1.218869
     31          1           0        5.572548   -0.766692   -1.761424
     32          7           0        1.571369   -1.332833    0.478487
     33          8           0        1.414362   -2.411073   -0.090183
     34          8           0        0.790795   -0.840489    1.290236
 ---------------------------------------------------------------------

 SCF Done:  E(RHF) =  -669.536560200     A.U. after   15 cycles
 E2 =    -0.2091410441D+01 EUMP2 =    -0.67162797064032D+03

 The electronic state is 1-A.
 Alpha  occ. eigenvalues --  -20.61015 -20.61008 -15.86018 -11.31288 -11.27851
 Alpha  occ. eigenvalues --  -11.27834 -11.27581 -11.26849 -11.26833 -11.20902
 Alpha  occ. eigenvalues --  -11.20837 -11.20608 -11.20446 -11.20406 -11.20377
 Alpha  occ. eigenvalues --   -1.60062  -1.39620  -1.19455  -1.08871  -1.07631
 Alpha  occ. eigenvalues --   -1.04842  -1.02806  -0.95721  -0.95258  -0.86293
 Alpha  occ. eigenvalues --   -0.86239  -0.82554  -0.78876  -0.77619  -0.77410
 Alpha  occ. eigenvalues --   -0.72244  -0.71369  -0.70564  -0.65113  -0.64847
 Alpha  occ. eigenvalues --   -0.64255  -0.62191  -0.60204  -0.58631  -0.56865
 Alpha  occ. eigenvalues --   -0.55354  -0.54541  -0.53177  -0.52935  -0.52001
 Alpha  occ. eigenvalues --   -0.51684  -0.49267  -0.49002  -0.48942  -0.47202
 Alpha  occ. eigenvalues --   -0.45945  -0.45140  -0.44967  -0.44649  -0.43047
 Alpha  occ. eigenvalues --   -0.37433  -0.36437
 Alpha virt. eigenvalues --    0.04874   0.11174   0.16345   0.21278   0.23672
 Alpha virt. eigenvalues --    0.24957   0.26883   0.27462   0.27781   0.28483
 Alpha virt. eigenvalues --    0.28922   0.30677   0.31728   0.32261   0.32531

 Mulliken charges:
               1
     1  C   -0.302478
     2  C   -0.297800
     3  C   -0.484447
     4  H    0.147378
     5  H    0.166497
     6  H    0.147804
     7  H    0.149898
     8  H    0.167802
     9  H    0.152337
    10  H    0.151693
    11  C   -0.297859
    12  C   -0.300010
    13  C   -0.475322
    14  H    0.145660
    15  H    0.148599
    16  H    0.150673
    17  H    0.157110
    18  H    0.154515
    19  H    0.152851
    20  H    0.159048
    21  C   -0.170422
    22  C   -0.218729
    23  C   -0.170793
    24  C    0.158031
    25  C   -0.170819
    26  C   -0.218621
    27  H    0.226018
    28  H    0.224205
    29  H    0.277653
    30  H    0.275609
    31  H    0.223755
    32  N    0.487820
    33  O   -0.458478
    34  O   -0.459176
 Sum of Mulliken charges =  -0.00000

 Dipole moment (field-independent basis, Debye):
    X=              4.5432    Y=              2.5057    Z=             -1.0497  Tot=              5.2935
 Quadrupole moment (field-independent basis, Debye-Ang):
   XX=            -72.0133   YY=            -95.7204   ZZ=            -93.5855
   XY=              3.6694   XZ=             -4.3956   YZ=              4.0554

 Normal termination of Gaussian 16 at Thu May  6 00:54:04 2021.
