 Gaussian 16, Revision A.03,
 Gaussian 16:  EM64L-G16RevA.03 25-Dec-2016

 -------------
 #p 6-31g* mp2
 -------------

 ------------------------------------------------------
 Input file generated by CHIRIPA (05-May-2021 14:57:26)
 ------------------------------------------------------
 Symbolic Z-matrix:
 Charge =  0 Multiplicity = 1

                         Standard orientation:
 ---------------------------------------------------------------------
 Center     Atomic      Atomic             Coordinates (Angstroms)
 Number     Number       Type             X           Y           Z
 ---------------------------------------------------------------------
      1          6           0        6.358509    0.913502    0.142210
      2          6           0        5.495447    1.297543   -0.889371
      3          6           0        4.193612    0.791637   -0.951272
      4          6           0        3.786007   -0.100379    0.039412
      5          6           0        4.622351   -0.502126    1.079805
      6          6           0        5.919979    0.016474    1.121778
      7          1           0        7.368172    1.311433    0.182556
      8          1           0        5.833304    1.994028   -1.651477
      9          1           0        3.504682    1.072080   -1.738766
     10          1           0        4.256992   -1.198088    1.825169
     11          1           0        6.588067   -0.283545    1.924083
     12          7           0        2.410039   -0.642679   -0.015571
     13          8           0        2.075057   -1.427135    0.869331
     14          8           0        1.692592   -0.273009   -0.942529
     15          6           0       -5.970234    1.466215    0.597020
     16          6           0       -6.142345    0.085784    0.451033
     17          6           0       -5.064837   -0.730205    0.093702
     18          6           0       -3.823544   -0.129683   -0.110878
     19          6           0       -3.620296    1.242545    0.026849
     20          6           0       -4.711977    2.039179    0.384836
     21          1           0       -6.812772    2.092577    0.874858
     22          1           0       -7.118383   -0.361930    0.615187
     23          1           0       -5.170047   -1.801649   -0.026129
     24          1           0       -2.635307    1.659940   -0.143437
     25          1           0       -4.575375    3.110949    0.497497
     26          7           0       -2.675332   -0.983290   -0.489515
     27          8           0       -1.591903   -0.429822   -0.664138
     28          8           0       -2.880534   -2.189651   -0.604500
 ---------------------------------------------------------------------

 SCF Done:  E(RHF) =  -868.334186844     A.U. after   16 cycles
 E2 =    -0.2600619830D+01 EUMP2 =    -0.87093480667358D+03

 The electronic state is 1-A.
 Alpha  occ. eigenvalues --  -20.59649 -20.59594 -20.59439 -20.59337 -15.84704
 Alpha  occ. eigenvalues --  -15.84453 -11.30491 -11.30284 -11.27111 -11.27108
 Alpha  occ. eigenvalues --  -11.26933 -11.26920 -11.26901 -11.26754 -11.26224
 Alpha  occ. eigenvalues --  -11.26214 -11.26041 -11.26031  -1.58690  -1.58469
 Alpha  occ. eigenvalues --   -1.38240  -1.38008  -1.18704  -1.18507  -1.08018
 Alpha  occ. eigenvalues --   -1.07817  -1.04170  -1.03979  -0.94782  -0.94563
 Alpha  occ. eigenvalues --   -0.85548  -0.85355  -0.81619  -0.81390  -0.76590
 Alpha  occ. eigenvalues --   -0.76368  -0.70974  -0.70553  -0.70054  -0.69829
 Alpha  occ. eigenvalues --   -0.69807  -0.69613  -0.64346  -0.64183  -0.64134
 Alpha  occ. eigenvalues --   -0.63990  -0.61513  -0.61322  -0.54657  -0.54474
 Alpha  occ. eigenvalues --   -0.52478  -0.52285  -0.52268  -0.52080  -0.47819
 Alpha  occ. eigenvalues --   -0.47645  -0.47424  -0.47181  -0.43562  -0.43311
 Alpha  occ. eigenvalues --   -0.36711  -0.36517  -0.35795  -0.35605
 Alpha virt. eigenvalues --    0.05947   0.06176   0.11853   0.12043   0.17366
 Alpha virt. eigenvalues --    0.17585   0.21938   0.22110   0.27819   0.27986
 Alpha virt. eigenvalues --    0.28866   0.29051   0.31459   0.31625   0.33124

 Mulliken charges:
               1
     1  C   -0.172284
     2  C   -0.218574
     3  C   -0.172057
     4  C    0.159144
     5  C   -0.171827
     6  C   -0.218524
     7  H    0.222897
     8  H    0.220983
     9  H    0.275483
    10  H    0.275110
    11  H    0.221165
    12  N    0.486129
    13  O   -0.459847
    14  O   -0.447224
    15  C   -0.172379
    16  C   -0.218578
    17  C   -0.171684
    18  C    0.159453
    19  C   -0.171654
    20  C   -0.218651
    21  H    0.222146
    22  H    0.220537
    23  H    0.274690
    24  H    0.276831
    25  H    0.220160
    26  N    0.486939
    27  O   -0.443401
    28  O   -0.464983
 Sum of Mulliken charges =  -0.00000

 Dipole moment (field-independent basis, Debye):
    X=              0.8838    Y=              4.8294    Z=              1.4131  Tot=              5.1089
 Quadrupole moment (field-independent basis, Debye-Ang):
   XX=            -39.7666   YY=           -102.5238   ZZ=           -102.8586
   XY=             -2.0304   XZ=             -3.0356   YZ=             -3.1569

 Normal termination of Gaussian 16 at Fri May  7 01:59:51 2021.
