 Gaussian 16, Revision A.03,
 Gaussian 16:  EM64L-G16RevA.03 25-Dec-2016

 -------------
 #p 6-31g* mp2
 -------------

 ------------------------------------------------------
 Input file generated by CHIRIPA (05-May-2021 14:53:15)
 ------------------------------------------------------
 Symbolic Z-matrix:
 Charge =  0 Multiplicity = 1

                         Standard orientation:
 ---------------------------------------------------------------------
 Center     Atomic      Atomic             Coordinates (Angstroms)
 Number     Number       Type             X           Y           Z
 ---------------------------------------------------------------------
      1          6           0       -4.140447    0.776729    0.018019
      2          6           0       -2.835835    1.505715   -0.305328
      3          6           0       -2.911091    3.006236   -0.021484
      4          1           0       -4.956533    1.221656   -0.567634
      5          1           0       -4.390403    0.938681    1.075699
      6          1           0       -2.587690    1.341292   -1.361740
      7          1           0       -2.022726    1.058876    0.281019
      8          1           0       -3.134650    3.187763    1.034769
      9          1           0       -3.702825    3.471784   -0.617323
     10          1           0       -1.967860    3.507679   -0.259666
     11          6           0       -4.080859   -0.724139   -0.260497
     12          6           0       -5.385470   -1.453125    0.062850
     13          6           0       -5.310215   -2.953646   -0.220995
     14          1           0       -3.830903   -0.886091   -1.318178
     15          1           0       -3.264773   -1.169066    0.325155
     16          1           0       -6.198580   -1.006285   -0.523498
     17          1           0       -5.633615   -1.288702    1.119261
     18          1           0       -4.518481   -3.419193    0.374844
     19          1           0       -5.086655   -3.135172   -1.277248
     20          1           0       -6.253446   -3.455088    0.017188
     21          6           0        1.088104    1.187383    0.725788
     22          6           0        1.642312    1.364038   -0.546283
     23          6           0        2.818479    0.699816   -0.906821
     24          6           0        3.416724   -0.137321    0.033709
     25          6           0        2.888951   -0.333889    1.308897
     26          6           0        1.712092    0.340477    1.647694
     27          1           0        0.174161    1.707307    0.997418
     28          1           0        1.159884    2.021141   -1.264282
     29          1           0        3.269057    0.818433   -1.884741
     30          1           0        3.392713   -0.995410    2.003182
     31          1           0        1.283943    0.201382    2.636322
     32          7           0        4.662247   -0.845872   -0.336468
     33          8           0        5.170007   -1.577913    0.510250
     34          8           0        5.107141   -0.655778   -1.466321
 ---------------------------------------------------------------------

 SCF Done:  E(RHF) =  -669.535382463     A.U. after   15 cycles
 E2 =    -0.2091425848D+01 EUMP2 =    -0.67162680831133D+03

 The electronic state is 1-A.
 Alpha  occ. eigenvalues --  -20.60745 -20.60740 -15.85799 -11.31164 -11.27734
 Alpha  occ. eigenvalues --  -11.27727 -11.27438 -11.26748 -11.26735 -11.22679
 Alpha  occ. eigenvalues --  -11.22216 -11.22198 -11.22116 -11.22003 -11.21475
 Alpha  occ. eigenvalues --   -1.59821  -1.39374  -1.19335  -1.09203  -1.08727
 Alpha  occ. eigenvalues --   -1.04738  -1.04319  -0.96751  -0.95564  -0.87760
 Alpha  occ. eigenvalues --   -0.86134  -0.82402  -0.80403  -0.78969  -0.77445
 Alpha  occ. eigenvalues --   -0.72017  -0.71144  -0.70465  -0.65834  -0.64986
 Alpha  occ. eigenvalues --   -0.64744  -0.62087  -0.61720  -0.60169  -0.58363
 Alpha  occ. eigenvalues --   -0.56045  -0.55196  -0.53461  -0.53176  -0.53059
 Alpha  occ. eigenvalues --   -0.52828  -0.50679  -0.48782  -0.48772  -0.48692
 Alpha  occ. eigenvalues --   -0.47426  -0.46509  -0.46409  -0.44780  -0.44552
 Alpha  occ. eigenvalues --   -0.37293  -0.36344
 Alpha virt. eigenvalues --    0.05059   0.11305   0.16451   0.19448   0.22518
 Alpha virt. eigenvalues --    0.23863   0.25720   0.26120   0.26818   0.27377
 Alpha virt. eigenvalues --    0.29350   0.30029   0.30834   0.31190   0.31675

 Mulliken charges:
               1
     1  C   -0.298104
     2  C   -0.304962
     3  C   -0.477925
     4  H    0.152549
     5  H    0.149935
     6  H    0.154558
     7  H    0.146179
     8  H    0.156764
     9  H    0.161789
    10  H    0.153682
    11  C   -0.298846
    12  C   -0.300278
    13  C   -0.476108
    14  H    0.151336
    15  H    0.149635
    16  H    0.152999
    17  H    0.152031
    18  H    0.155763
    19  H    0.156434
    20  H    0.161847
    21  C   -0.172695
    22  C   -0.219495
    23  C   -0.171036
    24  C    0.158586
    25  C   -0.170775
    26  C   -0.220005
    27  H    0.231431
    28  H    0.223613
    29  H    0.275486
    30  H    0.275434
    31  H    0.223114
    32  N    0.488064
    33  O   -0.460521
    34  O   -0.460480
 Sum of Mulliken charges =  -0.00000

 Dipole moment (field-independent basis, Debye):
    X=             -4.5875    Y=              2.4543    Z=              1.2628  Tot=              5.3539
 Quadrupole moment (field-independent basis, Debye-Ang):
   XX=           -124.6481   YY=            -96.3192   ZZ=            -89.7667
   XY=              8.9491   XZ=              4.9059   YZ=             -2.6979

 Normal termination of Gaussian 16 at Wed May  5 20:16:49 2021.
