 Gaussian 16, Revision A.03,
 Gaussian 16:  EM64L-G16RevA.03 25-Dec-2016

 -------------
 #p 6-31g* mp2
 -------------

 ------------------------------------------------------
 Input file generated by CHIRIPA (05-May-2021 14:55:24)
 ------------------------------------------------------
 Symbolic Z-matrix:
 Charge =  0 Multiplicity = 1

                         Standard orientation:
 ---------------------------------------------------------------------
 Center     Atomic      Atomic             Coordinates (Angstroms)
 Number     Number       Type             X           Y           Z
 ---------------------------------------------------------------------
      1          6           0       -2.636691    2.372919    0.845193
      2          6           0       -3.709690    1.758003    0.191686
      3          6           0       -3.609081    0.434737   -0.248077
      4          6           0       -2.415416   -0.247104   -0.016670
      5          6           0       -1.328751    0.337984    0.631496
      6          6           0       -1.451734    1.662200    1.062629
      7          1           0       -2.723537    3.401233    1.183459
      8          1           0       -4.631151    2.307528    0.021456
      9          1           0       -4.424223   -0.065636   -0.756594
     10          1           0       -0.422924   -0.235408    0.786795
     11          1           0       -0.616800    2.137202    1.569880
     12          7           0       -2.297062   -1.648489   -0.477660
     13          8           0       -1.234695   -2.227580   -0.261637
     14          8           0       -3.268906   -2.141270   -1.046277
     15          6           0        2.887037    0.609444   -0.504884
     16          6           0        3.594392    1.921180   -0.162856
     17          6           0        3.124228    3.089781   -1.029522
     18          1           0        3.057322    0.373840   -1.564336
     19          1           0        1.803045    0.743353   -0.384770
     20          1           0        4.676826    1.784434   -0.282244
     21          1           0        3.422563    2.153590    0.895953
     22          1           0        2.049281    3.254766   -0.903542
     23          1           0        3.310672    2.883514   -2.088434
     24          1           0        3.642774    4.017502   -0.768175
     25          6           0        3.346366   -0.568129    0.353059
     26          6           0        2.639010   -1.879865    0.011031
     27          6           0        3.109173   -3.048466    0.877698
     28          1           0        4.430356   -0.702037    0.232946
     29          1           0        3.176081   -0.332526    1.412512
     30          1           0        2.810839   -2.112274   -1.047777
     31          1           0        1.556575   -1.743120    0.130420
     32          1           0        2.922731   -2.842199    1.936610
     33          1           0        4.184120   -3.213451    0.751718
     34          1           0        2.590628   -3.976188    0.616350
 ---------------------------------------------------------------------

 SCF Done:  E(RHF) =  -669.535656059     A.U. after   15 cycles
 E2 =    -0.2092797798D+01 EUMP2 =    -0.67162845385617D+03

 The electronic state is 1-A.
 Alpha  occ. eigenvalues --  -20.60893 -20.60887 -15.85934 -11.31278 -11.27847
 Alpha  occ. eigenvalues --  -11.27844 -11.27584 -11.26865 -11.26852 -11.21891
 Alpha  occ. eigenvalues --  -11.21571 -11.21405 -11.21332 -11.21089 -11.20577
 Alpha  occ. eigenvalues --   -1.59959  -1.39515  -1.19453  -1.08849  -1.08461
 Alpha  occ. eigenvalues --   -1.04855  -1.03459  -0.95941  -0.95690  -0.86960
 Alpha  occ. eigenvalues --   -0.86253  -0.82525  -0.79556  -0.78248  -0.77540
 Alpha  occ. eigenvalues --   -0.72160  -0.71274  -0.70566  -0.65181  -0.65110
 Alpha  occ. eigenvalues --   -0.64821  -0.62196  -0.60864  -0.59325  -0.57504
 Alpha  occ. eigenvalues --   -0.55366  -0.55251  -0.53180  -0.52954  -0.52597
 Alpha  occ. eigenvalues --   -0.52350  -0.49926  -0.48950  -0.48907  -0.47832
 Alpha  occ. eigenvalues --   -0.46617  -0.45744  -0.45640  -0.44887  -0.43735
 Alpha  occ. eigenvalues --   -0.37427  -0.36442
 Alpha virt. eigenvalues --    0.04920   0.11165   0.16368   0.19584   0.23099
 Alpha virt. eigenvalues --    0.23721   0.25538   0.27046   0.27764   0.27987
 Alpha virt. eigenvalues --    0.29604   0.30647   0.31642   0.31786   0.32265

 Mulliken charges:
               1
     1  C   -0.170181
     2  C   -0.218689
     3  C   -0.170070
     4  C    0.155566
     5  C   -0.171641
     6  C   -0.222320
     7  H    0.226190
     8  H    0.223918
     9  H    0.275935
    10  H    0.283830
    11  H    0.224748
    12  N    0.491457
    13  O   -0.465611
    14  O   -0.459409
    15  C   -0.299603
    16  C   -0.299216
    17  C   -0.475234
    18  H    0.154163
    19  H    0.141774
    20  H    0.154685
    21  H    0.147003
    22  H    0.150830
    23  H    0.158133
    24  H    0.160027
    25  C   -0.299198
    26  C   -0.313168
    27  C   -0.474914
    28  H    0.150257
    29  H    0.143514
    30  H    0.154220
    31  H    0.172018
    32  H    0.151201
    33  H    0.151784
    34  H    0.168000
 Sum of Mulliken charges =  -0.00000

 Dipole moment (field-independent basis, Debye):
    X=             -0.5239    Y=              4.8058    Z=              1.5214  Tot=              5.0681
 Quadrupole moment (field-independent basis, Debye-Ang):
   XX=            -87.9656   YY=            -98.4313   ZZ=            -94.7741
   XY=            -12.3241   XZ=             -2.9909   YZ=              0.2287

 Normal termination of Gaussian 16 at Wed May  5 23:59:36 2021.
