 Gaussian 16, Revision A.03,
 Gaussian 16:  EM64L-G16RevA.03 25-Dec-2016

 -------------
 #p 6-31g* mp2
 -------------

 ------------------------------------------------------
 Input file generated by CHIRIPA (05-May-2021 14:55:25)
 ------------------------------------------------------
 Symbolic Z-matrix:
 Charge =  0 Multiplicity = 1

                         Standard orientation:
 ---------------------------------------------------------------------
 Center     Atomic      Atomic             Coordinates (Angstroms)
 Number     Number       Type             X           Y           Z
 ---------------------------------------------------------------------
      1          6           0       -4.629644    0.586440    0.359878
      2          6           0       -4.092885    0.529329   -0.930528
      3          6           0       -2.876526   -0.118588   -1.165522
      4          6           0       -2.220733   -0.701223   -0.082119
      5          6           0       -2.729784   -0.661201    1.215014
      6          6           0       -3.947583   -0.007960    1.426650
      7          1           0       -5.575100    1.091825    0.533354
      8          1           0       -4.620385    0.990061   -1.760899
      9          1           0       -2.438277   -0.177695   -2.154391
     10          1           0       -2.180789   -1.129818    2.022740
     11          1           0       -4.362057    0.034832    2.429858
     12          7           0       -0.932266   -1.389963   -0.318533
     13          8           0       -0.374063   -1.895383    0.652856
     14          8           0       -0.504967   -1.411335   -1.470746
     15          6           0        2.884563    1.455631    0.244744
     16          6           0        1.515032    1.821175   -0.328621
     17          6           0        1.069039    3.231306    0.059210
     18          1           0        2.852018    1.543397    1.339360
     19          1           0        3.627585    2.185504   -0.105395
     20          1           0        0.775070    1.090030    0.021378
     21          1           0        1.550787    1.732343   -1.421986
     22          1           0        1.785357    3.975414   -0.303824
     23          1           0        1.005232    3.329451    1.147740
     24          1           0        0.087588    3.471830   -0.361222
     25          6           0        3.344143    0.048910   -0.134267
     26          6           0        4.713674   -0.316636    0.439099
     27          6           0        5.159667   -1.726767    0.051268
     28          1           0        2.601121   -0.680964    0.215872
     29          1           0        3.376689   -0.038857   -1.228882
     30          1           0        4.677919   -0.227803    1.532463
     31          1           0        5.453636    0.414510    0.089100
     32          1           0        5.223474   -1.824911   -1.037262
     33          1           0        4.443350   -2.470873    0.414302
     34          1           0        6.141117   -1.967290    0.471701
 ---------------------------------------------------------------------

 SCF Done:  E(RHF) =  -669.536208440     A.U. after   15 cycles
 E2 =    -0.2092223161D+01 EUMP2 =    -0.67162843160096D+03

 The electronic state is 1-A.
 Alpha  occ. eigenvalues --  -20.60943 -20.60937 -15.85960 -11.31288 -11.27851
 Alpha  occ. eigenvalues --  -11.27844 -11.27585 -11.26852 -11.26842 -11.20939
 Alpha  occ. eigenvalues --  -11.20668 -11.20610 -11.20548 -11.20104 -11.20064
 Alpha  occ. eigenvalues --   -1.60000  -1.39553  -1.19453  -1.08860  -1.07503
 Alpha  occ. eigenvalues --   -1.04848  -1.02718  -0.95701  -0.95158  -0.86249
 Alpha  occ. eigenvalues --   -0.86179  -0.82534  -0.78797  -0.77588  -0.77253
 Alpha  occ. eigenvalues --   -0.72182  -0.71325  -0.70561  -0.65108  -0.64851
 Alpha  occ. eigenvalues --   -0.64128  -0.62195  -0.60121  -0.58556  -0.56763
 Alpha  occ. eigenvalues --   -0.55353  -0.54444  -0.53177  -0.52940  -0.51914
 Alpha  occ. eigenvalues --   -0.51576  -0.49110  -0.48946  -0.48937  -0.47112
 Alpha  occ. eigenvalues --   -0.45834  -0.45014  -0.44778  -0.44622  -0.42926
 Alpha  occ. eigenvalues --   -0.37429  -0.36446
 Alpha virt. eigenvalues --    0.04917   0.11205   0.16398   0.21337   0.23673
 Alpha virt. eigenvalues --    0.25036   0.27253   0.27361   0.27984   0.28448
 Alpha virt. eigenvalues --    0.28778   0.30958   0.32070   0.32299   0.32494

 Mulliken charges:
               1
     1  C   -0.170395
     2  C   -0.218694
     3  C   -0.170529
     4  C    0.156404
     5  C   -0.171145
     6  C   -0.218497
     7  H    0.226032
     8  H    0.223840
     9  H    0.276085
    10  H    0.275721
    11  H    0.223805
    12  N    0.489526
    13  O   -0.461446
    14  O   -0.457082
    15  C   -0.297633
    16  C   -0.297340
    17  C   -0.475053
    18  H    0.146756
    19  H    0.145505
    20  H    0.148773
    21  H    0.154957
    22  H    0.154215
    23  H    0.152955
    24  H    0.155004
    25  C   -0.304939
    26  C   -0.298917
    27  C   -0.475677
    28  H    0.170303
    29  H    0.150462
    30  H    0.149007
    31  H    0.146963
    32  H    0.154651
    33  H    0.161081
    34  H    0.155302
 Sum of Mulliken charges =  -0.00000

 Dipole moment (field-independent basis, Debye):
    X=             -4.7200    Y=              2.2421    Z=              0.7686  Tot=              5.2817
 Quadrupole moment (field-independent basis, Debye-Ang):
   XX=            -75.9244   YY=           -100.0202   ZZ=            -89.4772
   XY=             -2.1227   XZ=             -1.6317   YZ=             -2.5951

 Normal termination of Gaussian 16 at Thu May  6 11:06:19 2021.
