 Gaussian 16, Revision A.03,
 Gaussian 16:  EM64L-G16RevA.03 25-Dec-2016

 -------------
 #p 6-31g* mp2
 -------------

 ------------------------------------------------------
 Input file generated by CHIRIPA (05-May-2021 14:57:24)
 ------------------------------------------------------
 Symbolic Z-matrix:
 Charge =  0 Multiplicity = 1

                         Standard orientation:
 ---------------------------------------------------------------------
 Center     Atomic      Atomic             Coordinates (Angstroms)
 Number     Number       Type             X           Y           Z
 ---------------------------------------------------------------------
      1          6           0       -4.470805    1.593071    0.345758
      2          6           0       -4.892481    0.301141    0.014661
      3          6           0       -3.958215   -0.706635   -0.242405
      4          6           0       -2.604120   -0.386056   -0.159052
      5          6           0       -2.152673    0.891542    0.168405
      6          6           0       -3.104655    1.883637    0.421440
      7          1           0       -5.203447    2.369845    0.543888
      8          1           0       -5.952800    0.072609   -0.044850
      9          1           0       -4.257026   -1.715261   -0.500868
     10          1           0       -1.088839    1.089063    0.219981
     11          1           0       -2.774279    2.886081    0.678351
     12          7           0       -1.605677   -1.444642   -0.429063
     13          8           0       -0.418506   -1.136638   -0.349088
     14          8           0       -2.029173   -2.562321   -0.715559
     15          6           0        2.739302    2.640477   -0.567769
     16          6           0        3.202365    1.668183   -1.460371
     17          6           0        3.223148    0.319415   -1.093029
     18          6           0        2.771515   -0.023228    0.180515
     19          6           0        2.304307    0.922180    1.092222
     20          6           0        2.292539    2.265034    0.703438
     21          1           0        2.726659    3.685935   -0.861456
     22          1           0        3.549930    1.956850   -2.448255
     23          1           0        3.576475   -0.453872   -1.764300
     24          1           0        1.964181    0.603801    2.070162
     25          1           0        1.932377    3.017973    1.398715
     26          7           0        2.788746   -1.447978    0.580754
     27          8           0        2.385500   -1.723994    1.708515
     28          8           0        3.205170   -2.261702   -0.240879
 ---------------------------------------------------------------------

 SCF Done:  E(RHF) =  -868.337299045     A.U. after   16 cycles
 E2 =    -0.2602050509D+01 EUMP2 =    -0.87093934955394D+03

 The electronic state is 1-A.
 Alpha  occ. eigenvalues --  -20.60688 -20.60665 -20.59622 -20.59607 -15.85745
 Alpha  occ. eigenvalues --  -15.84699 -11.31203 -11.30448 -11.27791 -11.27771
 Alpha  occ. eigenvalues --  -11.27568 -11.27158 -11.27058 -11.27009 -11.26865
 Alpha  occ. eigenvalues --  -11.26811 -11.26357 -11.26217  -1.59732  -1.58646
 Alpha  occ. eigenvalues --   -1.39294  -1.38212  -1.19389  -1.18696  -1.08767
 Alpha  occ. eigenvalues --   -1.08018  -1.04815  -1.04202  -0.95588  -0.94792
 Alpha  occ. eigenvalues --   -0.86207  -0.85570  -0.82438  -0.81656  -0.77462
 Alpha  occ. eigenvalues --   -0.76602  -0.72071  -0.71056  -0.70954  -0.70508
 Alpha  occ. eigenvalues --   -0.69851  -0.69794  -0.65047  -0.64827  -0.64375
 Alpha  occ. eigenvalues --   -0.64240  -0.62165  -0.61550  -0.55315  -0.54723
 Alpha  occ. eigenvalues --   -0.53133  -0.52944  -0.52432  -0.52316  -0.48713
 Alpha  occ. eigenvalues --   -0.48686  -0.47719  -0.47658  -0.44701  -0.43526
 Alpha  occ. eigenvalues --   -0.37378  -0.36660  -0.36424  -0.35826
 Alpha virt. eigenvalues --    0.05093   0.06003   0.11225   0.11838   0.16564
 Alpha virt. eigenvalues --    0.17346   0.21244   0.21861   0.26996   0.27728
 Alpha virt. eigenvalues --    0.28227   0.28814   0.30718   0.31336   0.32271

 Mulliken charges:
               1
     1  C   -0.170753
     2  C   -0.218708
     3  C   -0.170049
     4  C    0.158472
     5  C   -0.173319
     6  C   -0.219346
     7  H    0.224882
     8  H    0.223771
     9  H    0.276894
    10  H    0.275099
    11  H    0.219693
    12  N    0.494264
    13  O   -0.468154
    14  O   -0.455315
    15  C   -0.173403
    16  C   -0.219049
    17  C   -0.167499
    18  C    0.176332
    19  C   -0.171779
    20  C   -0.226713
    21  H    0.220819
    22  H    0.221108
    23  H    0.276876
    24  H    0.273855
    25  H    0.216582
    26  N    0.497306
    27  O   -0.462354
    28  O   -0.459513
 Sum of Mulliken charges =  -0.00000

 Dipole moment (field-independent basis, Debye):
    X=             -3.6239    Y=              8.2798    Z=             -0.5454  Tot=              9.0546
 Quadrupole moment (field-independent basis, Debye-Ang):
   XX=            -84.3279   YY=           -107.0232   ZZ=           -102.6510
   XY=              7.3374   XZ=             -7.2599   YZ=              1.8951

 Normal termination of Gaussian 16 at Wed May  5 19:28:28 2021.
