 Gaussian 16, Revision A.03,
 Gaussian 16:  EM64L-G16RevA.03 25-Dec-2016

 -------------
 #p 6-31g* mp2
 -------------

 ------------------------------------------------------
 Input file generated by CHIRIPA (05-May-2021 14:55:24)
 ------------------------------------------------------
 Symbolic Z-matrix:
 Charge =  0 Multiplicity = 1

                         Standard orientation:
 ---------------------------------------------------------------------
 Center     Atomic      Atomic             Coordinates (Angstroms)
 Number     Number       Type             X           Y           Z
 ---------------------------------------------------------------------
      1          6           0        1.224340   -0.909053    0.486166
      2          6           0        1.539072    0.380654    0.045575
      3          6           0        2.864445    0.735654   -0.222583
      4          6           0        3.854470   -0.228333   -0.038550
      5          6           0        3.572679   -1.521487    0.399212
      6          6           0        2.240357   -1.854341    0.661270
      7          1           0        0.192059   -1.176224    0.692108
      8          1           0        0.752078    1.116828   -0.091298
      9          1           0        3.136145    1.726879   -0.564741
     10          1           0        4.378885   -2.233732    0.526325
     11          1           0        1.998872   -2.856702    1.003327
     12          7           0        5.261261    0.135767   -0.319208
     13          8           0        6.115161   -0.731752   -0.149198
     14          8           0        5.483367    1.281774   -0.703883
     15          6           0       -5.192055   -0.087641    0.248390
     16          6           0       -5.902921   -0.864595   -0.860212
     17          6           0       -7.010864   -1.773900   -0.327841
     18          1           0       -4.769343   -0.797914    0.972110
     19          1           0       -5.930329    0.514418    0.795994
     20          1           0       -5.163310   -1.463946   -1.406444
     21          1           0       -6.323824   -0.152395   -1.581480
     22          1           0       -7.770066   -1.187641    0.199904
     23          1           0       -6.602956   -2.506645    0.375934
     24          1           0       -7.505740   -2.319794   -1.137135
     25          6           0       -4.081836    0.825795   -0.268116
     26          6           0       -3.370970    1.602749    0.840486
     27          6           0       -2.263027    2.512054    0.308115
     28          1           0       -3.343561    0.223736   -0.815720
     29          1           0       -4.504548    1.536068   -0.991836
     30          1           0       -2.950066    0.890549    1.561754
     31          1           0       -4.110582    2.202101    1.386719
     32          1           0       -2.670934    3.244798   -0.395660
     33          1           0       -1.503826    1.925795   -0.219630
     34          1           0       -1.768150    3.057948    1.117409
 ---------------------------------------------------------------------

 SCF Done:  E(RHF) =  -669.535481486     A.U. after   15 cycles
 E2 =    -0.2090890132D+01 EUMP2 =    -0.67162637161757D+03

 The electronic state is 1-A.
 Alpha  occ. eigenvalues --  -20.60736 -20.60730 -15.85788 -11.31153 -11.27723
 Alpha  occ. eigenvalues --  -11.27710 -11.27468 -11.26745 -11.26699 -11.22594
 Alpha  occ. eigenvalues --  -11.22260 -11.22240 -11.22228 -11.22106 -11.21605
 Alpha  occ. eigenvalues --   -1.59811  -1.39365  -1.19324  -1.09253  -1.08722
 Alpha  occ. eigenvalues --   -1.04727  -1.04356  -0.96814  -0.95557  -0.87834
 Alpha  occ. eigenvalues --   -0.86127  -0.82388  -0.80423  -0.79034  -0.77435
 Alpha  occ. eigenvalues --   -0.72007  -0.71134  -0.70440  -0.65906  -0.64977
 Alpha  occ. eigenvalues --   -0.64750  -0.62147  -0.61696  -0.60181  -0.58400
 Alpha  occ. eigenvalues --   -0.56131  -0.55231  -0.53508  -0.53259  -0.53058
 Alpha  occ. eigenvalues --   -0.52792  -0.50743  -0.48785  -0.48762  -0.48707
 Alpha  occ. eigenvalues --   -0.47455  -0.46579  -0.46498  -0.44770  -0.44597
 Alpha  occ. eigenvalues --   -0.37311  -0.36329
 Alpha virt. eigenvalues --    0.05098   0.11316   0.16590   0.19196   0.22507
 Alpha virt. eigenvalues --    0.23791   0.25316   0.25806   0.26869   0.28295
 Alpha virt. eigenvalues --    0.28633   0.30145   0.30883   0.31451   0.31782

 Mulliken charges:
               1
     1  C   -0.173301
     2  C   -0.225769
     3  C   -0.172603
     4  C    0.159038
     5  C   -0.171342
     6  C   -0.218491
     7  H    0.224804
     8  H    0.234484
     9  H    0.276304
    10  H    0.275457
    11  H    0.223149
    12  N    0.487957
    13  O   -0.460611
    14  O   -0.460353
    15  C   -0.298495
    16  C   -0.300085
    17  C   -0.476034
    18  H    0.147972
    19  H    0.151931
    20  H    0.151328
    21  H    0.153720
    22  H    0.156483
    23  H    0.154873
    24  H    0.162127
    25  C   -0.298625
    26  C   -0.299966
    27  C   -0.481122
    28  H    0.145944
    29  H    0.153015
    30  H    0.148675
    31  H    0.157077
    32  H    0.161857
    33  H    0.146791
    34  H    0.163811
 Sum of Mulliken charges =  -0.00000

 Dipole moment (field-independent basis, Debye):
    X=             -5.2021    Y=             -1.2153    Z=              0.9942  Tot=              5.4339
 Quadrupole moment (field-independent basis, Debye-Ang):
   XX=           -132.3907   YY=            -89.6113   ZZ=            -95.3980
   XY=             -6.7308   XZ=              4.7235   YZ=             -1.4445

 Normal termination of Gaussian 16 at Thu May  6 14:21:16 2021.
