 Gaussian 16, Revision A.03,
 Gaussian 16:  EM64L-G16RevA.03 25-Dec-2016

 -------------
 #p 6-31g* mp2
 -------------

 ------------------------------------------------------
 Input file generated by CHIRIPA (05-May-2021 14:53:16)
 ------------------------------------------------------
 Symbolic Z-matrix:
 Charge =  0 Multiplicity = 1

                         Standard orientation:
 ---------------------------------------------------------------------
 Center     Atomic      Atomic             Coordinates (Angstroms)
 Number     Number       Type             X           Y           Z
 ---------------------------------------------------------------------
      1          6           0       -4.405302   -0.283838    0.184813
      2          6           0       -5.912494   -0.329273    0.438375
      3          6           0       -6.401276   -1.718658    0.848859
      4          1           0       -4.149654   -1.010318   -0.598652
      5          1           0       -3.877797   -0.605477    1.093483
      6          1           0       -6.436963   -0.006320   -0.470058
      7          1           0       -6.164611    0.397535    1.221192
      8          1           0       -5.904473   -2.045834    1.767958
      9          1           0       -6.178373   -2.451983    0.067099
     10          1           0       -7.481413   -1.728394    1.025125
     11          6           0       -3.901557    1.098505   -0.226400
     12          6           0       -2.394365    1.143940   -0.479962
     13          6           0       -1.905583    2.533324   -0.890446
     14          1           0       -4.429062    1.420144   -1.135070
     15          1           0       -4.157205    1.824984    0.557065
     16          1           0       -2.142249    0.417132   -1.262779
     17          1           0       -1.869896    0.820987    0.428471
     18          1           0       -2.128486    3.266650   -0.108686
     19          1           0       -2.402386    2.860501   -1.809545
     20          1           0       -0.825446    2.543061   -1.066712
     21          6           0        5.485638    0.587207    0.740851
     22          6           0        4.323631    1.332826    0.965151
     23          6           0        3.076698    0.841016    0.567872
     24          6           0        3.028238   -0.405763   -0.053807
     25          6           0        4.168068   -1.172386   -0.291225
     26          6           0        5.404292   -0.660820    0.114484
     27          1           0        6.450126    0.976930    1.052741
     28          1           0        4.383791    2.302368    1.451375
     29          1           0        2.161310    1.397298    0.729215
     30          1           0        4.076339   -2.135618   -0.778243
     31          1           0        6.305067   -1.242073   -0.060999
     32          7           0        1.713834   -0.936878   -0.478851
     33          8           0        1.697953   -2.038039   -1.024587
     34          8           0        0.724375   -0.241948   -0.258214
 ---------------------------------------------------------------------

 SCF Done:  E(RHF) =  -669.535693287     A.U. after   15 cycles
 E2 =    -0.2091381805D+01 EUMP2 =    -0.67162707509158D+03

 The electronic state is 1-A.
 Alpha  occ. eigenvalues --  -20.60917 -20.60909 -15.85951 -11.31285 -11.27852
 Alpha  occ. eigenvalues --  -11.27848 -11.27590 -11.26861 -11.26851 -11.20815
 Alpha  occ. eigenvalues --  -11.20387 -11.20374 -11.20258 -11.20041 -11.19974
 Alpha  occ. eigenvalues --   -1.59982  -1.39538  -1.19456  -1.08858  -1.07365
 Alpha  occ. eigenvalues --   -1.04854  -1.02478  -0.95701  -0.94997  -0.86254
 Alpha  occ. eigenvalues --   -0.86026  -0.82537  -0.78545  -0.77599  -0.77091
 Alpha  occ. eigenvalues --   -0.72166  -0.71297  -0.70565  -0.65112  -0.64857
 Alpha  occ. eigenvalues --   -0.64011  -0.62202  -0.59890  -0.58353  -0.56548
 Alpha  occ. eigenvalues --   -0.55357  -0.54322  -0.53186  -0.52946  -0.51716
 Alpha  occ. eigenvalues --   -0.51411  -0.48987  -0.48958  -0.48919  -0.46824
 Alpha  occ. eigenvalues --   -0.45588  -0.44960  -0.44642  -0.44539  -0.42745
 Alpha  occ. eigenvalues --   -0.37436  -0.36457
 Alpha virt. eigenvalues --    0.04929   0.11197   0.16415   0.21184   0.23798
 Alpha virt. eigenvalues --    0.24919   0.27116   0.27644   0.27809   0.28726
 Alpha virt. eigenvalues --    0.29100   0.30722   0.31763   0.32359   0.32797

 Mulliken charges:
               1
     1  C   -0.297105
     2  C   -0.298774
     3  C   -0.475038
     4  H    0.152501
     5  H    0.149902
     6  H    0.150077
     7  H    0.149202
     8  H    0.154450
     9  H    0.155585
    10  H    0.157200
    11  C   -0.299308
    12  C   -0.293639
    13  C   -0.477403
    14  H    0.144953
    15  H    0.143562
    16  H    0.162420
    17  H    0.159926
    18  H    0.146851
    19  H    0.150274
    20  H    0.160728
    21  C   -0.170640
    22  C   -0.218530
    23  C   -0.171203
    24  C    0.157388
    25  C   -0.170616
    26  C   -0.218572
    27  H    0.225974
    28  H    0.223924
    29  H    0.275938
    30  H    0.275822
    31  H    0.223777
    32  N    0.494979
    33  O   -0.459324
    34  O   -0.465279
 Sum of Mulliken charges =  -0.00000

 Dipole moment (field-independent basis, Debye):
    X=              4.9500    Y=              1.7027    Z=              1.4739  Tot=              5.4382
 Quadrupole moment (field-independent basis, Debye-Ang):
   XX=            -67.7483   YY=            -94.5834   ZZ=            -94.2658
   XY=              1.7592   XZ=              3.9605   YZ=              1.7189

 Normal termination of Gaussian 16 at Wed May  5 20:21:35 2021.
