 Gaussian 16, Revision A.03,
 Gaussian 16:  EM64L-G16RevA.03 25-Dec-2016

 -------------
 #p 6-31g* mp2
 -------------

 ------------------------------------------------------
 Input file generated by CHIRIPA (05-May-2021 14:53:11)
 ------------------------------------------------------
 Symbolic Z-matrix:
 Charge =  0 Multiplicity = 1

                         Standard orientation:
 ---------------------------------------------------------------------
 Center     Atomic      Atomic             Coordinates (Angstroms)
 Number     Number       Type             X           Y           Z
 ---------------------------------------------------------------------
      1          6           0        2.928278    0.058241    0.880657
      2          6           0        2.100151   -1.206216    1.111610
      3          6           0        0.889333   -0.963405    2.013141
      4          1           0        3.264069    0.451121    1.850107
      5          1           0        2.287380    0.831584    0.435029
      6          1           0        2.742761   -1.977400    1.555394
      7          1           0        1.766453   -1.596239    0.141485
      8          1           0        0.225230   -0.212855    1.572412
      9          1           0        1.207085   -0.596181    2.994354
     10          1           0        0.311497   -1.880425    2.164929
     11          6           0        4.142182   -0.168459   -0.018661
     12          6           0        4.970310    1.095998   -0.249614
     13          6           0        6.181127    0.853187   -1.151145
     14          1           0        4.783080   -0.941802    0.426967
     15          1           0        3.806391   -0.561339   -0.988112
     16          1           0        5.304008    1.486021    0.720511
     17          1           0        4.327699    1.867181   -0.693398
     18          1           0        5.863375    0.485963   -2.132359
     19          1           0        6.845231    0.102636   -0.710416
     20          1           0        6.758964    1.770207   -1.302933
     21          6           0       -3.972212    2.151066    0.339560
     22          6           0       -4.634951    0.919926    0.379456
     23          6           0       -3.974230   -0.254496    0.006995
     24          6           0       -2.644890   -0.160741   -0.402096
     25          6           0       -1.957385    1.050903   -0.452557
     26          6           0       -2.637896    2.212517   -0.075587
     27          1           0       -4.493163    3.058411    0.630648
     28          1           0       -5.671192    0.869194    0.701446
     29          1           0       -4.463299   -1.220814    0.028432
     30          1           0       -0.924339    1.069773   -0.777946
     31          1           0       -2.120689    3.167252   -0.107561
     32          7           0       -1.934939   -1.397269   -0.798791
     33          8           0       -0.763848   -1.287905   -1.155476
     34          8           0       -2.563011   -2.452411   -0.745524
 ---------------------------------------------------------------------

 SCF Done:  E(RHF) =  -669.536129662     A.U. after   15 cycles
 E2 =    -0.2092697700D+01 EUMP2 =    -0.67162882736169D+03

 The electronic state is 1-A.
 Alpha  occ. eigenvalues --  -20.60958 -20.60949 -15.85977 -11.31300 -11.27861
 Alpha  occ. eigenvalues --  -11.27846 -11.27585 -11.26866 -11.26856 -11.21275
 Alpha  occ. eigenvalues --  -11.20891 -11.20828 -11.20775 -11.20599 -11.20381
 Alpha  occ. eigenvalues --   -1.60005  -1.39565  -1.19462  -1.08864  -1.07870
 Alpha  occ. eigenvalues --   -1.04860  -1.02947  -0.95715  -0.95444  -0.86480
 Alpha  occ. eigenvalues --   -0.86256  -0.82549  -0.79031  -0.77670  -0.77603
 Alpha  occ. eigenvalues --   -0.72217  -0.71322  -0.70571  -0.65129  -0.64866
 Alpha  occ. eigenvalues --   -0.64479  -0.62214  -0.60317  -0.58821  -0.57041
 Alpha  occ. eigenvalues --   -0.55363  -0.54757  -0.53190  -0.52951  -0.52143
 Alpha  occ. eigenvalues --   -0.51871  -0.49429  -0.48961  -0.48959  -0.47358
 Alpha  occ. eigenvalues --   -0.46044  -0.45276  -0.45148  -0.44817  -0.43225
 Alpha  occ. eigenvalues --   -0.37424  -0.36447
 Alpha virt. eigenvalues --    0.04899   0.11090   0.16384   0.20806   0.23124
 Alpha virt. eigenvalues --    0.24432   0.26385   0.27501   0.28095   0.28360
 Alpha virt. eigenvalues --    0.28841   0.30812   0.31529   0.32301   0.32385

 Mulliken charges:
               1
     1  C   -0.295787
     2  C   -0.305886
     3  C   -0.474789
     4  H    0.145523
     5  H    0.141074
     6  H    0.147997
     7  H    0.177853
     8  H    0.147153
     9  H    0.148520
    10  H    0.163124
    11  C   -0.298881
    12  C   -0.298646
    13  C   -0.475474
    14  H    0.149387
    15  H    0.154157
    16  H    0.150201
    17  H    0.148526
    18  H    0.156027
    19  H    0.155308
    20  H    0.158166
    21  C   -0.170532
    22  C   -0.218245
    23  C   -0.170639
    24  C    0.159977
    25  C   -0.171884
    26  C   -0.218899
    27  H    0.226113
    28  H    0.223928
    29  H    0.275861
    30  H    0.276079
    31  H    0.224164
    32  N    0.490903
    33  O   -0.461634
    34  O   -0.458747
 Sum of Mulliken charges =  -0.00000

 Dipole moment (field-independent basis, Debye):
    X=             -2.6977    Y=              4.2056    Z=              1.2467  Tot=              5.1497
 Quadrupole moment (field-independent basis, Debye-Ang):
   XX=            -79.0183   YY=            -94.9692   ZZ=            -96.6755
   XY=             -9.2899   XZ=             -2.8966   YZ=             -2.6566

 Normal termination of Gaussian 16 at Wed May  5 15:26:51 2021.
