 Gaussian 16, Revision A.03,
 Gaussian 16:  EM64L-G16RevA.03 25-Dec-2016

 -------------
 #p 6-31g* mp2
 -------------

 ------------------------------------------------------
 Input file generated by CHIRIPA (05-May-2021 14:55:21)
 ------------------------------------------------------
 Symbolic Z-matrix:
 Charge =  0 Multiplicity = 1

                         Standard orientation:
 ---------------------------------------------------------------------
 Center     Atomic      Atomic             Coordinates (Angstroms)
 Number     Number       Type             X           Y           Z
 ---------------------------------------------------------------------
      1          6           0        3.764858    2.466270    0.438212
      2          6           0        4.676010    1.411227    0.553140
      3          6           0        4.308360    0.112659    0.188308
      4          6           0        3.015598   -0.095950   -0.289749
      5          6           0        2.085145    0.934419   -0.415796
      6          6           0        2.474609    2.224924   -0.045037
      7          1           0        4.058930    3.471897    0.723925
      8          1           0        5.678705    1.595714    0.928121
      9          1           0        4.993758   -0.722471    0.267097
     10          1           0        1.092679    0.719473   -0.792925
     11          1           0        1.764901    3.042361   -0.135358
     12          7           0        2.614838   -1.466418   -0.679117
     13          8           0        1.469944   -1.623997   -1.097475
     14          8           0        3.453204   -2.357063   -0.558573
     15          6           0       -3.200312   -0.326210    0.225266
     16          6           0       -2.657107   -1.156376    1.388769
     17          6           0       -1.166941   -1.468192    1.247450
     18          1           0       -3.024786   -0.865993   -0.715355
     19          1           0       -2.633153    0.612478    0.157498
     20          1           0       -3.226035   -2.092606    1.455185
     21          1           0       -2.834118   -0.614642    2.326749
     22          1           0       -0.582336   -0.543569    1.203761
     23          1           0       -0.976480   -2.029931    0.327245
     24          1           0       -0.799469   -2.062428    2.089892
     25          6           0       -4.688709   -0.006385    0.352208
     26          6           0       -5.231913    0.823782   -0.811294
     27          6           0       -6.722079    1.135598   -0.669975
     28          1           0       -5.255867   -0.945072    0.419977
     29          1           0       -4.864234    0.533399    1.292831
     30          1           0       -5.054902    0.282047   -1.749274
     31          1           0       -4.662985    1.760011   -0.877710
     32          1           0       -6.912540    1.697336    0.250230
     33          1           0       -7.306684    0.210974   -0.626286
     34          1           0       -7.089552    1.729834   -1.512416
 ---------------------------------------------------------------------

 SCF Done:  E(RHF) =  -669.535797666     A.U. after   15 cycles
 E2 =    -0.2091655494D+01 EUMP2 =    -0.67162745315991D+03

 The electronic state is 1-A.
 Alpha  occ. eigenvalues --  -20.60827 -20.60807 -15.85852 -11.31214 -11.27779
 Alpha  occ. eigenvalues --  -11.27770 -11.27525 -11.26801 -11.26791 -11.21478
 Alpha  occ. eigenvalues --  -11.21185 -11.21135 -11.21071 -11.20976 -11.20256
 Alpha  occ. eigenvalues --   -1.59879  -1.39435  -1.19384  -1.08782  -1.08153
 Alpha  occ. eigenvalues --   -1.04788  -1.03188  -0.95664  -0.95573  -0.86631
 Alpha  occ. eigenvalues --   -0.86184  -0.82455  -0.79265  -0.77975  -0.77484
 Alpha  occ. eigenvalues --   -0.72086  -0.71190  -0.70494  -0.65042  -0.64814
 Alpha  occ. eigenvalues --   -0.64768  -0.62138  -0.60583  -0.59022  -0.57229
 Alpha  occ. eigenvalues --   -0.55294  -0.54900  -0.53113  -0.52883  -0.52306
 Alpha  occ. eigenvalues --   -0.52033  -0.49559  -0.48846  -0.48830  -0.47572
 Alpha  occ. eigenvalues --   -0.46305  -0.45547  -0.45434  -0.44704  -0.43461
 Alpha  occ. eigenvalues --   -0.37362  -0.36386
 Alpha virt. eigenvalues --    0.05007   0.11193   0.16486   0.21106   0.23078
 Alpha virt. eigenvalues --    0.24324   0.26382   0.27290   0.27670   0.28056
 Alpha virt. eigenvalues --    0.29089   0.30931   0.31485   0.32034   0.32475

 Mulliken charges:
               1
     1  C   -0.170700
     2  C   -0.218428
     3  C   -0.170904
     4  C    0.158658
     5  C   -0.171489
     6  C   -0.219055
     7  H    0.225668
     8  H    0.223548
     9  H    0.275661
    10  H    0.277559
    11  H    0.223532
    12  N    0.489394
    13  O   -0.459761
    14  O   -0.460071
    15  C   -0.296929
    16  C   -0.300679
    17  C   -0.478689
    18  H    0.154270
    19  H    0.141218
    20  H    0.152272
    21  H    0.147385
    22  H    0.143249
    23  H    0.178807
    24  H    0.157816
    25  C   -0.297865
    26  C   -0.299191
    27  C   -0.475501
    28  H    0.150609
    29  H    0.148032
    30  H    0.153170
    31  H    0.148790
    32  H    0.154288
    33  H    0.155902
    34  H    0.159436
 Sum of Mulliken charges =  -0.00000

 Dipole moment (field-independent basis, Debye):
    X=              1.5351    Y=              4.6850    Z=              1.2753  Tot=              5.0923
 Quadrupole moment (field-independent basis, Debye-Ang):
   XX=            -83.5614   YY=            -94.7918   ZZ=            -96.0662
   XY=             13.6815   XZ=              5.3838   YZ=             -1.4351

 Normal termination of Gaussian 16 at Thu May  6 19:09:57 2021.
