 Gaussian 16, Revision A.03,
 Gaussian 16:  EM64L-G16RevA.03 25-Dec-2016

 -------------
 #p 6-31g* mp2
 -------------

 ------------------------------------------------------
 Input file generated by CHIRIPA (05-May-2021 14:55:23)
 ------------------------------------------------------
 Symbolic Z-matrix:
 Charge =  0 Multiplicity = 1

                         Standard orientation:
 ---------------------------------------------------------------------
 Center     Atomic      Atomic             Coordinates (Angstroms)
 Number     Number       Type             X           Y           Z
 ---------------------------------------------------------------------
      1          6           0        2.097889    1.895196   -0.515366
      2          6           0        3.439808    2.181754   -0.243963
      3          6           0        4.362109    1.148421   -0.053881
      4          6           0        3.906012   -0.165881   -0.142618
      5          6           0        2.575586   -0.483537   -0.411601
      6          6           0        1.670814    0.565809   -0.598173
      7          1           0        1.388232    2.704134   -0.661664
      8          1           0        3.774309    3.213231   -0.179077
      9          1           0        5.406766    1.341896    0.157487
     10          1           0        2.271952   -1.521704   -0.470205
     11          1           0        0.629269    0.340290   -0.808817
     12          7           0        4.873132   -1.268301    0.056756
     13          8           0        4.446140   -2.417811   -0.026553
     14          8           0        6.039841   -0.961992    0.292558
     15          6           0       -5.387676   -0.502901    0.224655
     16          6           0       -6.562952   -0.021048   -0.626539
     17          6           0       -7.739627   -0.997329   -0.616441
     18          1           0       -5.055356   -1.483702   -0.142136
     19          1           0       -5.730171   -0.655115    1.257574
     20          1           0       -6.218015    0.131538   -1.657244
     21          1           0       -6.892389    0.958809   -0.257800
     22          1           0       -8.111267   -1.142191    0.403117
     23          1           0       -7.433063   -1.974162   -1.004278
     24          1           0       -8.568685   -0.633201   -1.231205
     25          6           0       -4.203668    0.462425    0.224568
     26          6           0       -3.028393   -0.019428    1.075761
     27          6           0       -1.851716    0.956853    1.065664
     28          1           0       -3.861172    0.614639   -0.808351
     29          1           0       -4.535988    1.443227    0.591358
     30          1           0       -2.698955   -0.999284    0.707023
     31          1           0       -3.373329   -0.172014    2.106466
     32          1           0       -2.158281    1.933686    1.453500
     33          1           0       -1.480076    1.101715    0.046105
     34          1           0       -1.022659    0.592726    1.680427
 ---------------------------------------------------------------------

 SCF Done:  E(RHF) =  -669.535303003     A.U. after   15 cycles
 E2 =    -0.2091050967D+01 EUMP2 =    -0.67162635397005D+03

 The electronic state is 1-A.
 Alpha  occ. eigenvalues --  -20.60722 -20.60717 -15.85774 -11.31126 -11.27693
 Alpha  occ. eigenvalues --  -11.27680 -11.27419 -11.26708 -11.26653 -11.22381
 Alpha  occ. eigenvalues --  -11.22106 -11.22052 -11.22036 -11.21881 -11.21420
 Alpha  occ. eigenvalues --   -1.59797  -1.39351  -1.19294  -1.09046  -1.08690
 Alpha  occ. eigenvalues --   -1.04697  -1.04169  -0.96638  -0.95528  -0.87665
 Alpha  occ. eigenvalues --   -0.86089  -0.82361  -0.80241  -0.78828  -0.77412
 Alpha  occ. eigenvalues --   -0.71993  -0.71120  -0.70399  -0.65699  -0.64944
 Alpha  occ. eigenvalues --   -0.64717  -0.62116  -0.61511  -0.59999  -0.58222
 Alpha  occ. eigenvalues --   -0.55959  -0.55180  -0.53382  -0.53079  -0.52988
 Alpha  occ. eigenvalues --   -0.52744  -0.50559  -0.48751  -0.48749  -0.48546
 Alpha  occ. eigenvalues --   -0.47262  -0.46377  -0.46284  -0.44760  -0.44403
 Alpha  occ. eigenvalues --   -0.37266  -0.36291
 Alpha virt. eigenvalues --    0.05119   0.11315   0.16608   0.20123   0.22494
 Alpha virt. eigenvalues --    0.23781   0.25667   0.26408   0.27051   0.28068
 Alpha virt. eigenvalues --    0.28665   0.30350   0.30956   0.31501   0.31764

 Mulliken charges:
               1
     1  C   -0.172165
     2  C   -0.218623
     3  C   -0.171366
     4  C    0.158765
     5  C   -0.172924
     6  C   -0.219440
     7  H    0.225881
     8  H    0.223151
     9  H    0.275321
    10  H    0.275355
    11  H    0.228840
    12  N    0.488019
    13  O   -0.460650
    14  O   -0.460621
    15  C   -0.298813
    16  C   -0.300013
    17  C   -0.476061
    18  H    0.150567
    19  H    0.151186
    20  H    0.151752
    21  H    0.152326
    22  H    0.156051
    23  H    0.155953
    24  H    0.161356
    25  C   -0.298523
    26  C   -0.300356
    27  C   -0.479742
    28  H    0.147535
    29  H    0.150698
    30  H    0.152133
    31  H    0.156471
    32  H    0.158535
    33  H    0.143399
    34  H    0.166004
 Sum of Mulliken charges =  -0.00000

 Dipole moment (field-independent basis, Debye):
    X=             -3.6046    Y=              3.8806    Z=             -0.6266  Tot=              5.3333
 Quadrupole moment (field-independent basis, Debye-Ang):
   XX=           -119.1458   YY=            -94.3069   ZZ=            -94.5562
   XY=             18.0266   XZ=             -2.2300   YZ=              0.5008

 Normal termination of Gaussian 16 at Thu May  6 19:16:16 2021.
