 Gaussian 16, Revision A.03,
 Gaussian 16:  EM64L-G16RevA.03 25-Dec-2016

 -------------
 #p 6-31g* mp2
 -------------

 ------------------------------------------------------
 Input file generated by CHIRIPA (05-May-2021 14:53:16)
 ------------------------------------------------------
 Symbolic Z-matrix:
 Charge =  0 Multiplicity = 1

                         Standard orientation:
 ---------------------------------------------------------------------
 Center     Atomic      Atomic             Coordinates (Angstroms)
 Number     Number       Type             X           Y           Z
 ---------------------------------------------------------------------
      1          6           0        4.344478   -0.355637   -0.279091
      2          6           0        5.188206   -1.122595    0.739675
      3          6           0        5.950538   -2.291749    0.115398
      4          1           0        3.634260   -1.047349   -0.752451
      5          1           0        4.998246    0.017368   -1.079623
      6          1           0        4.533245   -1.492862    1.538766
      7          1           0        5.896368   -0.428937    1.210802
      8          1           0        6.626895   -1.935953   -0.668535
      9          1           0        5.256028   -3.005923   -0.338708
     10          1           0        6.547085   -2.826110    0.861354
     11          6           0        3.576433    0.816115    0.329869
     12          6           0        2.732706    1.583072   -0.688898
     13          6           0        1.970374    2.752226   -0.064621
     14          1           0        2.922666    0.443109    1.130400
     15          1           0        4.286652    1.507827    0.803228
     16          1           0        2.024544    0.889414   -1.160025
     17          1           0        3.387666    1.953339   -1.487989
     18          1           0        2.664884    3.466400    0.389485
     19          1           0        1.294016    2.396430    0.719312
     20          1           0        1.373827    3.286587   -0.810577
     21          6           0       -2.379064    2.237498    0.084820
     22          6           0       -3.636584    1.858039    0.565627
     23          6           0       -4.043273    0.521495    0.512691
     24          6           0       -3.163234   -0.413577   -0.029952
     25          6           0       -1.904004   -0.066705   -0.517097
     26          6           0       -1.518304    1.275611   -0.454057
     27          1           0       -2.071290    3.277999    0.129866
     28          1           0       -4.307137    2.602900    0.984658
     29          1           0       -5.011217    0.200208    0.877764
     30          1           0       -1.257437   -0.831907   -0.929208
     31          1           0       -0.541113    1.567418   -0.828208
     32          7           0       -3.582667   -1.831571   -0.091341
     33          8           0       -2.788885   -2.636215   -0.574140
     34          8           0       -4.697260   -2.111500    0.344503
 ---------------------------------------------------------------------

 SCF Done:  E(RHF) =  -669.535271219     A.U. after   15 cycles
 E2 =    -0.2091738987D+01 EUMP2 =    -0.67162701020584D+03

 The electronic state is 1-A.
 Alpha  occ. eigenvalues --  -20.60738 -20.60733 -15.85790 -11.31142 -11.27707
 Alpha  occ. eigenvalues --  -11.27692 -11.27427 -11.26721 -11.26628 -11.22602
 Alpha  occ. eigenvalues --  -11.22236 -11.22053 -11.21927 -11.21835 -11.21282
 Alpha  occ. eigenvalues --   -1.59814  -1.39368  -1.19306  -1.09065  -1.08701
 Alpha  occ. eigenvalues --   -1.04712  -1.04193  -0.96652  -0.95541  -0.87677
 Alpha  occ. eigenvalues --   -0.86096  -0.82373  -0.80281  -0.78805  -0.77430
 Alpha  occ. eigenvalues --   -0.72009  -0.71137  -0.70412  -0.65771  -0.64954
 Alpha  occ. eigenvalues --   -0.64712  -0.62221  -0.61422  -0.60050  -0.58228
 Alpha  occ. eigenvalues --   -0.55945  -0.55175  -0.53394  -0.53104  -0.53002
 Alpha  occ. eigenvalues --   -0.52707  -0.50567  -0.48766  -0.48760  -0.48581
 Alpha  occ. eigenvalues --   -0.47316  -0.46358  -0.46241  -0.44777  -0.44428
 Alpha  occ. eigenvalues --   -0.37282  -0.36303
 Alpha virt. eigenvalues --    0.05103   0.11264   0.16587   0.19617   0.22764
 Alpha virt. eigenvalues --    0.23937   0.25585   0.26406   0.26631   0.28228
 Alpha virt. eigenvalues --    0.29185   0.30358   0.30714   0.31082   0.31904

 Mulliken charges:
               1
     1  C   -0.299091
     2  C   -0.300380
     3  C   -0.476321
     4  H    0.150788
     5  H    0.150452
     6  H    0.153693
     7  H    0.152168
     8  H    0.155264
     9  H    0.157135
    10  H    0.161839
    11  C   -0.298938
    12  C   -0.302220
    13  C   -0.487596
    14  H    0.151775
    15  H    0.151923
    16  H    0.146457
    17  H    0.157058
    18  H    0.163942
    19  H    0.157925
    20  H    0.153613
    21  C   -0.174234
    22  C   -0.218326
    23  C   -0.171410
    24  C    0.158937
    25  C   -0.174026
    26  C   -0.226556
    27  H    0.226221
    28  H    0.223183
    29  H    0.275365
    30  H    0.274759
    31  H    0.239887
    32  N    0.488044
    33  O   -0.460741
    34  O   -0.460589
 Sum of Mulliken charges =  -0.00000

 Dipole moment (field-independent basis, Debye):
    X=              1.7087    Y=              4.9866    Z=              0.2699  Tot=              5.2781
 Quadrupole moment (field-independent basis, Debye-Ang):
   XX=            -99.3741   YY=            -99.5282   ZZ=            -94.7026
   XY=            -16.7780   XZ=             -2.7622   YZ=              0.0530

 Normal termination of Gaussian 16 at Thu May  6 05:57:06 2021.
