 Gaussian 16, Revision A.03,
 Gaussian 16:  EM64L-G16RevA.03 25-Dec-2016

 -------------
 #p 6-31g* mp2
 -------------

 ------------------------------------------------------
 Input file generated by CHIRIPA (05-May-2021 14:51:14)
 ------------------------------------------------------
 Symbolic Z-matrix:
 Charge =  0 Multiplicity = 1

                         Standard orientation:
 ---------------------------------------------------------------------
 Center     Atomic      Atomic             Coordinates (Angstroms)
 Number     Number       Type             X           Y           Z
 ---------------------------------------------------------------------
      1          6           0        2.426832   -0.010928   -0.288451
      2          6           0        3.730062   -0.748400   -0.597828
      3          6           0        3.498714   -2.181521   -1.077865
      4          1           0        1.869331   -0.569619    0.475749
      5          1           0        1.797276    0.000158   -1.188968
      6          1           0        4.357560   -0.756887    0.302611
      7          1           0        4.284615   -0.187788   -1.361241
      8          1           0        2.893452   -2.189252   -1.990115
      9          1           0        2.966811   -2.761585   -0.316809
     10          1           0        4.443539   -2.690209   -1.293277
     11          6           0        2.641678    1.423007    0.192589
     12          6           0        1.338448    2.160478    0.501965
     13          6           0        1.569796    3.593599    0.982003
     14          1           0        3.271234    1.411920    1.093106
     15          1           0        3.199179    1.981697   -0.571612
     16          1           0        0.783895    1.599867    1.265379
     17          1           0        0.710950    2.168965   -0.398474
     18          1           0        2.101699    4.173663    0.220946
     19          1           0        2.175058    3.601331    1.894253
     20          1           0        0.624972    4.102288    1.197415
     21          6           0       -2.487427   -1.359518    0.440620
     22          6           0       -1.092254   -1.984610    0.413473
     23          6           0       -1.014492   -3.291381    1.203474
     24          1           0       -2.780297   -1.177078    1.483639
     25          1           0       -3.211792   -2.078670    0.033788
     26          1           0       -0.370530   -1.263975    0.818955
     27          1           0       -0.802594   -2.165408   -0.629611
     28          1           0       -1.712348   -4.029997    0.795988
     29          1           0       -1.277830   -3.123441    2.252784
     30          1           0       -0.008413   -3.721025    1.170756
     31          6           0       -2.581082   -0.052561   -0.344757
     32          6           0       -3.976256    0.572533   -0.317612
     33          6           0       -4.054019    1.879302   -1.107612
     34          1           0       -1.856718    0.666592    0.062074
     35          1           0       -2.288213   -0.235001   -1.387776
     36          1           0       -4.265917    0.753330    0.725472
     37          1           0       -4.697979   -0.148104   -0.723092
     38          1           0       -3.790680    1.711363   -2.156921
     39          1           0       -3.356163    2.617918   -0.700126
     40          1           0       -5.060098    2.308946   -1.074894
 ---------------------------------------------------------------------

 SCF Done:  E(RHF) =  -470.733068250     A.U. after   11 cycles
 E2 =    -0.1583986195D+01 EUMP2 =    -0.47231705444460D+03

 The electronic state is 1-A.
 Alpha  occ. eigenvalues --  -11.21653 -11.21595 -11.21570 -11.21514 -11.21404
 Alpha  occ. eigenvalues --  -11.21350 -11.21319 -11.21289 -11.21114 -11.21075
 Alpha  occ. eigenvalues --  -11.21056 -11.21056  -1.08458  -1.08369  -1.03554
 Alpha  occ. eigenvalues --   -1.03490  -0.95996  -0.95947  -0.87021  -0.86954
 Alpha  occ. eigenvalues --   -0.79663  -0.79525  -0.78441  -0.78002  -0.65144
 Alpha  occ. eigenvalues --   -0.64958  -0.60954  -0.60893  -0.59406  -0.59280
 Alpha  occ. eigenvalues --   -0.57629  -0.57535  -0.55301  -0.55219  -0.52705
 Alpha  occ. eigenvalues --   -0.52637  -0.52477  -0.52320  -0.49966  -0.49870
 Alpha  occ. eigenvalues --   -0.48061  -0.47791  -0.46736  -0.46625  -0.46234
 Alpha  occ. eigenvalues --   -0.45767  -0.45607  -0.45060  -0.43795  -0.43737
 Alpha virt. eigenvalues --    0.20860   0.22416   0.23599   0.24147   0.25516
 Alpha virt. eigenvalues --    0.25990   0.26765   0.27249   0.28461   0.29908
 Alpha virt. eigenvalues --    0.30426   0.31469   0.31615   0.31810   0.32428

 Mulliken charges:
               1
     1  C   -0.303008
     2  C   -0.299316
     3  C   -0.475917
     4  H    0.155533
     5  H    0.150280
     6  H    0.151613
     7  H    0.151808
     8  H    0.155164
     9  H    0.155291
    10  H    0.160230
    11  C   -0.298163
    12  C   -0.302900
    13  C   -0.475595
    14  H    0.149231
    15  H    0.149723
    16  H    0.151971
    17  H    0.154351
    18  H    0.155628
    19  H    0.155273
    20  H    0.159985
    21  C   -0.297682
    22  C   -0.304986
    23  C   -0.476295
    24  H    0.148954
    25  H    0.149169
    26  H    0.157833
    27  H    0.152392
    28  H    0.155421
    29  H    0.154654
    30  H    0.159732
    31  C   -0.302269
    32  C   -0.299436
    33  C   -0.475685
    34  H    0.154439
    35  H    0.148901
    36  H    0.151731
    37  H    0.151798
    38  H    0.154911
    39  H    0.155075
    40  H    0.160160
 Sum of Mulliken charges =  -0.00000

 Dipole moment (field-independent basis, Debye):
    X=              0.0306    Y=              0.0168    Z=             -0.0102  Tot=              0.0364
 Quadrupole moment (field-independent basis, Debye-Ang):
   XX=            -84.8999   YY=            -86.4951   ZZ=            -83.5448
   XY=              0.3238   XZ=              0.1337   YZ=              0.2692

 Normal termination of Gaussian 16 at Wed May  5 18:24:47 2021.
