 Gaussian 16, Revision A.03,
 Gaussian 16:  EM64L-G16RevA.03 25-Dec-2016

 -------------
 #p 6-31g* mp2
 -------------

 ------------------------------------------------------
 Input file generated by CHIRIPA (05-May-2021 14:53:17)
 ------------------------------------------------------
 Symbolic Z-matrix:
 Charge =  0 Multiplicity = 1

                         Standard orientation:
 ---------------------------------------------------------------------
 Center     Atomic      Atomic             Coordinates (Angstroms)
 Number     Number       Type             X           Y           Z
 ---------------------------------------------------------------------
      1          6           0       -2.727130    0.346985   -0.476380
      2          6           0       -3.900718   -0.316490    0.245061
      3          6           0       -4.388145   -1.582865   -0.459569
      4          1           0       -3.027417    0.590346   -1.504752
      5          1           0       -1.899822   -0.371975   -0.554178
      6          1           0       -4.725065    0.403955    0.322700
      7          1           0       -3.597664   -0.558126    1.271894
      8          1           0       -3.583091   -2.322014   -0.523980
      9          1           0       -4.716898   -1.354466   -1.478567
     10          1           0       -5.227430   -2.040894    0.073040
     11          6           0       -2.228634    1.614218    0.215972
     12          6           0       -1.055046    2.277693   -0.505468
     13          6           0       -0.567619    3.544068    0.199161
     14          1           0       -3.055942    2.333178    0.293770
     15          1           0       -1.928347    1.370857    1.244344
     16          1           0       -1.358100    2.519329   -1.532302
     17          1           0       -0.230700    1.557248   -0.583108
     18          1           0       -0.238867    3.315669    1.218159
     19          1           0       -1.372673    4.283217    0.263573
     20          1           0        0.271665    4.002097   -0.333447
     21          6           0       -0.102098   -2.169175    0.595761
     22          6           0        0.452910   -2.168630   -0.688172
     23          6           0        1.582001   -1.395056   -0.973277
     24          6           0        2.132866   -0.630450    0.053960
     25          6           0        1.603000   -0.609905    1.343189
     26          6           0        0.473703   -1.391182    1.605563
     27          1           0       -0.979283   -2.773098    0.808410
     28          1           0        0.007846   -2.771856   -1.474354
     29          1           0        2.032055   -1.376026   -1.958420
     30          1           0        2.068902    0.001681    2.106285
     31          1           0        0.044813   -1.389655    2.603610
     32          7           0        3.328293    0.192576   -0.235836
     33          8           0        3.794830    0.857532    0.686559
     34          8           0        3.776098    0.157122   -1.379887
 ---------------------------------------------------------------------

 SCF Done:  E(RHF) =  -669.534686688     A.U. after   15 cycles
 E2 =    -0.2095382702D+01 EUMP2 =    -0.67163006938976D+03

 The electronic state is 1-A.
 Alpha  occ. eigenvalues --  -20.60879 -20.60874 -15.85938 -11.31365 -11.27949
 Alpha  occ. eigenvalues --  -11.27933 -11.27672 -11.26952 -11.26929 -11.22174
 Alpha  occ. eigenvalues --  -11.21856 -11.21621 -11.21585 -11.21534 -11.20985
 Alpha  occ. eigenvalues --   -1.59956  -1.39506  -1.19556  -1.08961  -1.08689
 Alpha  occ. eigenvalues --   -1.04950  -1.03838  -0.96281  -0.95756  -0.87302
 Alpha  occ. eigenvalues --   -0.86345  -0.82577  -0.79912  -0.78497  -0.77612
 Alpha  occ. eigenvalues --   -0.72152  -0.71283  -0.70654  -0.65409  -0.65193
 Alpha  occ. eigenvalues --   -0.64925  -0.62285  -0.61261  -0.59674  -0.57877
 Alpha  occ. eigenvalues --   -0.55665  -0.55405  -0.53346  -0.53030  -0.52948
 Alpha  occ. eigenvalues --   -0.52701  -0.50268  -0.48917  -0.48903  -0.48236
 Alpha  occ. eigenvalues --   -0.46996  -0.46028  -0.45864  -0.44898  -0.44044
 Alpha  occ. eigenvalues --   -0.37406  -0.36534
 Alpha virt. eigenvalues --    0.04894   0.11002   0.16288   0.19685   0.22978
 Alpha virt. eigenvalues --    0.23752   0.25948   0.26170   0.27504   0.27883
 Alpha virt. eigenvalues --    0.28526   0.30550   0.31284   0.31484   0.32396

 Mulliken charges:
               1
     1  C   -0.307371
     2  C   -0.299511
     3  C   -0.474432
     4  H    0.149111
     5  H    0.157956
     6  H    0.155207
     7  H    0.145546
     8  H    0.143217
     9  H    0.158970
    10  H    0.161898
    11  C   -0.295760
    12  C   -0.303071
    13  C   -0.475766
    14  H    0.149424
    15  H    0.144997
    16  H    0.151874
    17  H    0.154560
    18  H    0.153513
    19  H    0.154110
    20  H    0.165687
    21  C   -0.173960
    22  C   -0.218159
    23  C   -0.170852
    24  C    0.159838
    25  C   -0.171554
    26  C   -0.216537
    27  H    0.229634
    28  H    0.225298
    29  H    0.276828
    30  H    0.276590
    31  H    0.224583
    32  N    0.487747
    33  O   -0.459787
    34  O   -0.459829
 Sum of Mulliken charges =  -0.00000

 Dipole moment (field-independent basis, Debye):
    X=             -4.0616    Y=             -2.8949    Z=              0.9888  Tot=              5.0847
 Quadrupole moment (field-independent basis, Debye-Ang):
   XX=           -113.4276   YY=            -91.7062   ZZ=            -90.0588
   XY=             -4.3968   XZ=              2.2816   YZ=              0.2141

 Normal termination of Gaussian 16 at Thu May  6 05:59:56 2021.
