 Gaussian 16, Revision A.03,
 Gaussian 16:  EM64L-G16RevA.03 25-Dec-2016

 -------------
 #p 6-31g* mp2
 -------------

 ------------------------------------------------------
 Input file generated by CHIRIPA (05-May-2021 14:53:12)
 ------------------------------------------------------
 Symbolic Z-matrix:
 Charge =  0 Multiplicity = 1

                         Standard orientation:
 ---------------------------------------------------------------------
 Center     Atomic      Atomic             Coordinates (Angstroms)
 Number     Number       Type             X           Y           Z
 ---------------------------------------------------------------------
      1          6           0        3.565814   -0.257199   -0.182192
      2          6           0        2.524233   -0.872363    0.753045
      3          6           0        1.123289   -0.899916    0.141171
      4          1           0        3.257623    0.764695   -0.442376
      5          1           0        3.586250   -0.826331   -1.121908
      6          1           0        2.506747   -0.303084    1.691251
      7          1           0        2.835038   -1.892844    1.011186
      8          1           0        1.118564   -1.484755   -0.784324
      9          1           0        0.788408    0.114037   -0.100395
     10          1           0        0.394488   -1.343632    0.826609
     11          6           0        4.971305   -0.222602    0.415410
     12          6           0        6.012885    0.392562   -0.519827
     13          6           0        7.413830    0.420114    0.092047
     14          1           0        4.950869    0.346530    1.355126
     15          1           0        5.279496   -1.244496    0.675594
     16          1           0        5.702081    1.413042   -0.777968
     17          1           0        6.030372   -0.176718   -1.458033
     18          1           0        7.748710   -0.593839    0.333613
     19          1           0        7.418555    1.004954    1.017542
     20          1           0        8.142631    0.863830   -0.593391
     21          6           0       -2.742661    2.639779   -0.056079
     22          6           0       -1.868265    1.716787   -0.639206
     23          6           0       -2.186074    0.355568   -0.664293
     24          6           0       -3.392059   -0.049663   -0.094487
     25          6           0       -4.284023    0.845603    0.493892
     26          6           0       -3.945628    2.202014    0.507615
     27          1           0       -2.487783    3.695339   -0.041006
     28          1           0       -0.933336    2.053900   -1.077736
     29          1           0       -1.527483   -0.380454   -1.109205
     30          1           0       -5.208757    0.479412    0.923064
     31          1           0       -4.626618    2.916571    0.961162
     32          7           0       -3.739407   -1.488178   -0.115029
     33          8           0       -4.808000   -1.819740    0.393705
     34          8           0       -2.936486   -2.256885   -0.639476
 ---------------------------------------------------------------------

 SCF Done:  E(RHF) =  -669.534980903     A.U. after   15 cycles
 E2 =    -0.2091988380D+01 EUMP2 =    -0.67162696928282D+03

 The electronic state is 1-A.
 Alpha  occ. eigenvalues --  -20.60720 -20.60715 -15.85771 -11.31104 -11.27710
 Alpha  occ. eigenvalues --  -11.27639 -11.27460 -11.26711 -11.26693 -11.21865
 Alpha  occ. eigenvalues --  -11.21825 -11.21693 -11.21599 -11.21429 -11.21252
 Alpha  occ. eigenvalues --   -1.59795  -1.39348  -1.19299  -1.08701  -1.08694
 Alpha  occ. eigenvalues --   -1.04708  -1.03790  -0.96266  -0.95530  -0.87297
 Alpha  occ. eigenvalues --   -0.86095  -0.82373  -0.79881  -0.78515  -0.77400
 Alpha  occ. eigenvalues --   -0.71990  -0.71118  -0.70411  -0.65329  -0.64954
 Alpha  occ. eigenvalues --   -0.64711  -0.62087  -0.61173  -0.59599  -0.57854
 Alpha  occ. eigenvalues --   -0.55568  -0.55215  -0.53187  -0.52932  -0.52740
 Alpha  occ. eigenvalues --   -0.52564  -0.50201  -0.48749  -0.48744  -0.48176
 Alpha  occ. eigenvalues --   -0.46890  -0.46056  -0.45971  -0.44762  -0.44030
 Alpha  occ. eigenvalues --   -0.37292  -0.36259
 Alpha virt. eigenvalues --    0.05099   0.11303   0.16501   0.20901   0.22648
 Alpha virt. eigenvalues --    0.24031   0.25849   0.26213   0.27346   0.27941
 Alpha virt. eigenvalues --    0.29199   0.29306   0.31498   0.31644   0.32239

 Mulliken charges:
               1
     1  C   -0.298153
     2  C   -0.300836
     3  C   -0.481995
     4  H    0.144854
     5  H    0.150748
     6  H    0.152243
     7  H    0.156209
     8  H    0.158439
     9  H    0.144610
    10  H    0.170432
    11  C   -0.298478
    12  C   -0.299661
    13  C   -0.475843
    14  H    0.149474
    15  H    0.151588
    16  H    0.150417
    17  H    0.152614
    18  H    0.156237
    19  H    0.155121
    20  H    0.160570
    21  C   -0.170848
    22  C   -0.221488
    23  C   -0.168634
    24  C    0.155698
    25  C   -0.170743
    26  C   -0.219103
    27  H    0.225216
    28  H    0.222927
    29  H    0.283365
    30  H    0.275318
    31  H    0.223069
    32  N    0.488030
    33  O   -0.460778
    34  O   -0.460619
 Sum of Mulliken charges =  -0.00000

 Dipole moment (field-independent basis, Debye):
    X=              1.3013    Y=              4.9648    Z=              0.1127  Tot=              5.1338
 Quadrupole moment (field-independent basis, Debye-Ang):
   XX=           -100.5823   YY=            -94.7401   ZZ=            -94.2802
   XY=            -18.8696   XZ=             -3.0439   YZ=              0.3838

 Normal termination of Gaussian 16 at Wed May  5 21:45:25 2021.
