 Gaussian 16, Revision A.03,
 Gaussian 16:  EM64L-G16RevA.03 25-Dec-2016

 -------------
 #p 6-31g* mp2
 -------------

 ------------------------------------------------------
 Input file generated by CHIRIPA (05-May-2021 14:55:22)
 ------------------------------------------------------
 Symbolic Z-matrix:
 Charge =  0 Multiplicity = 1

                         Standard orientation:
 ---------------------------------------------------------------------
 Center     Atomic      Atomic             Coordinates (Angstroms)
 Number     Number       Type             X           Y           Z
 ---------------------------------------------------------------------
      1          6           0        0.844690   -0.106313    0.160620
      2          6           0        1.511719   -1.289074    0.496285
      3          6           0        2.904739   -1.368179    0.408058
      4          6           0        3.602436   -0.240350   -0.021491
      5          6           0        2.966607    0.952293   -0.362979
      6          6           0        1.572980    1.008630   -0.267187
      7          1           0       -0.237677   -0.053706    0.232095
      8          1           0        0.948702   -2.156524    0.828832
      9          1           0        3.446497   -2.271277    0.661692
     10          1           0        3.555057    1.800459   -0.691248
     11          1           0        1.057615    1.928494   -0.528521
     12          7           0        5.077486   -0.312044   -0.118898
     13          8           0        5.669188    0.695549   -0.500058
     14          8           0        5.613997   -1.374472    0.187760
     15          6           0       -3.573635    0.528790   -0.002421
     16          6           0       -3.414575    2.013261    0.327776
     17          6           0       -1.955870    2.470925    0.305029
     18          1           0       -2.990491   -0.064460    0.715174
     19          1           0       -3.142223    0.332550   -0.993769
     20          1           0       -3.847398    2.206905    1.317615
     21          1           0       -3.998320    2.603036   -0.390571
     22          1           0       -1.515855    2.306338   -0.683859
     23          1           0       -1.364076    1.907957    1.034034
     24          1           0       -1.865243    3.535173    0.543822
     25          6           0       -5.026250    0.056258    0.016341
     26          6           0       -5.185309   -1.428213   -0.313857
     27          6           0       -6.644013   -1.885877   -0.291110
     28          1           0       -5.457661    0.252499    1.007687
     29          1           0       -5.609394    0.649509   -0.701255
     30          1           0       -4.601564   -2.017988    0.404491
     31          1           0       -4.752486   -1.621858   -1.303697
     32          1           0       -7.235807   -1.322909   -1.020114
     33          1           0       -7.084028   -1.721290    0.697778
     34          1           0       -6.734640   -2.950125   -0.529903
 ---------------------------------------------------------------------

 SCF Done:  E(RHF) =  -669.535015311     A.U. after   15 cycles
 E2 =    -0.2092361457D+01 EUMP2 =    -0.67162737676793D+03

 The electronic state is 1-A.
 Alpha  occ. eigenvalues --  -20.60670 -20.60665 -15.85722 -11.31058 -11.27627
 Alpha  occ. eigenvalues --  -11.27613 -11.27266 -11.26622 -11.26569 -11.22781
 Alpha  occ. eigenvalues --  -11.22616 -11.22518 -11.22414 -11.22300 -11.21719
 Alpha  occ. eigenvalues --   -1.59746  -1.39300  -1.19220  -1.09496  -1.08613
 Alpha  occ. eigenvalues --   -1.04635  -1.04553  -0.97052  -0.95456  -0.88077
 Alpha  occ. eigenvalues --   -0.86009  -0.82298  -0.80664  -0.79298  -0.77348
 Alpha  occ. eigenvalues --   -0.71940  -0.71069  -0.70332  -0.66110  -0.64869
 Alpha  occ. eigenvalues --   -0.64639  -0.62009  -0.61930  -0.60427  -0.58629
 Alpha  occ. eigenvalues --   -0.56366  -0.55106  -0.53710  -0.53486  -0.52946
 Alpha  occ. eigenvalues --   -0.52673  -0.50976  -0.48927  -0.48697  -0.48693
 Alpha  occ. eigenvalues --   -0.47665  -0.46814  -0.46719  -0.44814  -0.44713
 Alpha  occ. eigenvalues --   -0.37182  -0.36229
 Alpha virt. eigenvalues --    0.05164   0.11375   0.16623   0.19976   0.22228
 Alpha virt. eigenvalues --    0.23641   0.24589   0.25891   0.26195   0.27775
 Alpha virt. eigenvalues --    0.29369   0.29851   0.30586   0.31034   0.31467

 Mulliken charges:
               1
     1  C   -0.178380
     2  C   -0.220435
     3  C   -0.171021
     4  C    0.158251
     5  C   -0.171211
     6  C   -0.224015
     7  H    0.236180
     8  H    0.222812
     9  H    0.274940
    10  H    0.275135
    11  H    0.229002
    12  N    0.488026
    13  O   -0.460791
    14  O   -0.460864
    15  C   -0.303244
    16  C   -0.299253
    17  C   -0.487169
    18  H    0.144341
    19  H    0.150011
    20  H    0.156823
    21  H    0.157030
    22  H    0.151697
    23  H    0.154856
    24  H    0.168242
    25  C   -0.298507
    26  C   -0.300473
    27  C   -0.476322
    28  H    0.152236
    29  H    0.153019
    30  H    0.150601
    31  H    0.152754
    32  H    0.156854
    33  H    0.156512
    34  H    0.162363
 Sum of Mulliken charges =  -0.00000

 Dipole moment (field-independent basis, Debye):
    X=             -5.5587    Y=              0.3344    Z=              0.3449  Tot=              5.5794
 Quadrupole moment (field-independent basis, Debye-Ang):
   XX=           -132.6708   YY=            -90.2716   ZZ=            -94.0857
   XY=              1.6463   XZ=              1.3684   YZ=             -2.0044

 Normal termination of Gaussian 16 at Wed May  5 16:00:32 2021.
