 Gaussian 16, Revision A.03,
 Gaussian 16:  EM64L-G16RevA.03 25-Dec-2016

 -------------
 #p 6-31g* mp2
 -------------

 ------------------------------------------------------
 Input file generated by CHIRIPA (05-May-2021 14:57:21)
 ------------------------------------------------------
 Symbolic Z-matrix:
 Charge =  0 Multiplicity = 1

                         Standard orientation:
 ---------------------------------------------------------------------
 Center     Atomic      Atomic             Coordinates (Angstroms)
 Number     Number       Type             X           Y           Z
 ---------------------------------------------------------------------
      1          6           0        3.291075   -2.133455    0.254783
      2          6           0        3.127321   -1.149771    1.235636
      3          6           0        2.605450    0.104011    0.903627
      4          6           0        2.256235    0.341085   -0.424957
      5          6           0        2.407424   -0.618419   -1.424848
      6          6           0        2.931238   -1.865113   -1.069993
      7          1           0        3.697232   -3.104670    0.521569
      8          1           0        3.405915   -1.355369    2.265276
      9          1           0        2.468121    0.883691    1.642990
     10          1           0        2.120644   -0.383958   -2.442789
     11          1           0        3.057305   -2.627153   -1.833830
     12          7           0        1.702725    1.664656   -0.788533
     13          8           0        1.402719    1.848603   -1.966156
     14          8           0        1.579371    2.493061    0.111004
     15          6           0       -1.091881    0.711263    2.388285
     16          6           0       -1.385522   -0.650193    2.258925
     17          6           0       -2.080678   -1.123612    1.142153
     18          6           0       -2.468846   -0.203593    0.169434
     19          6           0       -2.191173    1.158811    0.269656
     20          6           0       -1.494934    1.609835    1.394989
     21          1           0       -0.551446    1.070328    3.259145
     22          1           0       -1.073746   -1.350325    3.028766
     23          1           0       -2.321143   -2.172354    1.016714
     24          1           0       -2.515030    1.832617   -0.514257
     25          1           0       -1.268266    2.667710    1.492800
     26          7           0       -3.205350   -0.692927   -1.017374
     27          8           0       -3.536297    0.137975   -1.860411
     28          8           0       -3.437727   -1.898103   -1.082084
 ---------------------------------------------------------------------

 SCF Done:  E(RHF) =  -868.338936293     A.U. after   16 cycles
 E2 =    -0.2601873603D+01 EUMP2 =    -0.87094080989605D+03

 The electronic state is 1-A.
 Alpha  occ. eigenvalues --  -20.61265 -20.61216 -20.60467 -20.60433 -15.86262
 Alpha  occ. eigenvalues --  -15.85499 -11.31514 -11.30824 -11.28150 -11.28029
 Alpha  occ. eigenvalues --  -11.27812 -11.27407 -11.27217 -11.27124 -11.27103
 Alpha  occ. eigenvalues --  -11.27021 -11.26499 -11.26215  -1.60296  -1.59529
 Alpha  occ. eigenvalues --   -1.39859  -1.39082  -1.19682  -1.18974  -1.09100
 Alpha  occ. eigenvalues --   -1.08390  -1.05080  -1.04337  -0.95959  -0.95232
 Alpha  occ. eigenvalues --   -0.86483  -0.85739  -0.82805  -0.82042  -0.77865
 Alpha  occ. eigenvalues --   -0.77089  -0.72514  -0.71718  -0.71606  -0.70851
 Alpha  occ. eigenvalues --   -0.70809  -0.70092  -0.65350  -0.65092  -0.64612
 Alpha  occ. eigenvalues --   -0.64309  -0.62439  -0.61657  -0.55591  -0.54886
 Alpha  occ. eigenvalues --   -0.53447  -0.53182  -0.52665  -0.52402  -0.49280
 Alpha  occ. eigenvalues --   -0.49243  -0.48482  -0.48467  -0.45300  -0.44496
 Alpha  occ. eigenvalues --   -0.37659  -0.37140  -0.36501  -0.35883
 Alpha virt. eigenvalues --    0.04655   0.05398   0.10977   0.11708   0.16196
 Alpha virt. eigenvalues --    0.16899   0.20863   0.21948   0.26751   0.27528
 Alpha virt. eigenvalues --    0.28039   0.28958   0.30598   0.31383   0.32538

 Mulliken charges:
               1
     1  C   -0.170533
     2  C   -0.220125
     3  C   -0.167437
     4  C    0.160148
     5  C   -0.169777
     6  C   -0.218153
     7  H    0.226372
     8  H    0.220674
     9  H    0.268903
    10  H    0.278951
    11  H    0.226455
    12  N    0.489412
    13  O   -0.455705
    14  O   -0.468275
    15  C   -0.177035
    16  C   -0.217631
    17  C   -0.173321
    18  C    0.157398
    19  C   -0.175192
    20  C   -0.209950
    21  H    0.221657
    22  H    0.217797
    23  H    0.272111
    24  H    0.280990
    25  H    0.235988
    26  N    0.487849
    27  O   -0.457154
    28  O   -0.464416
 Sum of Mulliken charges =  -0.00000

 Dipole moment (field-independent basis, Debye):
    X=              4.5959    Y=             -2.7620    Z=              5.2242  Tot=              7.4863
 Quadrupole moment (field-independent basis, Debye-Ang):
   XX=           -110.5504   YY=           -104.3522   ZZ=           -100.0983
   XY=            -15.6803   XZ=             -7.4785   YZ=              1.7838

 Normal termination of Gaussian 16 at Thu May  6 17:49:13 2021.
