 Gaussian 16, Revision A.03,
 Gaussian 16:  EM64L-G16RevA.03 25-Dec-2016

 -------------
 #p 6-31g* mp2
 -------------

 ------------------------------------------------------
 Input file generated by CHIRIPA (05-May-2021 14:51:10)
 ------------------------------------------------------
 Symbolic Z-matrix:
 Charge =  0 Multiplicity = 1

                         Standard orientation:
 ---------------------------------------------------------------------
 Center     Atomic      Atomic             Coordinates (Angstroms)
 Number     Number       Type             X           Y           Z
 ---------------------------------------------------------------------
      1          6           0        3.336507    0.797458   -0.380397
      2          6           0        3.370526    2.141205    0.348419
      3          6           0        3.764723    3.300517   -0.567222
      4          1           0        4.324201    0.600462   -0.819256
      5          1           0        2.628968    0.860728   -1.218717
      6          1           0        4.076759    2.074989    1.185955
      7          1           0        2.382690    2.334935    0.785757
      8          1           0        3.055577    3.395202   -1.395924
      9          1           0        4.759271    3.133779   -0.993452
     10          1           0        3.782741    4.251507   -0.025784
     11          6           0        2.944061   -0.371251    0.521730
     12          6           0        2.910042   -1.714998   -0.207086
     13          6           0        2.515845   -2.874310    0.708555
     14          1           0        3.651600   -0.434521    1.360050
     15          1           0        1.956367   -0.174255    0.960589
     16          1           0        3.897878   -1.908728   -0.644424
     17          1           0        2.203809   -1.648782   -1.044622
     18          1           0        1.521297   -2.707572    1.134785
     19          1           0        3.224991   -2.968995    1.537257
     20          1           0        2.497827   -3.825300    0.167117
     21          6           0       -3.677942    0.279487   -0.298065
     22          6           0       -3.860172    1.460949    0.655310
     23          6           0       -4.939238    2.437636    0.186808
     24          1           0       -3.422578    0.658660   -1.297046
     25          1           0       -4.634696   -0.251140   -0.400298
     26          1           0       -2.903017    1.988370    0.756793
     27          1           0       -4.114943    1.078912    1.652182
     28          1           0       -5.906622    1.931873    0.103305
     29          1           0       -4.687810    2.846499   -0.797172
     30          1           0       -5.052897    3.274482    0.882962
     31          6           0       -2.602626   -0.705694    0.156732
     32          6           0       -2.420396   -1.887156   -0.796643
     33          6           0       -1.341331   -2.863844   -0.328142
     34          1           0       -1.645872   -0.175067    0.258965
     35          1           0       -2.857990   -1.084867    1.155713
     36          1           0       -2.165625   -1.505119   -1.793515
     37          1           0       -3.377551   -2.414578   -0.898127
     38          1           0       -1.592758   -3.272706    0.655838
     39          1           0       -0.373946   -2.358080   -0.244638
     40          1           0       -1.227671   -3.700689   -1.024296
 ---------------------------------------------------------------------

 SCF Done:  E(RHF) =  -470.732980230     A.U. after   11 cycles
 E2 =    -0.1583012500D+01 EUMP2 =    -0.47231599273023D+03

 The electronic state is 1-A.
 Alpha  occ. eigenvalues --  -11.21634 -11.21625 -11.21625 -11.21604 -11.21449
 Alpha  occ. eigenvalues --  -11.21429 -11.21388 -11.21370 -11.21095 -11.21092
 Alpha  occ. eigenvalues --  -11.21058 -11.20984  -1.08473  -1.08442  -1.03586
 Alpha  occ. eigenvalues --   -1.03509  -0.96055  -0.95934  -0.87077  -0.86944
 Alpha  occ. eigenvalues --   -0.79655  -0.79564  -0.78289  -0.78253  -0.65186
 Alpha  occ. eigenvalues --   -0.65013  -0.61166  -0.60769  -0.59388  -0.59330
 Alpha  occ. eigenvalues --   -0.57657  -0.57558  -0.55522  -0.55064  -0.52718
 Alpha  occ. eigenvalues --   -0.52642  -0.52510  -0.52309  -0.50066  -0.49787
 Alpha  occ. eigenvalues --   -0.48034  -0.47799  -0.46679  -0.46596  -0.45894
 Alpha  occ. eigenvalues --   -0.45780  -0.45741  -0.45643  -0.43822  -0.43781
 Alpha virt. eigenvalues --    0.20523   0.23188   0.23649   0.24982   0.25955
 Alpha virt. eigenvalues --    0.26779   0.27083   0.27465   0.28336   0.29071
 Alpha virt. eigenvalues --    0.30767   0.31408   0.31608   0.31801   0.32163

 Mulliken charges:
               1
     1  C   -0.298205
     2  C   -0.299624
     3  C   -0.475700
     4  H    0.149882
     5  H    0.149080
     6  H    0.152137
     7  H    0.151712
     8  H    0.155023
     9  H    0.155294
    10  H    0.160354
    11  C   -0.298879
    12  C   -0.302232
    13  C   -0.478469
    14  H    0.150030
    15  H    0.149222
    16  H    0.152431
    17  H    0.152336
    18  H    0.159139
    19  H    0.154893
    20  H    0.160661
    21  C   -0.298267
    22  C   -0.299647
    23  C   -0.475732
    24  H    0.149629
    25  H    0.149805
    26  H    0.151688
    27  H    0.152067
    28  H    0.155284
    29  H    0.155201
    30  H    0.160375
    31  C   -0.298390
    32  C   -0.299683
    33  C   -0.481794
    34  H    0.148419
    35  H    0.149851
    36  H    0.151620
    37  H    0.152048
    38  H    0.154999
    39  H    0.162932
    40  H    0.160511
 Sum of Mulliken charges =  -0.00000

 Dipole moment (field-independent basis, Debye):
    X=             -0.0031    Y=             -0.0167    Z=              0.0060  Tot=              0.0180
 Quadrupole moment (field-independent basis, Debye-Ang):
   XX=            -83.9059   YY=            -85.9549   ZZ=            -84.8032
   XY=              0.5791   XZ=             -0.1607   YZ=              0.3452

 Normal termination of Gaussian 16 at Wed May  5 23:01:06 2021.
