 Gaussian 16, Revision A.03,
 Gaussian 16:  EM64L-G16RevA.03 25-Dec-2016

 -------------
 #p 6-31g* mp2
 -------------

 ------------------------------------------------------
 Input file generated by CHIRIPA (05-May-2021 14:53:16)
 ------------------------------------------------------
 Symbolic Z-matrix:
 Charge =  0 Multiplicity = 1

                         Standard orientation:
 ---------------------------------------------------------------------
 Center     Atomic      Atomic             Coordinates (Angstroms)
 Number     Number       Type             X           Y           Z
 ---------------------------------------------------------------------
      1          6           0       -4.531032   -0.343699    0.136985
      2          6           0       -5.215685    0.861293   -0.508950
      3          6           0       -6.643748    1.070530   -0.004323
      4          1           0       -5.126960   -1.245297   -0.060335
      5          1           0       -4.519540   -0.209082    1.227462
      6          1           0       -5.224648    0.725093   -1.597979
      7          1           0       -4.617957    1.760097   -0.310233
      8          1           0       -6.649939    1.231812    1.078521
      9          1           0       -7.260077    0.190926   -0.216542
     10          1           0       -7.114382    1.937108   -0.479092
     11          6           0       -3.102745   -0.565888   -0.357338
     12          6           0       -2.418093   -1.770879    0.288596
     13          6           0       -0.990029   -1.980116   -0.216031
     14          1           0       -3.114237   -0.700505   -1.447816
     15          1           0       -2.506817    0.335711   -0.160019
     16          1           0       -3.015820   -2.669684    0.089879
     17          1           0       -2.409129   -1.634679    1.377626
     18          1           0       -0.373700   -1.100512   -0.003812
     19          1           0       -0.983838   -2.141398   -1.298875
     20          1           0       -0.519395   -2.846694    0.258739
     21          6           0        3.742290   -2.044216   -0.087371
     22          6           0        2.631844   -1.716786    0.697626
     23          6           0        2.201635   -0.390598    0.801032
     24          6           0        2.908437    0.587284    0.102844
     25          6           0        4.018454    0.292687   -0.687324
     26          6           0        4.430837   -1.040205   -0.776127
     27          1           0        4.069563   -3.077035   -0.162027
     28          1           0        2.095187   -2.494440    1.233629
     29          1           0        1.345188   -0.109202    1.401642
     30          1           0        4.533163    1.089761   -1.209978
     31          1           0        5.293561   -1.291566   -1.386511
     32          7           0        2.462429    1.994808    0.204585
     33          8           0        3.102225    2.837861   -0.420363
     34          8           0        1.481498    2.228323    0.907352
 ---------------------------------------------------------------------

 SCF Done:  E(RHF) =  -669.534321023     A.U. after   15 cycles
 E2 =    -0.2092464104D+01 EUMP2 =    -0.67162678512764D+03

 The electronic state is 1-A.
 Alpha  occ. eigenvalues --  -20.60790 -20.60782 -15.85841 -11.31181 -11.27736
 Alpha  occ. eigenvalues --  -11.27730 -11.27471 -11.26754 -11.26727 -11.21803
 Alpha  occ. eigenvalues --  -11.21451 -11.21438 -11.21365 -11.21288 -11.20919
 Alpha  occ. eigenvalues --   -1.59863  -1.39418  -1.19354  -1.08748  -1.08431
 Alpha  occ. eigenvalues --   -1.04763  -1.03584  -0.96057  -0.95587  -0.87082
 Alpha  occ. eigenvalues --   -0.86154  -0.82424  -0.79659  -0.78213  -0.77469
 Alpha  occ. eigenvalues --   -0.72060  -0.71186  -0.70475  -0.65091  -0.64986
 Alpha  occ. eigenvalues --   -0.64762  -0.62164  -0.60952  -0.59442  -0.57651
 Alpha  occ. eigenvalues --   -0.55422  -0.55197  -0.53218  -0.52958  -0.52620
 Alpha  occ. eigenvalues --   -0.52370  -0.49965  -0.48817  -0.48813  -0.47960
 Alpha  occ. eigenvalues --   -0.46668  -0.45762  -0.45661  -0.44825  -0.43830
 Alpha  occ. eigenvalues --   -0.37330  -0.36263
 Alpha virt. eigenvalues --    0.05040   0.11198   0.16514   0.20600   0.22985
 Alpha virt. eigenvalues --    0.24152   0.26444   0.26554   0.27331   0.28118
 Alpha virt. eigenvalues --    0.29324   0.29597   0.31478   0.31925   0.32269

 Mulliken charges:
               1
     1  C   -0.298317
     2  C   -0.300480
     3  C   -0.475812
     4  H    0.148251
     5  H    0.149952
     6  H    0.151601
     7  H    0.155976
     8  H    0.155489
     9  H    0.153980
    10  H    0.160929
    11  C   -0.300548
    12  C   -0.299621
    13  C   -0.479500
    14  H    0.149571
    15  H    0.156919
    16  H    0.151720
    17  H    0.150344
    18  H    0.158826
    19  H    0.158463
    20  H    0.149961
    21  C   -0.171780
    22  C   -0.212978
    23  C   -0.172319
    24  C    0.157905
    25  C   -0.171438
    26  C   -0.218221
    27  H    0.225538
    28  H    0.224723
    29  H    0.275411
    30  H    0.275433
    31  H    0.223334
    32  N    0.488475
    33  O   -0.460080
    34  O   -0.461704
 Sum of Mulliken charges =  -0.00000

 Dipole moment (field-independent basis, Debye):
    X=              1.5612    Y=             -4.8907    Z=             -0.3997  Tot=              5.1494
 Quadrupole moment (field-independent basis, Debye-Ang):
   XX=            -84.0419   YY=           -100.7457   ZZ=            -93.0691
   XY=            -12.2977   XZ=             -2.9726   YZ=             -1.2743

 Normal termination of Gaussian 16 at Wed May  5 18:43:32 2021.
