 Gaussian 16, Revision A.03,
 Gaussian 16:  EM64L-G16RevA.03 25-Dec-2016

 -------------
 #p 6-31g* mp2
 -------------

 ------------------------------------------------------
 Input file generated by CHIRIPA (05-May-2021 14:51:12)
 ------------------------------------------------------
 Symbolic Z-matrix:
 Charge =  0 Multiplicity = 1

                         Standard orientation:
 ---------------------------------------------------------------------
 Center     Atomic      Atomic             Coordinates (Angstroms)
 Number     Number       Type             X           Y           Z
 ---------------------------------------------------------------------
      1          6           0        5.102484   -0.317223   -0.384526
      2          6           0        6.288438    0.205885    0.426558
      3          6           0        7.588752    0.232321   -0.377356
      4          1           0        5.331857   -1.328681   -0.746860
      5          1           0        4.970865    0.311734   -1.275864
      6          1           0        6.416921   -0.423037    1.316820
      7          1           0        6.056138    1.216140    0.787165
      8          1           0        7.484628    0.875300   -1.257320
      9          1           0        7.847461   -0.773191   -0.724656
     10          1           0        8.423467    0.609586    0.221628
     11          6           0        3.795387   -0.349633    0.405521
     12          6           0        2.609433   -0.872740   -0.405563
     13          6           0        1.309119   -0.899176    0.398351
     14          1           0        3.927007   -0.978590    1.296859
     15          1           0        3.566015    0.661825    0.767855
     16          1           0        2.841733   -1.882996   -0.766170
     17          1           0        2.480951   -0.243818   -1.295825
     18          1           0        1.050411    0.106336    0.745651
     19          1           0        1.413243   -1.542155    1.278315
     20          1           0        0.474404   -1.276442   -0.200633
     21          6           0       -5.185173    0.325500   -0.213782
     22          6           0       -5.911194   -0.959003    0.187376
     23          6           0       -7.383200   -0.959840   -0.226140
     24          1           0       -5.695840    1.185190    0.241297
     25          1           0       -5.261351    0.456892   -1.302051
     26          1           0       -5.832485   -1.088654    1.274395
     27          1           0       -5.398626   -1.815750   -0.268556
     28          1           0       -7.478436   -0.855128   -1.311758
     29          1           0       -7.914760   -0.123900    0.239960
     30          1           0       -7.882975   -1.887289    0.070378
     31          6           0       -3.712699    0.341355    0.192787
     32          6           0       -2.986677    1.625859   -0.208371
     33          6           0       -1.514672    1.626696    0.205145
     34          1           0       -3.636520    0.209964    1.281056
     35          1           0       -3.202032   -0.518335   -0.262292
     36          1           0       -3.499246    2.482606    0.247561
     37          1           0       -3.065387    1.755509   -1.295390
     38          1           0       -0.983112    0.790755   -0.260955
     39          1           0       -1.419435    1.521983    1.290762
     40          1           0       -1.014896    2.554145   -0.091373
 ---------------------------------------------------------------------

 SCF Done:  E(RHF) =  -470.732258961     A.U. after   11 cycles
 E2 =    -0.1582790394D+01 EUMP2 =    -0.47231504935490D+03

 The electronic state is 1-A.
 Alpha  occ. eigenvalues --  -11.21587 -11.21578 -11.21567 -11.21537 -11.21384
 Alpha  occ. eigenvalues --  -11.21370 -11.21324 -11.21310 -11.21060 -11.21054
 Alpha  occ. eigenvalues --  -11.20977 -11.20925  -1.08412  -1.08386  -1.03537
 Alpha  occ. eigenvalues --   -1.03456  -0.96034  -0.95865  -0.87102  -0.86839
 Alpha  occ. eigenvalues --   -0.79685  -0.79446  -0.78238  -0.78183  -0.65062
 Alpha  occ. eigenvalues --   -0.65003  -0.61017  -0.60803  -0.59380  -0.59265
 Alpha  occ. eigenvalues --   -0.57573  -0.57561  -0.55438  -0.55066  -0.52790
 Alpha  occ. eigenvalues --   -0.52640  -0.52421  -0.52194  -0.50064  -0.49679
 Alpha  occ. eigenvalues --   -0.47951  -0.47778  -0.46676  -0.46465  -0.45807
 Alpha  occ. eigenvalues --   -0.45719  -0.45676  -0.45603  -0.43754  -0.43726
 Alpha virt. eigenvalues --    0.22336   0.22976   0.23674   0.24792   0.26294
 Alpha virt. eigenvalues --    0.26552   0.27056   0.27435   0.27749   0.29220
 Alpha virt. eigenvalues --    0.29840   0.31349   0.31829   0.31862   0.32203

 Mulliken charges:
               1
     1  C   -0.298270
     2  C   -0.299649
     3  C   -0.475690
     4  H    0.149579
     5  H    0.149487
     6  H    0.151897
     7  H    0.151957
     8  H    0.155155
     9  H    0.155139
    10  H    0.160208
    11  C   -0.298585
    12  C   -0.300078
    13  C   -0.480398
    14  H    0.149498
    15  H    0.150048
    16  H    0.151596
    17  H    0.151800
    18  H    0.163720
    19  H    0.154781
    20  H    0.158693
    21  C   -0.298231
    22  C   -0.299597
    23  C   -0.475681
    24  H    0.149624
    25  H    0.149359
    26  H    0.151947
    27  H    0.151853
    28  H    0.155115
    29  H    0.155145
    30  H    0.160176
    31  C   -0.297992
    32  C   -0.300154
    33  C   -0.481134
    34  H    0.149664
    35  H    0.149143
    36  H    0.151298
    37  H    0.151331
    38  H    0.164364
    39  H    0.154365
    40  H    0.158518
 Sum of Mulliken charges =  -0.00000

 Dipole moment (field-independent basis, Debye):
    X=              0.0217    Y=             -0.0057    Z=              0.0129  Tot=              0.0259
 Quadrupole moment (field-independent basis, Debye-Ang):
   XX=            -87.1018   YY=            -83.8332   ZZ=            -84.1455
   XY=             -0.4640   XZ=              0.0456   YZ=              0.0908

 Normal termination of Gaussian 16 at Wed May  5 16:46:37 2021.
