 Gaussian 16, Revision A.03,
 Gaussian 16:  EM64L-G16RevA.03 25-Dec-2016

 -------------
 #p 6-31g* mp2
 -------------

 ------------------------------------------------------
 Input file generated by CHIRIPA (05-May-2021 14:55:24)
 ------------------------------------------------------
 Symbolic Z-matrix:
 Charge =  0 Multiplicity = 1

                         Standard orientation:
 ---------------------------------------------------------------------
 Center     Atomic      Atomic             Coordinates (Angstroms)
 Number     Number       Type             X           Y           Z
 ---------------------------------------------------------------------
      1          6           0        1.843941    0.656612    2.462147
      2          6           0        1.045924    1.218078    1.459926
      3          6           0        1.212820    0.840071    0.124335
      4          6           0        2.191648   -0.106359   -0.174758
      5          6           0        3.002341   -0.683849    0.801241
      6          6           0        2.817885   -0.290890    2.130190
      7          1           0        1.707472    0.956064    3.497086
      8          1           0        0.288763    1.954143    1.714801
      9          1           0        0.608794    1.258779   -0.671437
     10          1           0        3.748868   -1.415246    0.516330
     11          1           0        3.439080   -0.728604    2.906443
     12          7           0        2.377629   -0.514453   -1.585173
     13          8           0        3.246941   -1.350242   -1.822638
     14          8           0        1.650566    0.009199   -2.426485
     15          6           0       -2.548514    0.740311    0.170355
     16          6           0       -2.467691    1.781090   -0.946888
     17          6           0       -2.031134    3.156942   -0.442662
     18          1           0       -3.250995    1.090580    0.938976
     19          1           0       -1.567077    0.658792    0.657727
     20          1           0       -3.448624    1.859620   -1.432912
     21          1           0       -1.765465    1.428214   -1.713030
     22          1           0       -1.042546    3.100232    0.024330
     23          1           0       -2.735269    3.534090    0.306040
     24          1           0       -1.980025    3.885581   -1.257728
     25          6           0       -2.983637   -0.640215   -0.318056
     26          6           0       -3.064460   -1.680993    0.799187
     27          6           0       -3.501018   -3.056845    0.294962
     28          1           0       -3.965074   -0.558695   -0.805428
     29          1           0       -2.281156   -0.990483   -1.086676
     30          1           0       -3.766686   -1.328118    1.565330
     31          1           0       -2.083528   -1.759525    1.285211
     32          1           0       -2.796883   -3.433993   -0.453740
     33          1           0       -4.489605   -3.000136   -0.172030
     34          1           0       -3.552127   -3.785485    1.110027
 ---------------------------------------------------------------------

 SCF Done:  E(RHF) =  -669.533584038     A.U. after   15 cycles
 E2 =    -0.2095144634D+01 EUMP2 =    -0.67162872867251D+03

 The electronic state is 1-A.
 Alpha  occ. eigenvalues --  -20.60846 -20.60840 -15.85895 -11.31248 -11.27819
 Alpha  occ. eigenvalues --  -11.27790 -11.27550 -11.26829 -11.26784 -11.22040
 Alpha  occ. eigenvalues --  -11.21846 -11.21734 -11.21704 -11.21505 -11.21105
 Alpha  occ. eigenvalues --   -1.59918  -1.39472  -1.19433  -1.08828  -1.08744
 Alpha  occ. eigenvalues --   -1.04856  -1.03872  -0.96334  -0.95658  -0.87352
 Alpha  occ. eigenvalues --   -0.86228  -0.82525  -0.79935  -0.78550  -0.77536
 Alpha  occ. eigenvalues --   -0.72116  -0.71241  -0.70559  -0.65548  -0.65018
 Alpha  occ. eigenvalues --   -0.64834  -0.62369  -0.61020  -0.59687  -0.57934
 Alpha  occ. eigenvalues --   -0.55722  -0.55291  -0.53219  -0.53013  -0.52939
 Alpha  occ. eigenvalues --   -0.52715  -0.50295  -0.48873  -0.48870  -0.48227
 Alpha  occ. eigenvalues --   -0.46955  -0.46055  -0.45958  -0.44876  -0.44084
 Alpha  occ. eigenvalues --   -0.37406  -0.36335
 Alpha virt. eigenvalues --    0.04952   0.11160   0.16314   0.19793   0.22942
 Alpha virt. eigenvalues --    0.23888   0.25846   0.26250   0.27822   0.28166
 Alpha virt. eigenvalues --    0.29550   0.29711   0.31371   0.31494   0.32334

 Mulliken charges:
               1
     1  C   -0.171850
     2  C   -0.224244
     3  C   -0.174653
     4  C    0.156991
     5  C   -0.170583
     6  C   -0.218980
     7  H    0.226422
     8  H    0.229574
     9  H    0.284870
    10  H    0.275818
    11  H    0.223825
    12  N    0.488110
    13  O   -0.459856
    14  O   -0.461514
    15  C   -0.307772
    16  C   -0.310179
    17  C   -0.479818
    18  H    0.148036
    19  H    0.150516
    20  H    0.158145
    21  H    0.161439
    22  H    0.142776
    23  H    0.157494
    24  H    0.167909
    25  C   -0.299130
    26  C   -0.300222
    27  C   -0.476260
    28  H    0.150802
    29  H    0.156753
    30  H    0.149969
    31  H    0.151735
    32  H    0.158639
    33  H    0.155662
    34  H    0.159579
 Sum of Mulliken charges =  -0.00000

 Dipole moment (field-independent basis, Debye):
    X=             -0.6908    Y=              1.3791    Z=              4.8700  Tot=              5.1084
 Quadrupole moment (field-independent basis, Debye-Ang):
   XX=            -94.2067   YY=            -94.5924   ZZ=            -96.5355
   XY=             -0.0492   XZ=             12.4849   YZ=             -2.0246

 Normal termination of Gaussian 16 at Thu May  6 06:23:35 2021.
