 Gaussian 16, Revision A.03,
 Gaussian 16:  EM64L-G16RevA.03 25-Dec-2016

 -------------
 #p 6-31g* mp2
 -------------

 ------------------------------------------------------
 Input file generated by CHIRIPA (05-May-2021 14:51:14)
 ------------------------------------------------------
 Symbolic Z-matrix:
 Charge =  0 Multiplicity = 1

                         Standard orientation:
 ---------------------------------------------------------------------
 Center     Atomic      Atomic             Coordinates (Angstroms)
 Number     Number       Type             X           Y           Z
 ---------------------------------------------------------------------
      1          6           0        3.006108    1.248086    0.344993
      2          6           0        1.491096    1.450152    0.388522
      3          6           0        1.082482    2.687513    1.188375
      4          1           0        3.388252    1.165455    1.371679
      5          1           0        3.475567    2.140092   -0.092418
      6          1           0        1.024523    0.557463    0.824449
      7          1           0        1.112488    1.532120   -0.638393
      8          1           0        1.520990    3.590630    0.751693
      9          1           0        1.432525    2.610435    2.222846
     10          1           0       -0.004632    2.812867    1.206524
     11          6           0        3.430213    0.015105   -0.451010
     12          6           0        4.945224   -0.186960   -0.494538
     13          6           0        5.353838   -1.424321   -1.294392
     14          1           0        2.960753   -0.876900   -0.013598
     15          1           0        3.048069    0.097737   -1.477695
     16          1           0        5.323832   -0.268928    0.532376
     17          1           0        5.411798    0.705729   -0.930465
     18          1           0        5.003796   -1.347244   -2.328863
     19          1           0        4.915330   -2.327438   -0.857709
     20          1           0        6.440952   -1.549675   -1.312540
     21          6           0       -2.652576   -0.709096    0.560492
     22          6           0       -1.982508   -2.082802    0.516580
     23          6           0       -0.853020   -2.222498    1.537626
     24          1           0       -1.895877    0.066827    0.380788
     25          1           0       -3.046711   -0.533250    1.571002
     26          1           0       -1.590970   -2.256586   -0.493921
     27          1           0       -2.740926   -2.855557    0.696219
     28          1           0       -1.232188   -2.075333    2.554078
     29          1           0       -0.075698   -1.472960    1.357176
     30          1           0       -0.387959   -3.212050    1.488965
     31          6           0       -3.783745   -0.554095   -0.454476
     32          6           0       -4.453812    0.819610   -0.410563
     33          6           0       -5.583300    0.959307   -1.431610
     34          1           0       -3.389609   -0.729942   -1.464985
     35          1           0       -4.540444   -1.330019   -0.274772
     36          1           0       -3.695395    1.592364   -0.590203
     37          1           0       -4.845351    0.993394    0.599938
     38          1           0       -6.360622    0.209768   -1.251159
     39          1           0       -5.204133    0.812142   -2.448061
     40          1           0       -6.048362    1.948858   -1.382950
 ---------------------------------------------------------------------

 SCF Done:  E(RHF) =  -470.733353284     A.U. after   11 cycles
 E2 =    -0.1583111648D+01 EUMP2 =    -0.47231646493234D+03

 The electronic state is 1-A.
 Alpha  occ. eigenvalues --  -11.21648 -11.21616 -11.21599 -11.21598 -11.21434
 Alpha  occ. eigenvalues --  -11.21393 -11.21374 -11.21332 -11.21102 -11.21081
 Alpha  occ. eigenvalues --  -11.21079 -11.21069  -1.08466  -1.08419  -1.03569
 Alpha  occ. eigenvalues --   -1.03520  -0.96002  -0.95981  -0.87026  -0.86992
 Alpha  occ. eigenvalues --   -0.79672  -0.79555  -0.78318  -0.78194  -0.65152
 Alpha  occ. eigenvalues --   -0.65004  -0.61065  -0.60836  -0.59404  -0.59312
 Alpha  occ. eigenvalues --   -0.57615  -0.57592  -0.55305  -0.55260  -0.52699
 Alpha  occ. eigenvalues --   -0.52675  -0.52462  -0.52380  -0.50019  -0.49873
 Alpha  occ. eigenvalues --   -0.48073  -0.47828  -0.46822  -0.46501  -0.45949
 Alpha  occ. eigenvalues --   -0.45775  -0.45730  -0.45423  -0.43810  -0.43781
 Alpha virt. eigenvalues --    0.20574   0.23003   0.23688   0.24299   0.25757
 Alpha virt. eigenvalues --    0.26188   0.27077   0.27189   0.28688   0.29135
 Alpha virt. eigenvalues --    0.30622   0.31496   0.31721   0.31774   0.32028

 Mulliken charges:
               1
     1  C   -0.297671
     2  C   -0.310031
     3  C   -0.475774
     4  H    0.149902
     5  H    0.149747
     6  H    0.161147
     7  H    0.151428
     8  H    0.155343
     9  H    0.155586
    10  H    0.160813
    11  C   -0.299222
    12  C   -0.299661
    13  C   -0.475766
    14  H    0.150126
    15  H    0.149462
    16  H    0.152138
    17  H    0.151995
    18  H    0.155097
    19  H    0.155406
    20  H    0.160317
    21  C   -0.301536
    22  C   -0.298894
    23  C   -0.483507
    24  H    0.153128
    25  H    0.149276
    26  H    0.152196
    27  H    0.151951
    28  H    0.155262
    29  H    0.161521
    30  H    0.160271
    31  C   -0.298237
    32  C   -0.299638
    33  C   -0.475693
    34  H    0.149589
    35  H    0.149654
    36  H    0.151756
    37  H    0.151912
    38  H    0.155193
    39  H    0.155174
    40  H    0.160238
 Sum of Mulliken charges =  -0.00000

 Dipole moment (field-independent basis, Debye):
    X=              0.0135    Y=              0.0061    Z=              0.0038  Tot=              0.0153
 Quadrupole moment (field-independent basis, Debye-Ang):
   XX=            -85.2260   YY=            -85.1680   ZZ=            -84.3350
   XY=              0.8701   XZ=             -0.8179   YZ=             -1.0017

 Normal termination of Gaussian 16 at Wed May  5 20:02:33 2021.
