 Gaussian 16, Revision A.03,
 Gaussian 16:  EM64L-G16RevA.03 25-Dec-2016

 -------------
 #p 6-31g* mp2
 -------------

 ------------------------------------------------------
 Input file generated by CHIRIPA (05-May-2021 14:51:10)
 ------------------------------------------------------
 Symbolic Z-matrix:
 Charge =  0 Multiplicity = 1

                         Standard orientation:
 ---------------------------------------------------------------------
 Center     Atomic      Atomic             Coordinates (Angstroms)
 Number     Number       Type             X           Y           Z
 ---------------------------------------------------------------------
      1          6           0        3.213074   -0.344060   -0.815754
      2          6           0        3.088378   -1.741654   -0.208161
      3          6           0        3.021343   -2.842713   -1.266920
      4          1           0        2.358124   -0.162987   -1.481499
      5          1           0        4.113062   -0.304322   -1.444910
      6          1           0        2.189645   -1.778330    0.420766
      7          1           0        3.943625   -1.919348    0.456364
      8          1           0        3.922619   -2.834935   -1.888403
      9          1           0        2.158673   -2.693117   -1.924204
     10          1           0        2.932420   -3.833549   -0.810634
     11          6           0        3.281203    0.767343    0.230128
     12          6           0        3.405899    2.164937   -0.377464
     13          6           0        3.472934    3.265996    0.681294
     14          1           0        2.381215    0.727605    0.859285
     15          1           0        4.136153    0.586270    0.895874
     16          1           0        2.550652    2.342630   -1.041989
     17          1           0        4.304632    2.201613   -1.006391
     18          1           0        4.335604    3.116399    1.338578
     19          1           0        2.571658    3.258218    1.302778
     20          1           0        3.561856    4.256832    0.225009
     21          6           0       -3.772002    0.341507    0.248353
     22          6           0       -4.620885    0.271280   -1.021470
     23          6           0       -5.666384    1.384464   -1.095944
     24          1           0       -4.430910    0.286942    1.125740
     25          1           0       -3.272043    1.318963    0.293226
     26          1           0       -5.118006   -0.706281   -1.064633
     27          1           0       -3.959865    0.325825   -1.895937
     28          1           0       -5.184519    2.367360   -1.077995
     29          1           0       -6.349241    1.329391   -0.241969
     30          1           0       -6.261952    1.315274   -2.011570
     31          6           0       -2.722274   -0.764790    0.337272
     32          6           0       -1.873391   -0.694562    1.607096
     33          6           0       -0.827893   -1.807747    1.681569
     34          1           0       -3.222235   -1.742246    0.292398
     35          1           0       -2.063367   -0.710224   -0.540116
     36          1           0       -2.534413   -0.749108    2.481563
     37          1           0       -1.376270    0.282998    1.650258
     38          1           0       -0.145035   -1.752674    0.827594
     39          1           0       -1.309757   -2.790643    1.663621
     40          1           0       -0.232325   -1.738557    2.597196
 ---------------------------------------------------------------------

 SCF Done:  E(RHF) =  -470.733289329     A.U. after   11 cycles
 E2 =    -0.1582689032D+01 EUMP2 =    -0.47231597836145D+03

 The electronic state is 1-A.
 Alpha  occ. eigenvalues --  -11.21669 -11.21637 -11.21613 -11.21538 -11.21457
 Alpha  occ. eigenvalues --  -11.21404 -11.21396 -11.21345 -11.21132 -11.21098
 Alpha  occ. eigenvalues --  -11.21084 -11.21047  -1.08483  -1.08424  -1.03587
 Alpha  occ. eigenvalues --   -1.03516  -0.96034  -0.95971  -0.87058  -0.86982
 Alpha  occ. eigenvalues --   -0.79680  -0.79551  -0.78300  -0.78230  -0.65178
 Alpha  occ. eigenvalues --   -0.65010  -0.61095  -0.60825  -0.59398  -0.59339
 Alpha  occ. eigenvalues --   -0.57649  -0.57571  -0.55355  -0.55237  -0.52731
 Alpha  occ. eigenvalues --   -0.52660  -0.52467  -0.52387  -0.50080  -0.49845
 Alpha  occ. eigenvalues --   -0.48022  -0.47853  -0.46823  -0.46473  -0.45885
 Alpha  occ. eigenvalues --   -0.45778  -0.45753  -0.45566  -0.43833  -0.43774
 Alpha virt. eigenvalues --    0.20791   0.23173   0.23906   0.24546   0.26130
 Alpha virt. eigenvalues --    0.26924   0.27077   0.27566   0.28001   0.29121
 Alpha virt. eigenvalues --    0.30684   0.31591   0.31672   0.31756   0.32125

 Mulliken charges:
               1
     1  C   -0.297878
     2  C   -0.307946
     3  C   -0.475410
     4  H    0.148579
     5  H    0.149624
     6  H    0.160177
     7  H    0.151994
     8  H    0.155110
     9  H    0.154529
    10  H    0.160593
    11  C   -0.298680
    12  C   -0.299593
    13  C   -0.475663
    14  H    0.149661
    15  H    0.149859
    16  H    0.151541
    17  H    0.152054
    18  H    0.155313
    19  H    0.154997
    20  H    0.160243
    21  C   -0.298348
    22  C   -0.299690
    23  C   -0.475742
    24  H    0.149853
    25  H    0.149480
    26  H    0.152059
    27  H    0.151891
    28  H    0.155221
    29  H    0.155266
    30  H    0.160391
    31  C   -0.298451
    32  C   -0.299537
    33  C   -0.481570
    34  H    0.149866
    35  H    0.149340
    36  H    0.152395
    37  H    0.151466
    38  H    0.160319
    39  H    0.155921
    40  H    0.160767
 Sum of Mulliken charges =  -0.00000

 Dipole moment (field-independent basis, Debye):
    X=             -0.0237    Y=             -0.0152    Z=              0.0200  Tot=              0.0345
 Quadrupole moment (field-independent basis, Debye-Ang):
   XX=            -83.8828   YY=            -85.7821   ZZ=            -85.0222
   XY=              0.8890   XZ=             -0.4790   YZ=             -0.7752

 Normal termination of Gaussian 16 at Thu May  6 03:47:55 2021.
