 Gaussian 16, Revision A.03,
 Gaussian 16:  EM64L-G16RevA.03 25-Dec-2016

 -------------
 #p 6-31g* mp2
 -------------

 ------------------------------------------------------
 Input file generated by CHIRIPA (05-May-2021 14:55:22)
 ------------------------------------------------------
 Symbolic Z-matrix:
 Charge =  0 Multiplicity = 1

                         Standard orientation:
 ---------------------------------------------------------------------
 Center     Atomic      Atomic             Coordinates (Angstroms)
 Number     Number       Type             X           Y           Z
 ---------------------------------------------------------------------
      1          6           0        4.616387    1.150379   -1.032593
      2          6           0        3.656645    0.455980   -1.776385
      3          6           0        2.628449   -0.240682   -1.134494
      4          6           0        2.590094   -0.221682    0.258868
      5          6           0        3.531565    0.460787    1.027736
      6          6           0        4.550899    1.150566    0.364630
      7          1           0        5.411672    1.688890   -1.539470
      8          1           0        3.705016    0.454095   -2.861604
      9          1           0        1.872439   -0.786538   -1.685774
     10          1           0        3.457138    0.444330    2.108295
     11          1           0        5.294884    1.688978    0.944840
     12          7           0        1.506279   -0.955564    0.949638
     13          8           0        1.494614   -0.923345    2.178240
     14          8           0        0.688973   -1.549104    0.249383
     15          6           0       -3.952412    0.692837    0.128400
     16          6           0       -3.460988    2.087272   -0.261524
     17          6           0       -4.288147    3.204862    0.374556
     18          1           0       -5.004968    0.585885   -0.167630
     19          1           0       -3.923837    0.594234    1.222408
     20          1           0       -3.489174    2.182733   -1.354550
     21          1           0       -2.409425    2.190850    0.035296
     22          1           0       -4.250859    3.137921    1.466677
     23          1           0       -5.336744    3.129757    0.068932
     24          1           0       -3.919585    4.193142    0.082454
     25          6           0       -3.135509   -0.434970   -0.499652
     26          6           0       -3.626932   -1.829404   -0.109729
     27          6           0       -2.799774   -2.946994   -0.745808
     28          1           0       -3.164085   -0.336366   -1.593661
     29          1           0       -2.082954   -0.328018   -0.203622
     30          1           0       -4.678496   -1.932981   -0.406549
     31          1           0       -3.598747   -1.924864    0.983298
     32          1           0       -1.751177   -2.871890   -0.440185
     33          1           0       -2.837062   -2.880053   -1.837929
     34          1           0       -3.168336   -3.935275   -0.453707
 ---------------------------------------------------------------------

 SCF Done:  E(RHF) =  -669.536589183     A.U. after   15 cycles
 E2 =    -0.2091414764D+01 EUMP2 =    -0.67162800394786D+03

 The electronic state is 1-A.
 Alpha  occ. eigenvalues --  -20.61081 -20.61075 -15.86100 -11.31355 -11.27912
 Alpha  occ. eigenvalues --  -11.27904 -11.27640 -11.26906 -11.26895 -11.21004
 Alpha  occ. eigenvalues --  -11.20592 -11.20540 -11.20397 -11.20217 -11.19603
 Alpha  occ. eigenvalues --   -1.60131  -1.39690  -1.19518  -1.08936  -1.07481
 Alpha  occ. eigenvalues --   -1.04904  -1.02576  -0.95788  -0.95019  -0.86308
 Alpha  occ. eigenvalues --   -0.86042  -0.82626  -0.78696  -0.77690  -0.77247
 Alpha  occ. eigenvalues --   -0.72331  -0.71435  -0.70627  -0.65178  -0.64908
 Alpha  occ. eigenvalues --   -0.64100  -0.62251  -0.59956  -0.58445  -0.56629
 Alpha  occ. eigenvalues --   -0.55413  -0.54284  -0.53240  -0.52995  -0.51755
 Alpha  occ. eigenvalues --   -0.51444  -0.49146  -0.49081  -0.48889  -0.46988
 Alpha  occ. eigenvalues --   -0.45720  -0.45247  -0.44796  -0.44498  -0.42833
 Alpha  occ. eigenvalues --   -0.37494  -0.36502
 Alpha virt. eigenvalues --    0.04816   0.11154   0.16306   0.21259   0.23782
 Alpha virt. eigenvalues --    0.25305   0.27201   0.27483   0.28041   0.28573
 Alpha virt. eigenvalues --    0.29006   0.30863   0.32117   0.32470   0.32666

 Mulliken charges:
               1
     1  C   -0.170367
     2  C   -0.218549
     3  C   -0.170501
     4  C    0.156987
     5  C   -0.170341
     6  C   -0.218647
     7  H    0.226280
     8  H    0.224229
     9  H    0.276466
    10  H    0.275904
    11  H    0.224025
    12  N    0.494546
    13  O   -0.457981
    14  O   -0.466108
    15  C   -0.297834
    16  C   -0.298427
    17  C   -0.475095
    18  H    0.146361
    19  H    0.150894
    20  H    0.148757
    21  H    0.150646
    22  H    0.155575
    23  H    0.154173
    24  H    0.156855
    25  C   -0.303581
    26  C   -0.296219
    27  C   -0.487344
    28  H    0.142249
    29  H    0.164333
    30  H    0.144938
    31  H    0.153955
    32  H    0.184036
    33  H    0.145715
    34  H    0.154069
 Sum of Mulliken charges =  -0.00000

 Dipole moment (field-independent basis, Debye):
    X=              4.2096    Y=              2.5344    Z=             -2.3119  Tot=              5.4303
 Quadrupole moment (field-independent basis, Debye-Ang):
   XX=            -75.8231   YY=            -97.5962   ZZ=            -91.8150
   XY=              7.1004   XZ=             -3.3138   YZ=              2.1002

 Normal termination of Gaussian 16 at Wed May  5 16:00:20 2021.
