 Gaussian 16, Revision A.03,
 Gaussian 16:  EM64L-G16RevA.03 25-Dec-2016

 -------------
 #p 6-31g* mp2
 -------------

 ------------------------------------------------------
 Input file generated by CHIRIPA (05-May-2021 14:53:11)
 ------------------------------------------------------
 Symbolic Z-matrix:
 Charge =  0 Multiplicity = 1

                         Standard orientation:
 ---------------------------------------------------------------------
 Center     Atomic      Atomic             Coordinates (Angstroms)
 Number     Number       Type             X           Y           Z
 ---------------------------------------------------------------------
      1          6           0        4.390496   -0.173181    0.055373
      2          6           0        5.896948   -0.008715   -0.148437
      3          6           0        6.694473   -1.221106    0.333078
      4          1           0        4.187953   -0.347398    1.121004
      5          1           0        4.051292   -1.071831   -0.478258
      6          1           0        6.232971    0.890128    0.384279
      7          1           0        6.095911    0.165321   -1.213679
      8          1           0        6.387501   -2.123060   -0.206225
      9          1           0        6.525339   -1.394135    1.400812
     10          1           0        7.768949   -1.082224    0.177924
     11          6           0        3.579699    1.030679   -0.421134
     12          6           0        2.073247    0.866213   -0.217323
     13          6           0        1.275722    2.078603   -0.698838
     14          1           0        3.918904    1.929329    0.112498
     15          1           0        3.782242    1.204895   -1.486765
     16          1           0        1.874284    0.692176    0.847919
     17          1           0        1.737225   -0.032630   -0.750039
     18          1           0        1.444856    2.251632   -1.766572
     19          1           0        1.582694    2.980557   -0.159535
     20          1           0        0.201246    1.939722   -0.543684
     21          6           0       -5.485194    0.430276   -0.250481
     22          6           0       -4.675738    1.104272    0.669862
     23          6           0       -3.360038    0.689049    0.895853
     24          6           0       -2.884057   -0.408940    0.180904
     25          6           0       -3.665871   -1.101120   -0.742645
     26          6           0       -4.978571   -0.668332   -0.952560
     27          1           0       -6.506095    0.759654   -0.419793
     28          1           0       -5.066526    1.957781    1.216534
     29          1           0       -2.711619    1.192601    1.602540
     30          1           0       -3.248267   -1.948610   -1.272537
     31          1           0       -5.604923   -1.193677   -1.667920
     32          7           0       -1.492773   -0.857816    0.411640
     33          8           0       -1.097114   -1.827958   -0.230944
     34          8           0       -0.824289   -0.231005    1.230708
 ---------------------------------------------------------------------

 SCF Done:  E(RHF) =  -669.536071168     A.U. after   15 cycles
 E2 =    -0.2092251636D+01 EUMP2 =    -0.67162832280458D+03

 The electronic state is 1-A.
 Alpha  occ. eigenvalues --  -20.61010 -20.60998 -15.86011 -11.31322 -11.27879
 Alpha  occ. eigenvalues --  -11.27875 -11.27611 -11.26881 -11.26871 -11.20751
 Alpha  occ. eigenvalues --  -11.20332 -11.20292 -11.20171 -11.19947 -11.19884
 Alpha  occ. eigenvalues --   -1.60048  -1.39608  -1.19485  -1.08893  -1.07283
 Alpha  occ. eigenvalues --   -1.04877  -1.02401  -0.95740  -0.94927  -0.86279
 Alpha  occ. eigenvalues --   -0.85957  -0.82575  -0.78467  -0.77630  -0.77026
 Alpha  occ. eigenvalues --   -0.72239  -0.71362  -0.70592  -0.65142  -0.64879
 Alpha  occ. eigenvalues --   -0.63925  -0.62224  -0.59806  -0.58295  -0.56499
 Alpha  occ. eigenvalues --   -0.55379  -0.54248  -0.53207  -0.52969  -0.51663
 Alpha  occ. eigenvalues --   -0.51341  -0.49062  -0.48996  -0.48885  -0.46742
 Alpha  occ. eigenvalues --   -0.45516  -0.45005  -0.44549  -0.44416  -0.42669
 Alpha  occ. eigenvalues --   -0.37459  -0.36476
 Alpha virt. eigenvalues --    0.04873   0.11158   0.16349   0.21288   0.23924
 Alpha virt. eigenvalues --    0.25252   0.27213   0.27778   0.28023   0.28768
 Alpha virt. eigenvalues --    0.28922   0.30770   0.31933   0.32418   0.32869

 Mulliken charges:
               1
     1  C   -0.297419
     2  C   -0.298692
     3  C   -0.475027
     4  H    0.151093
     5  H    0.151819
     6  H    0.149461
     7  H    0.149589
     8  H    0.155094
     9  H    0.154855
    10  H    0.156986
    11  C   -0.299171
    12  C   -0.298616
    13  C   -0.475125
    14  H    0.144157
    15  H    0.143980
    16  H    0.167961
    17  H    0.159062
    18  H    0.148005
    19  H    0.149004
    20  H    0.155525
    21  C   -0.170480
    22  C   -0.218415
    23  C   -0.171325
    24  C    0.158263
    25  C   -0.170593
    26  C   -0.218526
    27  H    0.226138
    28  H    0.224046
    29  H    0.276101
    30  H    0.275856
    31  H    0.223934
    32  N    0.488997
    33  O   -0.459018
    34  O   -0.457521
 Sum of Mulliken charges =  -0.00000

 Dipole moment (field-independent basis, Debye):
    X=             -5.2303    Y=              1.3892    Z=             -0.6777  Tot=              5.4539
 Quadrupole moment (field-independent basis, Debye-Ang):
   XX=            -68.6296   YY=            -94.6993   ZZ=            -92.6042
   XY=             -1.8955   XZ=              2.1651   YZ=              4.4097

 Normal termination of Gaussian 16 at Wed May  5 21:43:15 2021.
