 Gaussian 16, Revision A.03,
 Gaussian 16:  EM64L-G16RevA.03 25-Dec-2016

 -------------
 #p 6-31g* mp2
 -------------

 ------------------------------------------------------
 Input file generated by CHIRIPA (05-May-2021 14:55:20)
 ------------------------------------------------------
 Symbolic Z-matrix:
 Charge =  0 Multiplicity = 1

                         Standard orientation:
 ---------------------------------------------------------------------
 Center     Atomic      Atomic             Coordinates (Angstroms)
 Number     Number       Type             X           Y           Z
 ---------------------------------------------------------------------
      1          6           0       -1.463567   -1.754774    1.536642
      2          6           0       -2.709014   -2.214269    1.095906
      3          6           0       -3.509088   -1.416894    0.272121
      4          6           0       -3.030467   -0.159638   -0.093283
      5          6           0       -1.794161    0.326280    0.329474
      6          6           0       -1.010914   -0.488199    1.152697
      7          1           0       -0.848586   -2.380837    2.176360
      8          1           0       -3.063106   -3.197476    1.392499
      9          1           0       -4.477298   -1.747814   -0.083518
     10          1           0       -1.468114    1.310935    0.017120
     11          1           0       -0.044106   -0.128749    1.493465
     12          7           0       -3.868562    0.693561   -0.965090
     13          8           0       -3.424161    1.797367   -1.272915
     14          8           0       -4.953994    0.242337   -1.324078
     15          6           0        3.762674   -0.364132   -0.204454
     16          6           0        5.053940   -0.742848   -0.930534
     17          6           0        5.160380   -2.243516   -1.203409
     18          1           0        3.707664   -0.915559    0.744149
     19          1           0        2.902858   -0.690280   -0.805902
     20          1           0        5.911056   -0.414849   -0.328551
     21          1           0        5.105974   -0.190311   -1.877430
     22          1           0        4.324317   -2.582546   -1.823616
     23          1           0        5.133972   -2.808360   -0.265936
     24          1           0        6.090958   -2.492047   -1.723137
     25          6           0        3.641711    1.132786    0.075426
     26          6           0        2.350447    1.511502    0.801506
     27          6           0        2.244006    3.012169    1.074381
     28          1           0        4.501527    1.458933    0.676874
     29          1           0        3.696721    1.684212   -0.873177
     30          1           0        2.298412    0.958965    1.748402
     31          1           0        1.493330    1.183502    0.199523
     32          1           0        2.270413    3.577014    0.136909
     33          1           0        3.080070    3.351200    1.694588
     34          1           0        1.313428    3.260701    1.594110
 ---------------------------------------------------------------------

 SCF Done:  E(RHF) =  -669.535286065     A.U. after   15 cycles
 E2 =    -0.2091915346D+01 EUMP2 =    -0.67162720141103D+03

 The electronic state is 1-A.
 Alpha  occ. eigenvalues --  -20.60717 -20.60712 -15.85769 -11.31117 -11.27681
 Alpha  occ. eigenvalues --  -11.27659 -11.27396 -11.26699 -11.26583 -11.22642
 Alpha  occ. eigenvalues --  -11.22134 -11.22112 -11.22032 -11.21817 -11.21528
 Alpha  occ. eigenvalues --   -1.59793  -1.39347  -1.19277  -1.09160  -1.08674
 Alpha  occ. eigenvalues --   -1.04681  -1.04232  -0.96637  -0.95517  -0.87656
 Alpha  occ. eigenvalues --   -0.86074  -0.82363  -0.80360  -0.78989  -0.77381
 Alpha  occ. eigenvalues --   -0.71987  -0.71116  -0.70391  -0.65783  -0.64925
 Alpha  occ. eigenvalues --   -0.64681  -0.62093  -0.61596  -0.60003  -0.58263
 Alpha  occ. eigenvalues --   -0.55898  -0.55176  -0.53355  -0.53089  -0.53004
 Alpha  occ. eigenvalues --   -0.52743  -0.50571  -0.48781  -0.48744  -0.48563
 Alpha  occ. eigenvalues --   -0.47380  -0.46482  -0.46407  -0.44757  -0.44476
 Alpha  occ. eigenvalues --   -0.37258  -0.36270
 Alpha virt. eigenvalues --    0.05109   0.11365   0.16547   0.20182   0.22515
 Alpha virt. eigenvalues --    0.23675   0.25245   0.25736   0.27099   0.28228
 Alpha virt. eigenvalues --    0.29069   0.29961   0.30969   0.31352   0.31843

 Mulliken charges:
               1
     1  C   -0.172772
     2  C   -0.218354
     3  C   -0.171526
     4  C    0.158923
     5  C   -0.175955
     6  C   -0.224253
     7  H    0.225565
     8  H    0.223001
     9  H    0.275235
    10  H    0.275675
    11  H    0.235565
    12  N    0.488198
    13  O   -0.460760
    14  O   -0.460705
    15  C   -0.299955
    16  C   -0.300129
    17  C   -0.476215
    18  H    0.146110
    19  H    0.150964
    20  H    0.153010
    21  H    0.154529
    22  H    0.156195
    23  H    0.154038
    24  H    0.162436
    25  C   -0.297110
    26  C   -0.309589
    27  C   -0.476382
    28  H    0.152314
    29  H    0.154385
    30  H    0.147008
    31  H    0.150526
    32  H    0.161196
    33  H    0.158858
    34  H    0.159974
 Sum of Mulliken charges =  -0.00000

 Dipole moment (field-independent basis, Debye):
    X=              3.1851    Y=             -2.9309    Z=              3.0107  Tot=              5.2725
 Quadrupole moment (field-independent basis, Debye-Ang):
   XX=           -109.7777   YY=            -92.3281   ZZ=            -95.3880
   XY=             12.0379   XZ=             -9.2805   YZ=             -0.5488

 Normal termination of Gaussian 16 at Thu May  6 09:17:04 2021.
