 Gaussian 16, Revision A.03,
 Gaussian 16:  EM64L-G16RevA.03 25-Dec-2016

 -------------
 #p 6-31g* mp2
 -------------

 ------------------------------------------------------
 Input file generated by CHIRIPA (05-May-2021 14:51:12)
 ------------------------------------------------------
 Symbolic Z-matrix:
 Charge =  0 Multiplicity = 1

                         Standard orientation:
 ---------------------------------------------------------------------
 Center     Atomic      Atomic             Coordinates (Angstroms)
 Number     Number       Type             X           Y           Z
 ---------------------------------------------------------------------
      1          6           0        2.840379   -0.134470    0.387256
      2          6           0        2.382070    0.282007    1.785285
      3          6           0        0.862732    0.414355    1.894333
      4          1           0        2.481682    0.602738   -0.344048
      5          1           0        2.368228   -1.091120    0.124027
      6          1           0        2.856027    1.236900    2.046357
      7          1           0        2.742063   -0.456177    2.513369
      8          1           0        0.375304   -0.537499    1.659838
      9          1           0        0.489916    1.165199    1.190172
     10          1           0        0.557042    0.712870    2.901956
     11          6           0        4.356796   -0.270968    0.262452
     12          6           0        4.815105   -0.687445   -1.135577
     13          6           0        6.334442   -0.819794   -1.244626
     14          1           0        4.828946    0.685682    0.525681
     15          1           0        4.715493   -1.008177    0.993756
     16          1           0        4.455112    0.050739   -1.863661
     17          1           0        4.341148   -1.642339   -1.396649
     18          1           0        6.707259   -1.570637   -0.540464
     19          1           0        6.821871    0.132061   -1.010130
     20          1           0        6.640132   -1.118309   -2.252248
     21          6           0       -4.164079   -0.253739   -0.560009
     22          6           0       -4.336422   -1.501482    0.306835
     23          6           0       -5.471577   -2.404727   -0.176247
     24          1           0       -5.105968    0.311691   -0.568982
     25          1           0       -3.973623   -0.560258   -1.597875
     26          1           0       -4.525122   -1.192710    1.343014
     27          1           0       -3.393956   -2.063907    0.313899
     28          1           0       -5.286459   -2.741154   -1.201503
     29          1           0       -6.424053   -1.865008   -0.166540
     30          1           0       -5.577168   -3.290651    0.457669
     31          6           0       -3.033096    0.659176   -0.089698
     32          6           0       -2.860753    1.906921   -0.956542
     33          6           0       -1.725597    2.810165   -0.473461
     34          1           0       -3.223552    0.965696    0.948168
     35          1           0       -2.091207    0.093748   -0.080726
     36          1           0       -3.803219    2.469345   -0.963607
     37          1           0       -2.672052    1.598148   -1.992722
     38          1           0       -0.773122    2.270447   -0.483167
     39          1           0       -1.910716    3.146593    0.551795
     40          1           0       -1.620007    3.696088   -1.107377
 ---------------------------------------------------------------------

 SCF Done:  E(RHF) =  -470.733130026     A.U. after   11 cycles
 E2 =    -0.1582852335D+01 EUMP2 =    -0.47231598236105D+03

 The electronic state is 1-A.
 Alpha  occ. eigenvalues --  -11.21608 -11.21580 -11.21578 -11.21574 -11.21413
 Alpha  occ. eigenvalues --  -11.21357 -11.21354 -11.21289 -11.21075 -11.21069
 Alpha  occ. eigenvalues --  -11.21052 -11.20995  -1.08432  -1.08392  -1.03538
 Alpha  occ. eigenvalues --   -1.03491  -0.95987  -0.95941  -0.87012  -0.86953
 Alpha  occ. eigenvalues --   -0.79656  -0.79507  -0.78275  -0.78167  -0.65072
 Alpha  occ. eigenvalues --   -0.65017  -0.60999  -0.60846  -0.59354  -0.59314
 Alpha  occ. eigenvalues --   -0.57646  -0.57518  -0.55378  -0.55136  -0.52668
 Alpha  occ. eigenvalues --   -0.52648  -0.52484  -0.52319  -0.50043  -0.49773
 Alpha  occ. eigenvalues --   -0.48095  -0.47731  -0.46691  -0.46499  -0.45907
 Alpha  occ. eigenvalues --   -0.45716  -0.45683  -0.45503  -0.43777  -0.43757
 Alpha virt. eigenvalues --    0.21569   0.23050   0.23515   0.24750   0.26035
 Alpha virt. eigenvalues --    0.26089   0.27028   0.27530   0.27888   0.29443
 Alpha virt. eigenvalues --    0.30566   0.31557   0.31758   0.31867   0.32031

 Mulliken charges:
               1
     1  C   -0.298325
     2  C   -0.299637
     3  C   -0.482681
     4  H    0.148861
     5  H    0.149126
     6  H    0.151953
     7  H    0.151748
     8  H    0.154969
     9  H    0.163129
    10  H    0.160183
    11  C   -0.298231
    12  C   -0.299671
    13  C   -0.475712
    14  H    0.149689
    15  H    0.149771
    16  H    0.151929
    17  H    0.151797
    18  H    0.155196
    19  H    0.155252
    20  H    0.160240
    21  C   -0.298360
    22  C   -0.299451
    23  C   -0.475677
    24  H    0.149457
    25  H    0.149272
    26  H    0.152055
    27  H    0.151628
    28  H    0.155088
    29  H    0.155149
    30  H    0.160120
    31  C   -0.300436
    32  C   -0.299597
    33  C   -0.479589
    34  H    0.149797
    35  H    0.153177
    36  H    0.151830
    37  H    0.151663
    38  H    0.158388
    39  H    0.155777
    40  H    0.160123
 Sum of Mulliken charges =  -0.00000

 Dipole moment (field-independent basis, Debye):
    X=             -0.0042    Y=              0.0136    Z=              0.0086  Tot=              0.0166
 Quadrupole moment (field-independent basis, Debye-Ang):
   XX=            -86.2018   YY=            -84.1563   ZZ=            -84.4886
   XY=             -0.7280   XZ=             -0.3757   YZ=             -0.1367

 Normal termination of Gaussian 16 at Wed May  5 15:17:02 2021.
