 Gaussian 16, Revision A.03,
 Gaussian 16:  EM64L-G16RevA.03 25-Dec-2016

 -------------
 #p 6-31g* mp2
 -------------

 ------------------------------------------------------
 Input file generated by CHIRIPA (05-May-2021 14:57:25)
 ------------------------------------------------------
 Symbolic Z-matrix:
 Charge =  0 Multiplicity = 1

                         Standard orientation:
 ---------------------------------------------------------------------
 Center     Atomic      Atomic             Coordinates (Angstroms)
 Number     Number       Type             X           Y           Z
 ---------------------------------------------------------------------
      1          6           0       -4.440844   -2.113757    0.050931
      2          6           0       -3.073485   -1.944485    0.292169
      3          6           0       -2.480740   -0.684684    0.165274
      4          6           0       -3.288752    0.388810   -0.206235
      5          6           0       -4.653866    0.252171   -0.453389
      6          6           0       -5.225288   -1.016822   -0.320424
      7          1           0       -4.893021   -3.095971    0.151863
      8          1           0       -2.461829   -2.794583    0.580709
      9          1           0       -1.424629   -0.525393    0.346030
     10          1           0       -5.237815    1.118508   -0.739540
     11          1           0       -6.287454   -1.145321   -0.508403
     12          7           0       -2.672527    1.727371   -0.343786
     13          8           0       -3.406151    2.657149   -0.672335
     14          8           0       -1.467574    1.821411   -0.120445
     15          6           0        1.344927   -0.145998    1.660665
     16          6           0        2.325738    0.840275    1.808308
     17          6           0        3.463151    0.837809    0.995392
     18          6           0        3.588054   -0.170345    0.040764
     19          6           0        2.628280   -1.166725   -0.130552
     20          6           0        1.499058   -1.144590    0.693411
     21          1           0        0.464539   -0.136442    2.296448
     22          1           0        2.208689    1.617018    2.558651
     23          1           0        4.237841    1.589232    1.088326
     24          1           0        2.772890   -1.928127   -0.887369
     25          1           0        0.738960   -1.911813    0.576510
     26          7           0        4.787847   -0.183367   -0.825681
     27          8           0        4.874306   -1.082438   -1.659248
     28          8           0        5.619068    0.705743   -0.654828
 ---------------------------------------------------------------------

 SCF Done:  E(RHF) =  -868.336700924     A.U. after   16 cycles
 E2 =    -0.2601271815D+01 EUMP2 =    -0.87093797273934D+03

 The electronic state is 1-A.
 Alpha  occ. eigenvalues --  -20.61381 -20.61363 -20.60611 -20.60598 -15.86428
 Alpha  occ. eigenvalues --  -15.85665 -11.31875 -11.31047 -11.28498 -11.28404
 Alpha  occ. eigenvalues --  -11.28180 -11.27725 -11.27594 -11.27547 -11.27456
 Alpha  occ. eigenvalues --  -11.27420 -11.26836 -11.26562  -1.60449  -1.59681
 Alpha  occ. eigenvalues --   -1.40000  -1.39235  -1.20052  -1.19244  -1.09422
 Alpha  occ. eigenvalues --   -1.08649  -1.05486  -1.04670  -0.96251  -0.95472
 Alpha  occ. eigenvalues --   -0.86874  -0.86092  -0.83090  -0.82312  -0.78143
 Alpha  occ. eigenvalues --   -0.77347  -0.72646  -0.71892  -0.71776  -0.71178
 Alpha  occ. eigenvalues --   -0.71000  -0.70370  -0.65711  -0.65522  -0.64923
 Alpha  occ. eigenvalues --   -0.64744  -0.62838  -0.61997  -0.55946  -0.55206
 Alpha  occ. eigenvalues --   -0.53785  -0.53621  -0.52898  -0.52790  -0.49409
 Alpha  occ. eigenvalues --   -0.49395  -0.48648  -0.48636  -0.45390  -0.44637
 Alpha  occ. eigenvalues --   -0.38011  -0.37184  -0.37089  -0.36238
 Alpha virt. eigenvalues --    0.04397   0.05216   0.10540   0.11215   0.15900
 Alpha virt. eigenvalues --    0.16680   0.18907   0.22172   0.25121   0.27274
 Alpha virt. eigenvalues --    0.27801   0.29298   0.30250   0.31551   0.32689

 Mulliken charges:
               1
     1  C   -0.169847
     2  C   -0.221590
     3  C   -0.179819
     4  C    0.157505
     5  C   -0.169048
     6  C   -0.218506
     7  H    0.227840
     8  H    0.219401
     9  H    0.278422
    10  H    0.277868
    11  H    0.226207
    12  N    0.487139
    13  O   -0.457483
    14  O   -0.461804
    15  C   -0.160506
    16  C   -0.214418
    17  C   -0.168482
    18  C    0.158752
    19  C   -0.169272
    20  C   -0.222033
    21  H    0.223357
    22  H    0.226957
    23  H    0.276971
    24  H    0.274539
    25  H    0.210552
    26  N    0.488285
    27  O   -0.461619
    28  O   -0.459368
 Sum of Mulliken charges =  -0.00000

 Dipole moment (field-independent basis, Debye):
    X=             -6.4330    Y=             -4.4152    Z=              3.5338  Tot=              8.5653
 Quadrupole moment (field-independent basis, Debye-Ang):
   XX=           -115.6665   YY=           -105.2297   ZZ=           -104.7020
   XY=             15.7667   XZ=             12.2685   YZ=              2.5051

 Normal termination of Gaussian 16 at Wed May  5 21:10:15 2021.
