 Gaussian 16, Revision A.03,
 Gaussian 16:  EM64L-G16RevA.03 25-Dec-2016

 -------------
 #p 6-31g* mp2
 -------------

 ------------------------------------------------------
 Input file generated by CHIRIPA (05-May-2021 14:57:27)
 ------------------------------------------------------
 Symbolic Z-matrix:
 Charge =  0 Multiplicity = 1

                         Standard orientation:
 ---------------------------------------------------------------------
 Center     Atomic      Atomic             Coordinates (Angstroms)
 Number     Number       Type             X           Y           Z
 ---------------------------------------------------------------------
      1          6           0       -3.114292   -2.135589    1.028603
      2          6           0       -2.085102   -2.053410    0.084921
      3          6           0       -1.775575   -0.833424   -0.523666
      4          6           0       -2.518891    0.289494   -0.163351
      5          6           0       -3.550116    0.239749    0.773340
      6          6           0       -3.842231   -0.990766    1.369200
      7          1           0       -3.347977   -3.087393    1.496425
      8          1           0       -1.518106   -2.940857   -0.181530
      9          1           0       -0.983945   -0.741451   -1.257341
     10          1           0       -4.097733    1.141648    1.018516
     11          1           0       -4.642051   -1.051616    2.101750
     12          7           0       -2.200425    1.586612   -0.800899
     13          8           0       -2.870139    2.561343   -0.466208
     14          8           0       -1.287128    1.603999   -1.623226
     15          6           0        2.853397    2.029728    1.419711
     16          6           0        2.445940    2.109175    0.083976
     17          6           0        2.286415    0.949157   -0.679869
     18          6           0        2.544113   -0.279260   -0.073343
     19          6           0        2.951368   -0.391152    1.255158
     20          6           0        3.104368    0.782018    2.000016
     21          1           0        2.974786    2.935966    2.005708
     22          1           0        2.250326    3.076803   -0.369320
     23          1           0        1.972118    0.981777   -1.716001
     24          1           0        3.138910   -1.370064    1.679393
     25          1           0        3.420924    0.717290    3.037150
     26          7           0        2.378684   -1.514281   -0.871939
     27          8           0        2.612011   -2.584416   -0.314261
     28          8           0        2.018827   -1.388769   -2.040438
 ---------------------------------------------------------------------

 SCF Done:  E(RHF) =  -868.341139079     A.U. after   16 cycles
 E2 =    -0.2599837591D+01 EUMP2 =    -0.87094097666951D+03

 The electronic state is 1-A.
 Alpha  occ. eigenvalues --  -20.61051 -20.61046 -20.60878 -20.60865 -15.86052
 Alpha  occ. eigenvalues --  -15.85907 -11.31014 -11.31010 -11.27620 -11.27598
 Alpha  occ. eigenvalues --  -11.27439 -11.27427 -11.27256 -11.27242 -11.26574
 Alpha  occ. eigenvalues --  -11.26550 -11.26411 -11.26361  -1.60123  -1.59943
 Alpha  occ. eigenvalues --   -1.39680  -1.39503  -1.19168  -1.19159  -1.08647
 Alpha  occ. eigenvalues --   -1.08611  -1.04512  -1.04481  -0.95540  -0.95481
 Alpha  occ. eigenvalues --   -0.85931  -0.85906  -0.82378  -0.82308  -0.77484
 Alpha  occ. eigenvalues --   -0.77358  -0.72279  -0.72143  -0.71457  -0.71250
 Alpha  occ. eigenvalues --   -0.70270  -0.70244  -0.64818  -0.64807  -0.64502
 Alpha  occ. eigenvalues --   -0.64462  -0.61858  -0.61792  -0.55041  -0.55027
 Alpha  occ. eigenvalues --   -0.52911  -0.52840  -0.52582  -0.52551  -0.49055
 Alpha  occ. eigenvalues --   -0.49004  -0.48895  -0.48872  -0.45157  -0.44965
 Alpha  occ. eigenvalues --   -0.37197  -0.37121  -0.36111  -0.36038
 Alpha virt. eigenvalues --    0.04969   0.05114   0.11396   0.11692   0.16493
 Alpha virt. eigenvalues --    0.16702   0.21524   0.21940   0.27317   0.27772
 Alpha virt. eigenvalues --    0.28235   0.28956   0.31103   0.31431   0.32148

 Mulliken charges:
               1
     1  C   -0.170845
     2  C   -0.221473
     3  C   -0.178914
     4  C    0.158062
     5  C   -0.171972
     6  C   -0.219191
     7  H    0.226060
     8  H    0.233950
     9  H    0.284597
    10  H    0.273299
    11  H    0.222028
    12  N    0.488983
    13  O   -0.461965
    14  O   -0.465752
    15  C   -0.170574
    16  C   -0.218399
    17  C   -0.166389
    18  C    0.152175
    19  C   -0.171954
    20  C   -0.219554
    21  H    0.226295
    22  H    0.231575
    23  H    0.284859
    24  H    0.272195
    25  H    0.221676
    26  N    0.485795
    27  O   -0.462923
    28  O   -0.461644
 Sum of Mulliken charges =  -0.00000

 Dipole moment (field-independent basis, Debye):
    X=             -0.4833    Y=             -0.1269    Z=              4.9697  Tot=              4.9948
 Quadrupole moment (field-independent basis, Debye-Ang):
   XX=            -94.6842   YY=           -107.9451   ZZ=           -102.3394
   XY=             20.4194   XZ=              0.4823   YZ=             -0.9025

 Normal termination of Gaussian 16 at Wed May  5 18:03:59 2021.
