 Gaussian 16, Revision A.03,
 Gaussian 16:  EM64L-G16RevA.03 25-Dec-2016

 -------------
 #p 6-31g* mp2
 -------------

 ------------------------------------------------------
 Input file generated by CHIRIPA (05-May-2021 14:51:11)
 ------------------------------------------------------
 Symbolic Z-matrix:
 Charge =  0 Multiplicity = 1

                         Standard orientation:
 ---------------------------------------------------------------------
 Center     Atomic      Atomic             Coordinates (Angstroms)
 Number     Number       Type             X           Y           Z
 ---------------------------------------------------------------------
      1          6           0        2.674785    0.062902   -0.589723
      2          6           0        2.185035   -1.350887   -0.904891
      3          6           0        3.059208   -2.062805   -1.937746
      4          1           0        2.700748    0.650469   -1.517643
      5          1           0        3.709357    0.011825   -0.223052
      6          1           0        1.151223   -1.297286   -1.269549
      7          1           0        2.160052   -1.935100    0.023918
      8          1           0        4.090036   -2.145727   -1.578415
      9          1           0        3.075475   -1.504289   -2.879232
     10          1           0        2.691074   -3.071797   -2.148160
     11          6           0        1.811104    0.787474    0.441188
     12          6           0        2.300854    2.201263    0.756357
     13          6           0        1.426681    2.913181    1.789211
     14          1           0        0.776532    0.838551    0.074518
     15          1           0        1.785141    0.199907    1.369108
     16          1           0        2.325837    2.785476   -0.172452
     17          1           0        3.334666    2.147662    1.121014
     18          1           0        1.410414    2.354665    2.730697
     19          1           0        0.395853    2.996103    1.429881
     20          1           0        1.794815    3.922173    1.999626
     21          6           0       -1.975540   -1.129615    0.199608
     22          6           0       -1.742489   -1.435314    1.679546
     23          6           0       -1.207490   -2.848293    1.914197
     24          1           0       -2.681077   -1.863616   -0.213192
     25          1           0       -1.031881   -1.260990   -0.347790
     26          1           0       -2.685990   -1.302059    2.224216
     27          1           0       -1.037573   -0.700384    2.088918
     28          1           0       -0.253401   -2.989921    1.396264
     29          1           0       -1.911185   -3.595015    1.532331
     30          1           0       -1.048101   -3.045559    2.978876
     31          6           0       -2.510348    0.279238   -0.051073
     32          6           0       -2.743400    0.584938   -1.531012
     33          6           0       -3.278399    1.997918   -1.765663
     34          1           0       -3.454008    0.410614    0.496325
     35          1           0       -1.804812    1.013240    0.361727
     36          1           0       -3.448316   -0.149992   -1.940384
     37          1           0       -1.799899    0.451683   -2.075681
     38          1           0       -2.574704    2.744638   -1.383796
     39          1           0       -4.232488    2.139545   -1.247729
     40          1           0       -3.437788    2.195184   -2.830342
 ---------------------------------------------------------------------

 SCF Done:  E(RHF) =  -470.732882222     A.U. after   11 cycles
 E2 =    -0.1585378229D+01 EUMP2 =    -0.47231826045070D+03

 The electronic state is 1-A.
 Alpha  occ. eigenvalues --  -11.21706 -11.21686 -11.21637 -11.21514 -11.21502
 Alpha  occ. eigenvalues --  -11.21443 -11.21374 -11.21274 -11.21156 -11.21142
 Alpha  occ. eigenvalues --  -11.21105 -11.21006  -1.08560  -1.08380  -1.03625
 Alpha  occ. eigenvalues --   -1.03504  -0.96068  -0.95957  -0.87084  -0.86974
 Alpha  occ. eigenvalues --   -0.79719  -0.79559  -0.78380  -0.78198  -0.65381
 Alpha  occ. eigenvalues --   -0.64845  -0.61043  -0.60895  -0.59453  -0.59311
 Alpha  occ. eigenvalues --   -0.57678  -0.57567  -0.55382  -0.55233  -0.52760
 Alpha  occ. eigenvalues --   -0.52656  -0.52495  -0.52384  -0.50069  -0.49860
 Alpha  occ. eigenvalues --   -0.48127  -0.47860  -0.46798  -0.46639  -0.46256
 Alpha  occ. eigenvalues --   -0.45821  -0.45568  -0.45193  -0.43873  -0.43753
 Alpha virt. eigenvalues --    0.19331   0.22078   0.23350   0.23766   0.25203
 Alpha virt. eigenvalues --    0.26103   0.26811   0.28191   0.28478   0.29645
 Alpha virt. eigenvalues --    0.30715   0.31371   0.31694   0.31943   0.32107

 Mulliken charges:
               1
     1  C   -0.297890
     2  C   -0.307906
     3  C   -0.475129
     4  H    0.149766
     5  H    0.150094
     6  H    0.157361
     7  H    0.153511
     8  H    0.155521
     9  H    0.155393
    10  H    0.160824
    11  C   -0.306366
    12  C   -0.299562
    13  C   -0.477266
    14  H    0.156653
    15  H    0.150779
    16  H    0.152103
    17  H    0.152444
    18  H    0.155511
    19  H    0.155645
    20  H    0.160993
    21  C   -0.307047
    22  C   -0.300523
    23  C   -0.478287
    24  H    0.149305
    25  H    0.158763
    26  H    0.151347
    27  H    0.154345
    28  H    0.157465
    29  H    0.154833
    30  H    0.159577
    31  C   -0.302251
    32  C   -0.300222
    33  C   -0.475478
    34  H    0.150117
    35  H    0.152053
    36  H    0.152527
    37  H    0.150544
    38  H    0.154501
    39  H    0.155633
    40  H    0.160321
 Sum of Mulliken charges =  -0.00000

 Dipole moment (field-independent basis, Debye):
    X=              0.0528    Y=              0.0087    Z=             -0.0111  Tot=              0.0546
 Quadrupole moment (field-independent basis, Debye-Ang):
   XX=            -83.8986   YY=            -85.9329   ZZ=            -84.8698
   XY=              0.8231   XZ=              0.6531   YZ=             -0.3778

 Normal termination of Gaussian 16 at Wed May  5 23:06:14 2021.
