 Gaussian 16, Revision A.03,
 Gaussian 16:  EM64L-G16RevA.03 25-Dec-2016

 -------------
 #p 6-31g* mp2
 -------------

 ------------------------------------------------------
 Input file generated by CHIRIPA (05-May-2021 14:53:17)
 ------------------------------------------------------
 Symbolic Z-matrix:
 Charge =  0 Multiplicity = 1

                         Standard orientation:
 ---------------------------------------------------------------------
 Center     Atomic      Atomic             Coordinates (Angstroms)
 Number     Number       Type             X           Y           Z
 ---------------------------------------------------------------------
      1          6           0       -5.150326    0.231550   -0.236444
      2          6           0       -5.554888   -1.232105   -0.415411
      3          6           0       -7.065016   -1.413102   -0.572093
      4          1           0       -5.663564    0.642204    0.643838
      5          1           0       -5.502111    0.810374   -1.101663
      6          1           0       -5.201237   -1.808248    0.449231
      7          1           0       -5.040479   -1.639376   -1.295257
      8          1           0       -7.430371   -0.863133   -1.445392
      9          1           0       -7.592042   -1.032964    0.309008
     10          1           0       -7.332051   -2.466914   -0.698713
     11          6           0       -3.643697    0.428679   -0.078522
     12          6           0       -3.239135    1.892333    0.100445
     13          6           0       -1.729008    2.073330    0.257127
     14          1           0       -3.291912   -0.150145    0.786697
     15          1           0       -3.130460    0.018025   -0.958804
     16          1           0       -3.753544    2.299605    0.980291
     17          1           0       -3.592786    2.468476   -0.764197
     18          1           0       -1.201981    1.693192   -0.623974
     19          1           0       -1.363653    1.523361    1.130426
     20          1           0       -1.461972    3.127142    0.383747
     21          6           0        1.263160   -0.630962    1.351504
     22          6           0        2.072561   -1.720668    1.013966
     23          6           0        3.278086   -1.525784    0.333320
     24          6           0        3.645147   -0.221836    0.004269
     25          6           0        2.860383    0.884277    0.326682
     26          6           0        1.658956    0.665746    1.007392
     27          1           0        0.328270   -0.791538    1.880271
     28          1           0        1.767704   -2.728819    1.279931
     29          1           0        3.923812   -2.351387    0.059756
     30          1           0        3.190868    1.877552    0.048109
     31          1           0        1.032368    1.513914    1.268245
     32          7           0        4.919213   -0.003004   -0.716333
     33          8           0        5.220147    1.155655   -0.994876
     34          8           0        5.592767   -0.994286   -0.988954
 ---------------------------------------------------------------------

 SCF Done:  E(RHF) =  -669.535081165     A.U. after   15 cycles
 E2 =    -0.2091532938D+01 EUMP2 =    -0.67162661410330D+03

 The electronic state is 1-A.
 Alpha  occ. eigenvalues --  -20.60702 -20.60697 -15.85753 -11.31101 -11.27666
 Alpha  occ. eigenvalues --  -11.27639 -11.27396 -11.26690 -11.26598 -11.22450
 Alpha  occ. eigenvalues --  -11.22194 -11.22170 -11.22151 -11.21989 -11.21522
 Alpha  occ. eigenvalues --   -1.59778  -1.39332  -1.19266  -1.09147  -1.08666
 Alpha  occ. eigenvalues --   -1.04667  -1.04261  -0.96743  -0.95505  -0.87782
 Alpha  occ. eigenvalues --   -0.86056  -0.82335  -0.80349  -0.78939  -0.77381
 Alpha  occ. eigenvalues --   -0.71973  -0.71100  -0.70384  -0.65778  -0.64918
 Alpha  occ. eigenvalues --   -0.64686  -0.62052  -0.61632  -0.60111  -0.58320
 Alpha  occ. eigenvalues --   -0.56031  -0.55175  -0.53496  -0.53279  -0.52949
 Alpha  occ. eigenvalues --   -0.52610  -0.50674  -0.48761  -0.48729  -0.48599
 Alpha  occ. eigenvalues --   -0.47355  -0.46483  -0.46390  -0.44741  -0.44511
 Alpha  occ. eigenvalues --   -0.37239  -0.36254
 Alpha virt. eigenvalues --    0.05137   0.11344   0.16615   0.20198   0.22330
 Alpha virt. eigenvalues --    0.23729   0.25437   0.26077   0.26643   0.27933
 Alpha virt. eigenvalues --    0.28765   0.30038   0.30966   0.31471   0.31585

 Mulliken charges:
               1
     1  C   -0.298838
     2  C   -0.299984
     3  C   -0.476074
     4  H    0.150487
     5  H    0.151821
     6  H    0.150509
     7  H    0.152970
     8  H    0.156527
     9  H    0.155697
    10  H    0.161495
    11  C   -0.298169
    12  C   -0.300537
    13  C   -0.479908
    14  H    0.144142
    15  H    0.152096
    16  H    0.153699
    17  H    0.156406
    18  H    0.162441
    19  H    0.143202
    20  H    0.162304
    21  C   -0.172293
    22  C   -0.218596
    23  C   -0.171542
    24  C    0.158676
    25  C   -0.173095
    26  C   -0.219403
    27  H    0.224679
    28  H    0.222948
    29  H    0.275168
    30  H    0.275316
    31  H    0.231189
    32  N    0.488026
    33  O   -0.460621
    34  O   -0.460739
 Sum of Mulliken charges =  -0.00000

 Dipole moment (field-independent basis, Debye):
    X=             -4.7080    Y=             -0.7242    Z=              2.4496  Tot=              5.3563
 Quadrupole moment (field-independent basis, Debye-Ang):
   XX=           -128.6446   YY=            -89.5210   ZZ=            -94.5924
   XY=             -3.1705   XZ=              9.2905   YZ=             -0.8174

 Normal termination of Gaussian 16 at Wed May  5 15:44:30 2021.
