 Gaussian 16, Revision A.03,
 Gaussian 16:  EM64L-G16RevA.03 25-Dec-2016

 -------------
 #p 6-31g* mp2
 -------------

 ------------------------------------------------------
 Input file generated by CHIRIPA (05-May-2021 14:51:07)
 ------------------------------------------------------
 Symbolic Z-matrix:
 Charge =  0 Multiplicity = 1

                         Standard orientation:
 ---------------------------------------------------------------------
 Center     Atomic      Atomic             Coordinates (Angstroms)
 Number     Number       Type             X           Y           Z
 ---------------------------------------------------------------------
      1          6           0        2.755837   -0.559881   -0.286885
      2          6           0        3.449599    0.786289   -0.497850
      3          6           0        4.370480    0.791885   -1.718399
      4          1           0        3.517137   -1.344315   -0.177201
      5          1           0        2.176019   -0.810558   -1.185977
      6          1           0        4.026824    1.035009    0.401908
      7          1           0        2.686560    1.567639   -0.606853
      8          1           0        3.804823    0.568665   -2.628787
      9          1           0        5.152701    0.033009   -1.614294
     10          1           0        4.856113    1.763781   -1.850459
     11          6           0        1.831861   -0.581190    0.929479
     12          6           0        1.138099   -1.927360    1.140445
     13          6           0        0.217217   -1.932956    2.360994
     14          1           0        2.411679   -0.330512    1.828571
     15          1           0        1.070561    0.203244    0.819795
     16          1           0        1.901137   -2.708709    1.249447
     17          1           0        0.560874   -2.176080    0.240686
     18          1           0       -0.565004   -1.174080    2.256888
     19          1           0        0.782875   -1.709735    3.271381
     20          1           0       -0.268416   -2.904851    2.493053
     21          6           0       -2.142738    1.005517    0.288119
     22          6           0       -1.829906    2.459432   -0.067206
     23          6           0       -1.529707    3.317066    1.162485
     24          1           0       -3.000609    0.978750    0.973894
     25          1           0       -1.291434    0.577842    0.835631
     26          1           0       -2.680982    2.883820   -0.615093
     27          1           0       -0.972800    2.482729   -0.752366
     28          1           0       -0.667224    2.920239    1.707691
     29          1           0       -2.385110    3.323610    1.845745
     30          1           0       -1.308814    4.352609    0.885507
     31          6           0       -2.444959    0.135553   -0.930713
     32          6           0       -2.757792   -1.318361   -0.575388
     33          6           0       -3.057990   -2.175995   -1.805079
     34          1           0       -3.296263    0.563229   -1.478225
     35          1           0       -1.587089    0.162321   -1.616488
     36          1           0       -3.614897   -1.341658    0.109772
     37          1           0       -1.906715   -1.742749   -0.027501
     38          1           0       -2.202588   -2.182538   -2.488339
     39          1           0       -3.920474   -1.779169   -2.350286
     40          1           0       -3.278883   -3.211539   -1.528102
 ---------------------------------------------------------------------

 SCF Done:  E(RHF) =  -470.732203028     A.U. after   11 cycles
 E2 =    -0.1585486608D+01 EUMP2 =    -0.47231768963568D+03

 The electronic state is 1-A.
 Alpha  occ. eigenvalues --  -11.21669 -11.21659 -11.21657 -11.21594 -11.21476
 Alpha  occ. eigenvalues --  -11.21445 -11.21416 -11.21384 -11.21114 -11.21105
 Alpha  occ. eigenvalues --  -11.21094 -11.21074  -1.08558  -1.08430  -1.03607
 Alpha  occ. eigenvalues --   -1.03553  -0.96037  -0.96018  -0.87054  -0.87031
 Alpha  occ. eigenvalues --   -0.79697  -0.79594  -0.78409  -0.78225  -0.65598
 Alpha  occ. eigenvalues --   -0.64722  -0.61133  -0.60838  -0.59443  -0.59346
 Alpha  occ. eigenvalues --   -0.57713  -0.57565  -0.55355  -0.55301  -0.52722
 Alpha  occ. eigenvalues --   -0.52705  -0.52474  -0.52429  -0.49995  -0.49986
 Alpha  occ. eigenvalues --   -0.48025  -0.47971  -0.46961  -0.46490  -0.46214
 Alpha  occ. eigenvalues --   -0.45803  -0.45751  -0.45146  -0.43842  -0.43818
 Alpha virt. eigenvalues --    0.19230   0.22425   0.23550   0.24210   0.25923
 Alpha virt. eigenvalues --    0.26666   0.27519   0.27712   0.28589   0.30103
 Alpha virt. eigenvalues --    0.30475   0.31543   0.31707   0.31756   0.32047

 Mulliken charges:
               1
     1  C   -0.297845
     2  C   -0.299913
     3  C   -0.475749
     4  H    0.150135
     5  H    0.149113
     6  H    0.152257
     7  H    0.151750
     8  H    0.155174
     9  H    0.155369
    10  H    0.160530
    11  C   -0.304797
    12  C   -0.303749
    13  C   -0.482127
    14  H    0.150178
    15  H    0.154491
    16  H    0.153052
    17  H    0.154009
    18  H    0.161182
    19  H    0.155601
    20  H    0.160657
    21  C   -0.310373
    22  C   -0.299277
    23  C   -0.476476
    24  H    0.150101
    25  H    0.160307
    26  H    0.152479
    27  H    0.151234
    28  H    0.155638
    29  H    0.155496
    30  H    0.160529
    31  C   -0.297573
    32  C   -0.308585
    33  C   -0.475508
    34  H    0.149983
    35  H    0.148520
    36  H    0.152080
    37  H    0.161730
    38  H    0.154590
    39  H    0.155354
    40  H    0.160433
 Sum of Mulliken charges =  -0.00000

 Dipole moment (field-independent basis, Debye):
    X=              0.0056    Y=             -0.0042    Z=              0.0234  Tot=              0.0244
 Quadrupole moment (field-independent basis, Debye-Ang):
   XX=            -83.6595   YY=            -85.2053   ZZ=            -85.7893
   XY=             -0.7696   XZ=              0.7460   YZ=             -0.6199

 Normal termination of Gaussian 16 at Wed May  5 19:38:28 2021.
