 Gaussian 16, Revision A.03,
 Gaussian 16:  EM64L-G16RevA.03 25-Dec-2016

 -------------
 #p 6-31g* mp2
 -------------

 ------------------------------------------------------
 Input file generated by CHIRIPA (05-May-2021 14:53:12)
 ------------------------------------------------------
 Symbolic Z-matrix:
 Charge =  0 Multiplicity = 1

                         Standard orientation:
 ---------------------------------------------------------------------
 Center     Atomic      Atomic             Coordinates (Angstroms)
 Number     Number       Type             X           Y           Z
 ---------------------------------------------------------------------
      1          6           0       -3.778620   -0.173836   -0.188963
      2          6           0       -3.499793   -1.654236    0.073061
      3          6           0       -4.764348   -2.512149    0.021294
      4          1           0       -4.502822    0.192951    0.551268
      5          1           0       -4.255742   -0.066314   -1.172929
      6          1           0       -3.022080   -1.758801    1.055645
      7          1           0       -2.776024   -2.017493   -0.667762
      8          1           0       -5.240549   -2.437493   -0.961692
      9          1           0       -5.488002   -2.177332    0.771508
     10          1           0       -4.542027   -3.566812    0.211345
     11          6           0       -2.524218    0.696715   -0.140543
     12          6           0       -2.803044    2.177115   -0.402567
     13          6           0       -1.538489    3.035028   -0.350800
     14          1           0       -2.047095    0.589193    0.843423
     15          1           0       -1.800015    0.329928   -0.880774
     16          1           0       -3.526813    2.540372    0.338256
     17          1           0       -3.280757    2.281680   -1.385152
     18          1           0       -0.814835    2.700210   -1.101015
     19          1           0       -1.062288    2.960372    0.632185
     20          1           0       -1.760810    4.089691   -0.540852
     21          6           0        2.013306    2.247518    0.520364
     22          6           0        3.024544    1.853180   -0.361913
     23          6           0        3.281971    0.497525   -0.586587
     24          6           0        2.505429   -0.441277    0.090850
     25          6           0        1.490916   -0.079896    0.975982
     26          6           0        1.251062    1.281425    1.185324
     27          1           0        1.820156    3.302825    0.688942
     28          1           0        3.618094    2.601265   -0.879709
     29          1           0        4.058671    0.164440   -1.264238
     30          1           0        0.915903   -0.848760    1.477604
     31          1           0        0.465074    1.584759    1.871076
     32          7           0        2.768653   -1.879448   -0.138887
     33          8           0        2.070446   -2.687000    0.470214
     34          8           0        3.668191   -2.171901   -0.923705
 ---------------------------------------------------------------------

 SCF Done:  E(RHF) =  -669.534019325     A.U. after   15 cycles
 E2 =    -0.2093436468D+01 EUMP2 =    -0.67162745579295D+03

 The electronic state is 1-A.
 Alpha  occ. eigenvalues --  -20.60733 -20.60726 -15.85786 -11.31135 -11.27708
 Alpha  occ. eigenvalues --  -11.27689 -11.27421 -11.26723 -11.26689 -11.22172
 Alpha  occ. eigenvalues --  -11.21869 -11.21816 -11.21727 -11.21644 -11.21112
 Alpha  occ. eigenvalues --   -1.59809  -1.39362  -1.19313  -1.08832  -1.08696
 Alpha  occ. eigenvalues --   -1.04721  -1.03900  -0.96385  -0.95538  -0.87411
 Alpha  occ. eigenvalues --   -0.86115  -0.82379  -0.79995  -0.78609  -0.77420
 Alpha  occ. eigenvalues --   -0.72005  -0.71133  -0.70410  -0.65490  -0.64968
 Alpha  occ. eigenvalues --   -0.64735  -0.62112  -0.61263  -0.59750  -0.57972
 Alpha  occ. eigenvalues --   -0.55683  -0.55208  -0.53215  -0.53058  -0.52840
 Alpha  occ. eigenvalues --   -0.52641  -0.50329  -0.48767  -0.48760  -0.48266
 Alpha  occ. eigenvalues --   -0.47007  -0.46145  -0.46043  -0.44771  -0.44156
 Alpha  occ. eigenvalues --   -0.37231  -0.36266
 Alpha virt. eigenvalues --    0.05080   0.11273   0.16476   0.19948   0.22809
 Alpha virt. eigenvalues --    0.23973   0.25228   0.26402   0.26765   0.28756
 Alpha virt. eigenvalues --    0.29244   0.29977   0.31270   0.31454   0.31886

 Mulliken charges:
               1
     1  C   -0.298868
     2  C   -0.300142
     3  C   -0.476184
     4  H    0.149097
     5  H    0.151148
     6  H    0.150139
     7  H    0.156782
     8  H    0.155558
     9  H    0.154182
    10  H    0.163547
    11  C   -0.297352
    12  C   -0.300374
    13  C   -0.474978
    14  H    0.140079
    15  H    0.154664
    16  H    0.152196
    17  H    0.155126
    18  H    0.160640
    19  H    0.142326
    20  H    0.159913
    21  C   -0.168355
    22  C   -0.220134
    23  C   -0.171331
    24  C    0.157385
    25  C   -0.171313
    26  C   -0.214093
    27  H    0.226611
    28  H    0.223250
    29  H    0.275280
    30  H    0.275427
    31  H    0.222990
    32  N    0.488055
    33  O   -0.460478
    34  O   -0.460791
 Sum of Mulliken charges =  -0.00000

 Dipole moment (field-independent basis, Debye):
    X=             -1.0028    Y=              5.0056    Z=              0.7067  Tot=              5.1537
 Quadrupole moment (field-independent basis, Debye-Ang):
   XX=            -97.6566   YY=           -100.1754   ZZ=            -92.0759
   XY=             13.8885   XZ=             -0.6668   YZ=             -0.7153

 Normal termination of Gaussian 16 at Thu May  6 02:33:35 2021.
