 Gaussian 16, Revision A.03,
 Gaussian 16:  EM64L-G16RevA.03 25-Dec-2016

 -------------
 #p 6-31g* mp2
 -------------

 ------------------------------------------------------
 Input file generated by CHIRIPA (05-May-2021 14:51:14)
 ------------------------------------------------------
 Symbolic Z-matrix:
 Charge =  0 Multiplicity = 1

                         Standard orientation:
 ---------------------------------------------------------------------
 Center     Atomic      Atomic             Coordinates (Angstroms)
 Number     Number       Type             X           Y           Z
 ---------------------------------------------------------------------
      1          6           0       -2.757025    0.153765    0.002076
      2          6           0       -3.197361   -0.271328   -1.399132
      3          6           0       -4.026121   -1.556211   -1.393973
      4          1           0       -2.174480   -0.658168    0.458533
      5          1           0       -3.646558    0.292625    0.632031
      6          1           0       -2.307325   -0.408004   -2.026643
      7          1           0       -3.778763    0.541786   -1.852380
      8          1           0       -4.930899   -1.428624   -0.790898
      9          1           0       -3.451100   -2.383810   -0.966151
     10          1           0       -4.330301   -1.841811   -2.405787
     11          6           0       -1.927632    1.436616    0.013333
     12          6           0       -1.487295    1.861709    1.414541
     13          6           0       -0.658535    3.146592    1.409382
     14          1           0       -1.038099    1.297756   -0.616622
     15          1           0       -2.510177    2.248549   -0.443124
     16          1           0       -0.905893    1.048595    1.867789
     17          1           0       -2.377332    1.998385    2.042052
     18          1           0       -1.233557    3.974191    0.981561
     19          1           0        0.246242    3.019005    0.806307
     20          1           0       -0.354356    3.432192    2.421196
     21          6           0        2.256784   -1.297993    0.560893
     22          6           0        0.918552   -2.036592    0.520990
     23          6           0        0.762264   -3.039023    1.664886
     24          1           0        3.074199   -2.030989    0.522234
     25          1           0        2.350732   -0.775490    1.522953
     26          1           0        0.826551   -2.556417   -0.441265
     27          1           0        0.104227   -1.301741    0.559555
     28          1           0        0.827873   -2.532075    2.633029
     29          1           0        1.554301   -3.793878    1.626522
     30          1           0       -0.201399   -3.555676    1.617081
     31          6           0        2.427872   -0.292387   -0.576302
     32          6           0        3.766105    0.446210   -0.536399
     33          6           0        3.922393    1.448642   -1.680295
     34          1           0        2.333925   -0.814891   -1.538362
     35          1           0        1.610456    0.440608   -0.537644
     36          1           0        4.580429   -0.288639   -0.574964
     37          1           0        3.858106    0.966035    0.425855
     38          1           0        3.130356    2.203497   -1.641931
     39          1           0        3.856784    0.941694   -2.648438
     40          1           0        4.886055    1.965294   -1.632490
 ---------------------------------------------------------------------

 SCF Done:  E(RHF) =  -470.733184017     A.U. after   11 cycles
 E2 =    -0.1584425354D+01 EUMP2 =    -0.47231760937128D+03

 The electronic state is 1-A.
 Alpha  occ. eigenvalues --  -11.21667 -11.21660 -11.21651 -11.21591 -11.21477
 Alpha  occ. eigenvalues --  -11.21428 -11.21417 -11.21354 -11.21144 -11.21138
 Alpha  occ. eigenvalues --  -11.21111 -11.21062  -1.08526  -1.08435  -1.03593
 Alpha  occ. eigenvalues --   -1.03557  -0.96041  -0.96007  -0.87055  -0.87023
 Alpha  occ. eigenvalues --   -0.79668  -0.79618  -0.78330  -0.78261  -0.65435
 Alpha  occ. eigenvalues --   -0.64825  -0.60997  -0.60951  -0.59408  -0.59374
 Alpha  occ. eigenvalues --   -0.57680  -0.57591  -0.55361  -0.55271  -0.52729
 Alpha  occ. eigenvalues --   -0.52702  -0.52464  -0.52432  -0.50017  -0.49926
 Alpha  occ. eigenvalues --   -0.48023  -0.47917  -0.46802  -0.46686  -0.46136
 Alpha  occ. eigenvalues --   -0.45805  -0.45629  -0.45374  -0.43845  -0.43808
 Alpha virt. eigenvalues --    0.18715   0.22192   0.23750   0.24534   0.25581
 Alpha virt. eigenvalues --    0.26654   0.27116   0.27463   0.28451   0.29927
 Alpha virt. eigenvalues --    0.30663   0.31536   0.31841   0.32229   0.32384

 Mulliken charges:
               1
     1  C   -0.303522
     2  C   -0.299602
     3  C   -0.475811
     4  H    0.154562
     5  H    0.149803
     6  H    0.152689
     7  H    0.151847
     8  H    0.155062
     9  H    0.155336
    10  H    0.160226
    11  C   -0.302663
    12  C   -0.301225
    13  C   -0.476427
    14  H    0.152869
    15  H    0.150321
    16  H    0.152310
    17  H    0.152619
    18  H    0.155761
    19  H    0.154803
    20  H    0.160513
    21  C   -0.297390
    22  C   -0.310017
    23  C   -0.475616
    24  H    0.150127
    25  H    0.149650
    26  H    0.151927
    27  H    0.160999
    28  H    0.155309
    29  H    0.155781
    30  H    0.160188
    31  C   -0.303435
    32  C   -0.299657
    33  C   -0.475793
    34  H    0.149708
    35  H    0.153231
    36  H    0.152298
    37  H    0.152302
    38  H    0.154969
    39  H    0.155308
    40  H    0.160636
 Sum of Mulliken charges =  -0.00000

 Dipole moment (field-independent basis, Debye):
    X=              0.0060    Y=             -0.0050    Z=             -0.0012  Tot=              0.0079
 Quadrupole moment (field-independent basis, Debye-Ang):
   XX=            -84.2473   YY=            -85.3330   ZZ=            -85.0366
   XY=             -1.5804   XZ=             -0.2416   YZ=              0.9266

 Normal termination of Gaussian 16 at Thu May  6 00:51:52 2021.
