 Gaussian 16, Revision A.03,
 Gaussian 16:  EM64L-G16RevA.03 25-Dec-2016

 -------------
 #p 6-31g* mp2
 -------------

 ------------------------------------------------------
 Input file generated by CHIRIPA (05-May-2021 14:57:20)
 ------------------------------------------------------
 Symbolic Z-matrix:
 Charge =  0 Multiplicity = 1

                         Standard orientation:
 ---------------------------------------------------------------------
 Center     Atomic      Atomic             Coordinates (Angstroms)
 Number     Number       Type             X           Y           Z
 ---------------------------------------------------------------------
      1          6           0        3.616546    1.768935    1.696765
      2          6           0        2.678436    0.789768    2.039843
      3          6           0        2.371989   -0.243079    1.148852
      4          6           0        3.025474   -0.266228   -0.082290
      5          6           0        3.964776    0.694739   -0.453159
      6          6           0        4.255596    1.718384    0.453550
      7          1           0        3.848532    2.567702    2.395013
      8          1           0        2.180590    0.826509    3.004645
      9          1           0        1.649829   -1.014001    1.388818
     10          1           0        4.444697    0.631589   -1.422234
     11          1           0        4.984573    2.477468    0.184424
     12          7           0        2.709325   -1.354787   -1.033862
     13          8           0        3.298857   -1.352788   -2.112326
     14          8           0        1.877981   -2.189386   -0.683222
     15          6           0       -3.042408   -2.134961    1.120605
     16          6           0       -2.006180   -1.794734    0.244819
     17          6           0       -2.015305   -0.566415   -0.422786
     18          6           0       -3.080980    0.301614   -0.190083
     19          6           0       -4.128004   -0.008578    0.676411
     20          6           0       -4.098150   -1.242371    1.333231
     21          1           0       -3.027268   -3.091275    1.635027
     22          1           0       -1.184999   -2.485963    0.077761
     23          1           0       -1.225980   -0.277624   -1.106150
     24          1           0       -4.933136    0.701214    0.822614
     25          1           0       -4.904248   -1.503932    2.012816
     26          7           0       -3.101611    1.604879   -0.891138
     27          8           0       -4.051838    2.352103   -0.668964
     28          8           0       -2.167165    1.854473   -1.649524
 ---------------------------------------------------------------------

 SCF Done:  E(RHF) =  -868.339932439     A.U. after   16 cycles
 E2 =    -0.2599022312D+01 EUMP2 =    -0.87093895475113D+03

 The electronic state is 1-A.
 Alpha  occ. eigenvalues --  -20.61422 -20.61337 -20.60562 -20.60552 -15.86413
 Alpha  occ. eigenvalues --  -15.85606 -11.31507 -11.30881 -11.28086 -11.28010
 Alpha  occ. eigenvalues --  -11.27720 -11.27469 -11.27343 -11.27140 -11.27012
 Alpha  occ. eigenvalues --  -11.26968 -11.26484 -11.26249  -1.60439  -1.59638
 Alpha  occ. eigenvalues --   -1.40006  -1.39192  -1.19649  -1.19034  -1.09091
 Alpha  occ. eigenvalues --   -1.08450  -1.05016  -1.04393  -0.95974  -0.95301
 Alpha  occ. eigenvalues --   -0.86430  -0.85799  -0.82825  -0.82109  -0.77911
 Alpha  occ. eigenvalues --   -0.77166  -0.72644  -0.71826  -0.71744  -0.70962
 Alpha  occ. eigenvalues --   -0.70761  -0.70141  -0.65313  -0.65020  -0.64668
 Alpha  occ. eigenvalues --   -0.64350  -0.62380  -0.61706  -0.55520  -0.54916
 Alpha  occ. eigenvalues --   -0.53348  -0.53115  -0.52769  -0.52440  -0.49410
 Alpha  occ. eigenvalues --   -0.49354  -0.48586  -0.48574  -0.45466  -0.44617
 Alpha  occ. eigenvalues --   -0.37602  -0.37039  -0.36604  -0.36006
 Alpha virt. eigenvalues --    0.04594   0.05316   0.11042   0.11618   0.16134
 Alpha virt. eigenvalues --    0.16793   0.20970   0.21955   0.26572   0.27420
 Alpha virt. eigenvalues --    0.28562   0.28617   0.30610   0.31463   0.32437

 Mulliken charges:
               1
     1  C   -0.169015
     2  C   -0.217287
     3  C   -0.171065
     4  C    0.158221
     5  C   -0.169031
     6  C   -0.217537
     7  H    0.227739
     8  H    0.224242
     9  H    0.270213
    10  H    0.276994
    11  H    0.225745
    12  N    0.490492
    13  O   -0.453754
    14  O   -0.474126
    15  C   -0.172678
    16  C   -0.229241
    17  C   -0.174314
    18  C    0.158105
    19  C   -0.172776
    20  C   -0.218921
    21  H    0.225189
    22  H    0.243894
    23  H    0.278451
    24  H    0.273763
    25  H    0.221526
    26  N    0.487876
    27  O   -0.462417
    28  O   -0.460289
 Sum of Mulliken charges =  -0.00000

 Dipole moment (field-independent basis, Debye):
    X=              1.5215    Y=             -0.6916    Z=              5.7607  Tot=              5.9983
 Quadrupole moment (field-independent basis, Debye-Ang):
   XX=            -93.1143   YY=           -109.7634   ZZ=           -104.0176
   XY=             26.6785   XZ=             -2.2016   YZ=             -0.2031

 Normal termination of Gaussian 16 at Thu May  6 09:36:55 2021.
