 Gaussian 16, Revision A.03,
 Gaussian 16:  EM64L-G16RevA.03 25-Dec-2016

 -------------
 #p 6-31g* mp2
 -------------

 ------------------------------------------------------
 Input file generated by CHIRIPA (05-May-2021 14:51:12)
 ------------------------------------------------------
 Symbolic Z-matrix:
 Charge =  0 Multiplicity = 1

                         Standard orientation:
 ---------------------------------------------------------------------
 Center     Atomic      Atomic             Coordinates (Angstroms)
 Number     Number       Type             X           Y           Z
 ---------------------------------------------------------------------
      1          6           0       -4.158963    0.413896   -0.627365
      2          6           0       -2.784162    0.490985    0.037439
      3          6           0       -1.750158    1.215207   -0.825191
      4          1           0       -4.063231   -0.097927   -1.594742
      5          1           0       -4.510525    1.431793   -0.845737
      6          1           0       -2.435909   -0.526697    0.255747
      7          1           0       -2.883211    1.002514    1.003433
      8          1           0       -2.071809    2.240984   -1.032370
      9          1           0       -1.621966    0.703084   -1.784304
     10          1           0       -0.774666    1.258844   -0.330853
     11          6           0       -5.203410   -0.307280    0.222789
     12          6           0       -6.578211   -0.384370   -0.442016
     13          6           0       -7.612216   -1.108592    0.420614
     14          1           0       -4.851848   -1.325177    0.441160
     15          1           0       -5.299143    0.204542    1.190165
     16          1           0       -6.479162   -0.895899   -1.408010
     17          1           0       -6.926464    0.633313   -0.660324
     18          1           0       -7.740407   -0.596468    1.379727
     19          1           0       -7.290564   -2.134368    0.627794
     20          1           0       -8.587708   -1.152228   -0.073724
     21          6           0        5.216136   -0.575175    0.044440
     22          6           0        6.560798    0.035514   -0.351700
     23          6           0        7.620748   -1.021121   -0.664467
     24          1           0        5.358787   -1.223767    0.919611
     25          1           0        4.861137   -1.222242   -0.769609
     26          1           0        6.912492    0.682324    0.462281
     27          1           0        6.414895    0.682878   -1.225912
     28          1           0        7.295061   -1.660526   -1.491324
     29          1           0        7.795485   -1.661083    0.206462
     30          1           0        8.574048   -0.562635   -0.945304
     31          6           0        4.146237    0.468559    0.360137
     32          6           0        2.801575   -0.142129    0.756276
     33          6           0        1.741625    0.914506    1.069044
     34          1           0        4.501236    1.115625    1.174185
     35          1           0        4.003586    1.117151   -0.515035
     36          1           0        2.947478   -0.789493    1.630489
     37          1           0        2.449882   -0.788939   -0.057705
     38          1           0        1.566888    1.554467    0.198115
     39          1           0        2.067312    1.553911    1.895900
     40          1           0        0.788325    0.456019    1.349880
 ---------------------------------------------------------------------

 SCF Done:  E(RHF) =  -470.732670226     A.U. after   11 cycles
 E2 =    -0.1582652905D+01 EUMP2 =    -0.47231532313148D+03

 The electronic state is 1-A.
 Alpha  occ. eigenvalues --  -11.21636 -11.21611 -11.21574 -11.21539 -11.21424
 Alpha  occ. eigenvalues --  -11.21364 -11.21362 -11.21301 -11.21116 -11.21079
 Alpha  occ. eigenvalues --  -11.21050 -11.20871  -1.08453  -1.08381  -1.03571
 Alpha  occ. eigenvalues --   -1.03461  -0.96056  -0.95880  -0.87103  -0.86872
 Alpha  occ. eigenvalues --   -0.79654  -0.79512  -0.78262  -0.78198  -0.65086
 Alpha  occ. eigenvalues --   -0.65013  -0.60998  -0.60867  -0.59604  -0.59123
 Alpha  occ. eigenvalues --   -0.57679  -0.57476  -0.55314  -0.55199  -0.52984
 Alpha  occ. eigenvalues --   -0.52489  -0.52414  -0.52184  -0.49921  -0.49857
 Alpha  occ. eigenvalues --   -0.47941  -0.47843  -0.46640  -0.46575  -0.45807
 Alpha  occ. eigenvalues --   -0.45741  -0.45723  -0.45667  -0.43901  -0.43582
 Alpha virt. eigenvalues --    0.22224   0.23017   0.23548   0.25025   0.26568
 Alpha virt. eigenvalues --    0.26687   0.27064   0.27374   0.27645   0.28887
 Alpha virt. eigenvalues --    0.30605   0.31187   0.31475   0.31767   0.32409

 Mulliken charges:
               1
     1  C   -0.298148
     2  C   -0.299139
     3  C   -0.486199
     4  H    0.149466
     5  H    0.149503
     6  H    0.150950
     7  H    0.151581
     8  H    0.154059
     9  H    0.153605
    10  H    0.172811
    11  C   -0.298212
    12  C   -0.299597
    13  C   -0.475670
    14  H    0.149324
    15  H    0.149540
    16  H    0.151857
    17  H    0.151891
    18  H    0.155137
    19  H    0.155109
    20  H    0.160154
    21  C   -0.298352
    22  C   -0.299686
    23  C   -0.475721
    24  H    0.149678
    25  H    0.149616
    26  H    0.151950
    27  H    0.152032
    28  H    0.155209
    29  H    0.155180
    30  H    0.160305
    31  C   -0.298843
    32  C   -0.299699
    33  C   -0.481215
    34  H    0.149618
    35  H    0.150157
    36  H    0.152163
    37  H    0.152568
    38  H    0.157844
    39  H    0.155956
    40  H    0.163219
 Sum of Mulliken charges =  -0.00000

 Dipole moment (field-independent basis, Debye):
    X=              0.0687    Y=              0.0060    Z=              0.0229  Tot=              0.0726
 Quadrupole moment (field-independent basis, Debye-Ang):
   XX=            -86.2830   YY=            -84.6593   ZZ=            -83.9698
   XY=             -0.0742   XZ=              0.7926   YZ=              0.5145

 Normal termination of Gaussian 16 at Thu May  6 03:53:10 2021.
