 Gaussian 16, Revision A.03,
 Gaussian 16:  EM64L-G16RevA.03 25-Dec-2016

 -------------
 #p 6-31g* mp2
 -------------

 ------------------------------------------------------
 Input file generated by CHIRIPA (05-May-2021 14:57:27)
 ------------------------------------------------------
 Symbolic Z-matrix:
 Charge =  0 Multiplicity = 1

                         Standard orientation:
 ---------------------------------------------------------------------
 Center     Atomic      Atomic             Coordinates (Angstroms)
 Number     Number       Type             X           Y           Z
 ---------------------------------------------------------------------
      1          6           0       -4.961039    1.875518    0.573558
      2          6           0       -5.232542    1.114490   -0.568214
      3          6           0       -4.468764   -0.018370   -0.864561
      4          6           0       -3.436438   -0.362880    0.006591
      5          6           0       -3.141342    0.375000    1.151903
      6          6           0       -3.918145    1.504000    1.428465
      7          1           0       -5.559419    2.754051    0.796083
      8          1           0       -6.041844    1.400644   -1.233939
      9          1           0       -4.657254   -0.625490   -1.741656
     10          1           0       -2.328025    0.064757    1.796637
     11          1           0       -3.705018    2.093143    2.315895
     12          7           0       -2.620967   -1.560145   -0.296666
     13          8           0       -1.717028   -1.842561    0.486771
     14          8           0       -2.901180   -2.193474   -1.312053
     15          6           0        3.436705   -2.296489    0.478464
     16          6           0        2.308922   -1.621776   -0.000481
     17          6           0        2.371698   -0.257675   -0.300211
     18          6           0        3.583805    0.403578   -0.108297
     19          6           0        4.724781   -0.240803    0.367350
     20          6           0        4.638915   -1.605068    0.660530
     21          1           0        3.378970   -3.356218    0.708758
     22          1           0        1.373945   -2.156187   -0.142849
     23          1           0        1.513904    0.289242   -0.672352
     24          1           0        5.642860    0.318849    0.499019
     25          1           0        5.516369   -2.126483    1.032343
     26          7           0        3.662486    1.847777   -0.422140
     27          8           0        4.742131    2.407613   -0.244409
     28          8           0        2.643020    2.392561   -0.839920
 ---------------------------------------------------------------------

 SCF Done:  E(RHF) =  -868.340527599     A.U. after   16 cycles
 E2 =    -0.2598186510D+01 EUMP2 =    -0.87093871410913D+03

 The electronic state is 1-A.
 Alpha  occ. eigenvalues --  -20.61536 -20.61493 -20.60324 -20.60317 -15.86533
 Alpha  occ. eigenvalues --  -15.85364 -11.31570 -11.30519 -11.28101 -11.28095
 Alpha  occ. eigenvalues --  -11.27773 -11.27075 -11.27037 -11.27023 -11.26964
 Alpha  occ. eigenvalues --  -11.26682 -11.26076 -11.25779  -1.60580  -1.59402
 Alpha  occ. eigenvalues --   -1.40141  -1.38962  -1.19710  -1.18641  -1.09166
 Alpha  occ. eigenvalues --   -1.08072  -1.05062  -1.03983  -0.96056  -0.94953
 Alpha  occ. eigenvalues --   -0.86477  -0.85391  -0.82901  -0.81773  -0.77984
 Alpha  occ. eigenvalues --   -0.76853  -0.72766  -0.71882  -0.71589  -0.70813
 Alpha  occ. eigenvalues --   -0.70722  -0.69750  -0.65367  -0.65060  -0.64276
 Alpha  occ. eigenvalues --   -0.63935  -0.62415  -0.61314  -0.55573  -0.54493
 Alpha  occ. eigenvalues --   -0.53407  -0.53150  -0.52361  -0.52034  -0.49535
 Alpha  occ. eigenvalues --   -0.49491  -0.48356  -0.48321  -0.45613  -0.44414
 Alpha  occ. eigenvalues --   -0.37667  -0.36646  -0.36620  -0.35585
 Alpha virt. eigenvalues --    0.04500   0.05629   0.11011   0.12062   0.16054
 Alpha virt. eigenvalues --    0.17197   0.21169   0.22337   0.27110   0.27871
 Alpha virt. eigenvalues --    0.28466   0.29034   0.30803   0.31919   0.32315

 Mulliken charges:
               1
     1  C   -0.169207
     2  C   -0.218250
     3  C   -0.170174
     4  C    0.157086
     5  C   -0.170535
     6  C   -0.217552
     7  H    0.228048
     8  H    0.225197
     9  H    0.275895
    10  H    0.274997
    11  H    0.226141
    12  N    0.488900
    13  O   -0.470240
    14  O   -0.457407
    15  C   -0.172463
    16  C   -0.224114
    17  C   -0.173963
    18  C    0.157960
    19  C   -0.173454
    20  C   -0.218535
    21  H    0.226202
    22  H    0.247084
    23  H    0.273224
    24  H    0.272482
    25  H    0.220633
    26  N    0.488135
    27  O   -0.462678
    28  O   -0.463412
 Sum of Mulliken charges =  -0.00000

 Dipole moment (field-independent basis, Debye):
    X=             -3.5981    Y=             -0.9215    Z=              2.1688  Tot=              4.3010
 Quadrupole moment (field-independent basis, Debye-Ang):
   XX=            -81.6114   YY=           -113.0019   ZZ=           -102.2626
   XY=            -32.3934   XZ=              4.4039   YZ=              1.6481

 Normal termination of Gaussian 16 at Fri May  7 09:44:28 2021.
