 Gaussian 16, Revision A.03,
 Gaussian 16:  EM64L-G16RevA.03 25-Dec-2016

 -------------
 #p 6-31g* mp2
 -------------

 ------------------------------------------------------
 Input file generated by CHIRIPA (05-May-2021 14:51:12)
 ------------------------------------------------------
 Symbolic Z-matrix:
 Charge =  0 Multiplicity = 1

                         Standard orientation:
 ---------------------------------------------------------------------
 Center     Atomic      Atomic             Coordinates (Angstroms)
 Number     Number       Type             X           Y           Z
 ---------------------------------------------------------------------
      1          6           0       -4.217771    0.764432   -0.259221
      2          6           0       -2.791038    0.221892   -0.349048
      3          6           0       -1.790204    1.268868   -0.838911
      4          1           0       -4.525563    1.134076   -1.246932
      5          1           0       -4.231366    1.630560    0.416822
      6          1           0       -2.780394   -0.643804   -1.023639
      7          1           0       -2.486677   -0.146679    0.638948
      8          1           0       -1.771326    2.129753   -0.162803
      9          1           0       -2.066712    1.629803   -1.834837
     10          1           0       -0.776664    0.859747   -0.895636
     11          6           0       -5.229837   -0.270492    0.229023
     12          6           0       -6.656569    0.272048    0.318850
     13          6           0       -7.657404   -0.774928    0.808713
     14          1           0       -5.216242   -1.136620   -0.447019
     15          1           0       -4.922045   -0.640136    1.216734
     16          1           0       -6.960931    0.640619   -0.669146
     17          1           0       -6.667214    1.137744    0.993441
     18          1           0       -7.380896   -1.135864    1.804640
     19          1           0       -7.676282   -1.635813    0.132606
     20          1           0       -8.670944   -0.365808    0.865438
     21          6           0        5.226876    0.193940    0.383813
     22          6           0        6.682456   -0.170192    0.089399
     23          6           0        7.676996    0.720740    0.834331
     24          1           0        5.055991    1.244370    0.111161
     25          1           0        5.049014    0.118873    1.465536
     26          1           0        6.857152   -0.095802   -0.991601
     27          1           0        6.849846   -1.219933    0.362605
     28          1           0        7.531461    0.639597    1.916382
     29          1           0        7.538808    1.770116    0.554481
     30          1           0        8.711470    0.443029    0.609383
     31          6           0        4.220732   -0.687879   -0.353615
     32          6           0        2.765152   -0.323747   -0.059201
     33          6           0        1.770611   -1.214680   -0.804132
     34          1           0        4.398594   -0.612813   -1.435338
     35          1           0        4.391617   -1.738309   -0.080963
     36          1           0        2.597762    0.725994   -0.332407
     37          1           0        2.590456   -0.398138    1.021800
     38          1           0        1.908800   -2.264055   -0.524283
     39          1           0        1.916147   -1.133537   -1.886184
     40          1           0        0.736138   -0.936969   -0.579185
 ---------------------------------------------------------------------

 SCF Done:  E(RHF) =  -470.733305686     A.U. after   11 cycles
 E2 =    -0.1582232657D+01 EUMP2 =    -0.47231553834320D+03

 The electronic state is 1-A.
 Alpha  occ. eigenvalues --  -11.21609 -11.21601 -11.21600 -11.21597 -11.21405
 Alpha  occ. eigenvalues --  -11.21401 -11.21346 -11.21342 -11.21071 -11.21069
 Alpha  occ. eigenvalues --  -11.21067 -11.21039  -1.08435  -1.08423  -1.03551
 Alpha  occ. eigenvalues --   -1.03509  -0.96022  -0.95937  -0.87044  -0.86947
 Alpha  occ. eigenvalues --   -0.79599  -0.79581  -0.78244  -0.78237  -0.65061
 Alpha  occ. eigenvalues --   -0.65055  -0.60932  -0.60918  -0.59674  -0.59125
 Alpha  occ. eigenvalues --   -0.57781  -0.57377  -0.55269  -0.55254  -0.52939
 Alpha  occ. eigenvalues --   -0.52553  -0.52461  -0.52166  -0.49923  -0.49908
 Alpha  occ. eigenvalues --   -0.47969  -0.47839  -0.46628  -0.46618  -0.45785
 Alpha  occ. eigenvalues --   -0.45780  -0.45709  -0.45704  -0.43882  -0.43669
 Alpha virt. eigenvalues --    0.21511   0.22999   0.23355   0.25037   0.26602
 Alpha virt. eigenvalues --    0.26662   0.26849   0.27475   0.27646   0.28771
 Alpha virt. eigenvalues --    0.30743   0.31400   0.31423   0.31666   0.32066

 Mulliken charges:
               1
     1  C   -0.298203
     2  C   -0.299844
     3  C   -0.482557
     4  H    0.149749
     5  H    0.149572
     6  H    0.152294
     7  H    0.151732
     8  H    0.155165
     9  H    0.155270
    10  H    0.166519
    11  C   -0.298319
    12  C   -0.299666
    13  C   -0.475709
    14  H    0.149614
    15  H    0.149638
    16  H    0.151946
    17  H    0.151912
    18  H    0.155169
    19  H    0.155208
    20  H    0.160238
    21  C   -0.298309
    22  C   -0.299670
    23  C   -0.475713
    24  H    0.149772
    25  H    0.149512
    26  H    0.151953
    27  H    0.151925
    28  H    0.155169
    29  H    0.155216
    30  H    0.160250
    31  C   -0.298245
    32  C   -0.300319
    33  C   -0.481590
    34  H    0.149599
    35  H    0.149728
    36  H    0.152592
    37  H    0.151983
    38  H    0.155506
    39  H    0.155256
    40  H    0.165656
 Sum of Mulliken charges =  -0.00000

 Dipole moment (field-independent basis, Debye):
    X=              0.0062    Y=             -0.0037    Z=             -0.0018  Tot=              0.0074
 Quadrupole moment (field-independent basis, Debye-Ang):
   XX=            -86.2010   YY=            -85.0179   ZZ=            -83.5384
   XY=             -0.9402   XZ=              0.0668   YZ=             -0.2871

 Normal termination of Gaussian 16 at Thu May  6 00:42:36 2021.
