 Gaussian 16, Revision A.03,
 Gaussian 16:  EM64L-G16RevA.03 25-Dec-2016

 -------------
 #p 6-31g* mp2
 -------------

 ------------------------------------------------------
 Input file generated by CHIRIPA (05-May-2021 14:53:14)
 ------------------------------------------------------
 Symbolic Z-matrix:
 Charge =  0 Multiplicity = 1

                         Standard orientation:
 ---------------------------------------------------------------------
 Center     Atomic      Atomic             Coordinates (Angstroms)
 Number     Number       Type             X           Y           Z
 ---------------------------------------------------------------------
      1          6           0        5.200959   -0.270747    0.088218
      2          6           0        6.077210    0.795221   -0.570479
      3          6           0        7.545319    0.378478   -0.664153
      4          1           0        5.587908   -0.484163    1.094035
      5          1           0        5.281855   -1.206069   -0.482767
      6          1           0        5.993606    1.728649    0.000783
      7          1           0        5.688017    1.006263   -1.574773
      8          1           0        7.648475   -0.539391   -1.251926
      9          1           0        7.955801    0.187099    0.332581
     10          1           0        8.153630    1.155069   -1.138203
     11          6           0        3.730604    0.131258    0.189085
     12          6           0        2.854353   -0.934710    0.847782
     13          6           0        1.386244   -0.517966    0.941456
     14          1           0        3.649708    1.066580    0.760070
     15          1           0        3.343655    0.344675   -0.816733
     16          1           0        3.243546   -1.145752    1.852075
     17          1           0        2.937957   -1.868137    0.276520
     18          1           0        0.975762   -0.326587   -0.055278
     19          1           0        1.283088    0.399902    1.529229
     20          1           0        0.777933   -1.294558    1.415506
     21          6           0       -3.786622    2.551860    0.092700
     22          6           0       -2.514177    1.985848    0.223208
     23          6           0       -2.337418    0.603348    0.113671
     24          6           0       -3.460108   -0.186949   -0.127755
     25          6           0       -4.740686    0.347122   -0.262580
     26          6           0       -4.893864    1.732136   -0.149351
     27          1           0       -3.914774    3.626796    0.179225
     28          1           0       -1.652473    2.620014    0.411213
     29          1           0       -1.363635    0.138812    0.210475
     30          1           0       -5.580654   -0.310789   -0.449733
     31          1           0       -5.883247    2.168947   -0.251150
     32          7           0       -3.285464   -1.651871   -0.245672
     33          8           0       -4.290615   -2.326390   -0.458587
     34          8           0       -2.146734   -2.097818   -0.122946
 ---------------------------------------------------------------------

 SCF Done:  E(RHF) =  -669.535670747     A.U. after   15 cycles
 E2 =    -0.2091367148D+01 EUMP2 =    -0.67162703789490D+03

 The electronic state is 1-A.
 Alpha  occ. eigenvalues --  -20.60720 -20.60714 -15.85767 -11.31089 -11.27682
 Alpha  occ. eigenvalues --  -11.27591 -11.27427 -11.26694 -11.26665 -11.21660
 Alpha  occ. eigenvalues --  -11.21640 -11.21478 -11.21400 -11.21242 -11.21102
 Alpha  occ. eigenvalues --   -1.59794  -1.39348  -1.19272  -1.08680  -1.08492
 Alpha  occ. eigenvalues --   -1.04670  -1.03600  -0.96077  -0.95513  -0.87113
 Alpha  occ. eigenvalues --   -0.86066  -0.82348  -0.79692  -0.78314  -0.77384
 Alpha  occ. eigenvalues --   -0.71989  -0.71115  -0.70388  -0.65122  -0.64926
 Alpha  occ. eigenvalues --   -0.64680  -0.62041  -0.60984  -0.59398  -0.57664
 Alpha  occ. eigenvalues --   -0.55396  -0.55169  -0.53009  -0.52974  -0.52620
 Alpha  occ. eigenvalues --   -0.52391  -0.50017  -0.48747  -0.48740  -0.47983
 Alpha  occ. eigenvalues --   -0.46692  -0.45854  -0.45768  -0.44762  -0.43832
 Alpha  occ. eigenvalues --   -0.37266  -0.36272
 Alpha virt. eigenvalues --    0.05119   0.11362   0.16618   0.21053   0.22840
 Alpha virt. eigenvalues --    0.24197   0.25869   0.26558   0.27538   0.27918
 Alpha virt. eigenvalues --    0.29450   0.30310   0.31479   0.31718   0.32068

 Mulliken charges:
               1
     1  C   -0.298571
     2  C   -0.299580
     3  C   -0.475779
     4  H    0.150025
     5  H    0.151433
     6  H    0.150723
     7  H    0.151800
     8  H    0.156083
     9  H    0.155347
    10  H    0.160006
    11  C   -0.298774
    12  C   -0.299046
    13  C   -0.486301
    14  H    0.146567
    15  H    0.149310
    16  H    0.152980
    17  H    0.158100
    18  H    0.151732
    19  H    0.147116
    20  H    0.176834
    21  C   -0.170348
    22  C   -0.224376
    23  C   -0.182905
    24  C    0.155862
    25  C   -0.169696
    26  C   -0.219457
    27  H    0.225192
    28  H    0.223620
    29  H    0.299395
    30  H    0.275234
    31  H    0.223023
    32  N    0.486695
    33  O   -0.460545
    34  O   -0.461701
 Sum of Mulliken charges =  -0.00000

 Dipole moment (field-independent basis, Debye):
    X=             -0.5195    Y=              5.0319    Z=              0.4307  Tot=              5.0770
 Quadrupole moment (field-independent basis, Debye-Ang):
   XX=            -86.8695   YY=            -97.0377   ZZ=            -94.8274
   XY=            -17.4117   XZ=             -0.1916   YZ=             -0.3810

 Normal termination of Gaussian 16 at Thu May  6 04:14:29 2021.
