 Gaussian 16, Revision A.03,
 Gaussian 16:  EM64L-G16RevA.03 25-Dec-2016

 -------------
 #p 6-31g* mp2
 -------------

 ------------------------------------------------------
 Input file generated by CHIRIPA (05-May-2021 14:53:13)
 ------------------------------------------------------
 Symbolic Z-matrix:
 Charge =  0 Multiplicity = 1

                         Standard orientation:
 ---------------------------------------------------------------------
 Center     Atomic      Atomic             Coordinates (Angstroms)
 Number     Number       Type             X           Y           Z
 ---------------------------------------------------------------------
      1          6           0       -3.353830   -0.711586   -0.359212
      2          6           0       -4.458327   -1.456370    0.391367
      3          6           0       -4.545876   -2.932398    0.002173
      4          1           0       -3.531580   -0.797374   -1.439948
      5          1           0       -2.390593   -1.201765   -0.160989
      6          1           0       -5.419002   -0.964101    0.192894
      7          1           0       -4.278033   -1.368637    1.470447
      8          1           0       -3.601912   -3.443922    0.216362
      9          1           0       -4.749364   -3.037088   -1.068450
     10          1           0       -5.341913   -3.445654    0.550583
     11          6           0       -3.253841    0.765107    0.019083
     12          6           0       -2.149344    1.509892   -0.731496
     13          6           0       -2.061795    2.985919   -0.342302
     14          1           0       -4.217079    1.255286   -0.179141
     15          1           0       -3.076091    0.850895    1.099819
     16          1           0       -2.329639    1.422159   -1.810576
     17          1           0       -1.188670    1.017623   -0.533023
     18          1           0       -1.858307    3.090609    0.728321
     19          1           0       -3.005759    3.497443   -0.556491
     20          1           0       -1.265758    3.499175   -0.890712
     21          6           0        1.242171    2.010284    0.801743
     22          6           0        1.513378    1.010154    1.741270
     23          6           0        2.254277   -0.119624    1.381801
     24          6           0        2.710567   -0.217275    0.068198
     25          6           0        2.456804    0.762224   -0.890695
     26          6           0        1.713918    1.883350   -0.508930
     27          1           0        0.665851    2.884562    1.089647
     28          1           0        1.148283    1.106067    2.759873
     29          1           0        2.478750   -0.908850    2.089016
     30          1           0        2.834124    0.638530   -1.898538
     31          1           0        1.504816    2.658495   -1.240689
     32          7           0        3.495974   -1.408740   -0.324157
     33          8           0        3.886674   -1.471062   -1.487818
     34          8           0        3.706006   -2.257731    0.539405
 ---------------------------------------------------------------------

 SCF Done:  E(RHF) =  -669.534451369     A.U. after   15 cycles
 E2 =    -0.2093483156D+01 EUMP2 =    -0.67162793452525D+03

 The electronic state is 1-A.
 Alpha  occ. eigenvalues --  -20.60796 -20.60791 -15.85852 -11.31226 -11.27817
 Alpha  occ. eigenvalues --  -11.27804 -11.27492 -11.26809 -11.26790 -11.22127
 Alpha  occ. eigenvalues --  -11.22068 -11.21863 -11.21854 -11.21681 -11.21221
 Alpha  occ. eigenvalues --   -1.59872  -1.39425  -1.19416  -1.08906  -1.08758
 Alpha  occ. eigenvalues --   -1.04819  -1.04009  -0.96509  -0.95617  -0.87512
 Alpha  occ. eigenvalues --   -0.86210  -0.82460  -0.80070  -0.78634  -0.77509
 Alpha  occ. eigenvalues --   -0.72069  -0.71197  -0.70529  -0.65506  -0.65058
 Alpha  occ. eigenvalues --   -0.64821  -0.62171  -0.61434  -0.59895  -0.58082
 Alpha  occ. eigenvalues --   -0.55973  -0.55134  -0.53239  -0.53105  -0.52938
 Alpha  occ. eigenvalues --   -0.52856  -0.50402  -0.48828  -0.48823  -0.48377
 Alpha  occ. eigenvalues --   -0.47070  -0.46188  -0.46078  -0.44829  -0.44250
 Alpha  occ. eigenvalues --   -0.37308  -0.36418
 Alpha virt. eigenvalues --    0.05013   0.11161   0.16438   0.20075   0.22782
 Alpha virt. eigenvalues --    0.24227   0.25612   0.26266   0.26635   0.27629
 Alpha virt. eigenvalues --    0.29405   0.29805   0.31327   0.31528   0.32131

 Mulliken charges:
               1
     1  C   -0.299153
     2  C   -0.299813
     3  C   -0.476166
     4  H    0.150986
     5  H    0.151903
     6  H    0.151917
     7  H    0.150916
     8  H    0.157031
     9  H    0.156080
    10  H    0.160843
    11  C   -0.297370
    12  C   -0.307246
    13  C   -0.477690
    14  H    0.149900
    15  H    0.146678
    16  H    0.153178
    17  H    0.162906
    18  H    0.148072
    19  H    0.161045
    20  H    0.151607
    21  C   -0.169786
    22  C   -0.220295
    23  C   -0.170986
    24  C    0.158142
    25  C   -0.170993
    26  C   -0.219000
    27  H    0.230394
    28  H    0.223405
    29  H    0.275721
    30  H    0.275947
    31  H    0.224444
    32  N    0.488117
    33  O   -0.460232
    34  O   -0.460501
 Sum of Mulliken charges =  -0.00000

 Dipole moment (field-independent basis, Debye):
    X=             -2.7971    Y=              4.1164    Z=              1.3514  Tot=              5.1570
 Quadrupole moment (field-independent basis, Debye-Ang):
   XX=           -110.0566   YY=            -97.8325   ZZ=            -89.8410
   XY=             12.0874   XZ=              3.6909   YZ=             -2.2955

 Normal termination of Gaussian 16 at Thu May  6 00:59:17 2021.
