 Gaussian 16, Revision A.03,
 Gaussian 16:  EM64L-G16RevA.03 25-Dec-2016

 -------------
 #p 6-31g* mp2
 -------------

 ------------------------------------------------------
 Input file generated by CHIRIPA (05-May-2021 14:51:11)
 ------------------------------------------------------
 Symbolic Z-matrix:
 Charge =  0 Multiplicity = 1

                         Standard orientation:
 ---------------------------------------------------------------------
 Center     Atomic      Atomic             Coordinates (Angstroms)
 Number     Number       Type             X           Y           Z
 ---------------------------------------------------------------------
      1          6           0       -3.412620   -0.678730    0.048818
      2          6           0       -4.216545   -1.833183   -0.550287
      3          6           0       -3.796028   -3.195548    0.001910
      4          1           0       -2.344502   -0.842458   -0.149329
      5          1           0       -3.532544   -0.685588    1.141048
      6          1           0       -4.096254   -1.823312   -1.641180
      7          1           0       -5.282890   -1.666590   -0.350857
      8          1           0       -3.932624   -3.230001    1.087615
      9          1           0       -2.739246   -3.387613   -0.210039
     10          1           0       -4.383477   -4.006489   -0.439836
     11          6           0       -3.821443    0.689712   -0.493363
     12          6           0       -3.017518    1.844165    0.105742
     13          6           0       -3.438035    3.206530   -0.446455
     14          1           0       -3.701520    0.696570   -1.585593
     15          1           0       -4.889561    0.853439   -0.295216
     16          1           0       -1.951174    1.677572   -0.093688
     17          1           0       -3.137810    1.834294    1.196635
     18          1           0       -4.494818    3.398595   -0.234506
     19          1           0       -3.301440    3.240983   -1.532161
     20          1           0       -2.850587    4.017471   -0.004709
     21          6           0        4.230087   -0.435922    0.072860
     22          6           0        5.369228    0.340222   -0.588914
     23          6           0        6.588663   -0.534485   -0.881594
     24          1           0        4.594579   -0.883908    1.007418
     25          1           0        3.936268   -1.269743   -0.579680
     26          1           0        5.659880    1.173157    0.064046
     27          1           0        5.001930    0.786571   -1.521909
     28          1           0        6.320428   -1.357571   -1.551803
     29          1           0        6.982115   -0.968789    0.043163
     30          1           0        7.390921    0.040445   -1.354561
     31          6           0        3.003977    0.424940    0.371685
     32          6           0        1.864835   -0.351204    1.033459
     33          6           0        0.645400    0.523503    1.326140
     34          1           0        3.297796    1.258761    1.024224
     35          1           0        2.639484    0.872926   -0.562874
     36          1           0        2.232134   -0.797552    1.966454
     37          1           0        1.574184   -1.184139    0.380498
     38          1           0        0.251948    0.957807    0.401383
     39          1           0        0.913636    1.346589    1.996349
     40          1           0       -0.156858   -0.051427    1.799107
 ---------------------------------------------------------------------

 SCF Done:  E(RHF) =  -470.733019906     A.U. after   11 cycles
 E2 =    -0.1582946133D+01 EUMP2 =    -0.47231596603973D+03

 The electronic state is 1-A.
 Alpha  occ. eigenvalues --  -11.21613 -11.21606 -11.21583 -11.21490 -11.21418
 Alpha  occ. eigenvalues --  -11.21363 -11.21359 -11.21303 -11.21080 -11.21064
 Alpha  occ. eigenvalues --  -11.21044 -11.21014  -1.08445  -1.08385  -1.03544
 Alpha  occ. eigenvalues --   -1.03481  -0.95987  -0.95941  -0.87017  -0.86947
 Alpha  occ. eigenvalues --   -0.79664  -0.79498  -0.78278  -0.78167  -0.65117
 Alpha  occ. eigenvalues --   -0.64987  -0.61007  -0.60831  -0.59358  -0.59305
 Alpha  occ. eigenvalues --   -0.57645  -0.57500  -0.55291  -0.55231  -0.52734
 Alpha  occ. eigenvalues --   -0.52584  -0.52465  -0.52320  -0.50017  -0.49843
 Alpha  occ. eigenvalues --   -0.48037  -0.47760  -0.46776  -0.46473  -0.45867
 Alpha  occ. eigenvalues --   -0.45741  -0.45704  -0.45474  -0.43786  -0.43721
 Alpha virt. eigenvalues --    0.21587   0.23112   0.23978   0.24224   0.25930
 Alpha virt. eigenvalues --    0.26576   0.26867   0.27443   0.27950   0.29796
 Alpha virt. eigenvalues --    0.29939   0.31550   0.31670   0.31841   0.32114

 Mulliken charges:
               1
     1  C   -0.300198
     2  C   -0.299615
     3  C   -0.475643
     4  H    0.152069
     5  H    0.149147
     6  H    0.151713
     7  H    0.151956
     8  H    0.155099
     9  H    0.154954
    10  H    0.160205
    11  C   -0.297940
    12  C   -0.305624
    13  C   -0.475387
    14  H    0.148789
    15  H    0.149347
    16  H    0.159583
    17  H    0.151810
    18  H    0.154832
    19  H    0.154483
    20  H    0.160178
    21  C   -0.298239
    22  C   -0.299653
    23  C   -0.475710
    24  H    0.149760
    25  H    0.149425
    26  H    0.151976
    27  H    0.151871
    28  H    0.155165
    29  H    0.155226
    30  H    0.160284
    31  C   -0.298379
    32  C   -0.300008
    33  C   -0.479389
    34  H    0.149663
    35  H    0.149362
    36  H    0.152037
    37  H    0.151357
    38  H    0.157295
    39  H    0.155074
    40  H    0.163126
 Sum of Mulliken charges =  -0.00000

 Dipole moment (field-independent basis, Debye):
    X=              0.0208    Y=              0.0024    Z=              0.0194  Tot=              0.0286
 Quadrupole moment (field-independent basis, Debye-Ang):
   XX=            -85.2688   YY=            -86.1755   ZZ=            -83.5079
   XY=              0.7391   XZ=              0.0091   YZ=              0.4865

 Normal termination of Gaussian 16 at Wed May  5 18:15:49 2021.
