 Gaussian 16, Revision A.03,
 Gaussian 16:  EM64L-G16RevA.03 25-Dec-2016

 -------------
 #p 6-31g* mp2
 -------------

 ------------------------------------------------------
 Input file generated by CHIRIPA (05-May-2021 14:53:13)
 ------------------------------------------------------
 Symbolic Z-matrix:
 Charge =  0 Multiplicity = 1

                         Standard orientation:
 ---------------------------------------------------------------------
 Center     Atomic      Atomic             Coordinates (Angstroms)
 Number     Number       Type             X           Y           Z
 ---------------------------------------------------------------------
      1          6           0        3.003005    0.148855    0.723467
      2          6           0        1.696657   -0.639926    0.627224
      3          6           0        0.551519    0.016501    1.398947
      4          1           0        3.283767    0.253398    1.780438
      5          1           0        2.838032    1.165966    0.341806
      6          1           0        1.864398   -1.655672    1.007670
      7          1           0        1.419073   -0.742769   -0.429652
      8          1           0        0.355494    1.022952    1.015238
      9          1           0        0.803350    0.104861    2.460726
     10          1           0       -0.372703   -0.563930    1.316642
     11          6           0        4.157180   -0.494770   -0.042924
     12          6           0        5.463529    0.294012    0.053319
     13          6           0        6.608667   -0.362416   -0.718404
     14          1           0        4.322154   -1.511880    0.338737
     15          1           0        3.876419   -0.599313   -1.099896
     16          1           0        5.741113    0.396854    1.110194
     17          1           0        5.295788    1.309758   -0.327127
     18          1           0        6.356836   -0.450776   -1.780183
     19          1           0        6.804691   -1.368866   -0.334695
     20          1           0        7.532888    0.218015   -0.636099
     21          6           0       -3.629967   -2.239812   -0.087832
     22          6           0       -2.716487   -1.891536   -1.088221
     23          6           0       -2.248162   -0.578697   -1.196275
     24          6           0       -2.716414    0.364723   -0.283046
     25          6           0       -3.626420    0.048704    0.724581
     26          6           0       -4.081222   -1.270290    0.813787
     27          1           0       -3.988520   -3.262048   -0.011213
     28          1           0       -2.364311   -2.642395   -1.789811
     29          1           0       -1.540875   -0.281740   -1.961114
     30          1           0       -3.959306    0.819163    1.409415
     31          1           0       -4.790631   -1.537901    1.591713
     32          7           0       -2.227778    1.757824   -0.387461
     33          8           0       -2.655658    2.570435    0.429375
     34          8           0       -1.426157    2.010748   -1.284161
 ---------------------------------------------------------------------

 SCF Done:  E(RHF) =  -669.535187861     A.U. after   15 cycles
 E2 =    -0.2093246086D+01 EUMP2 =    -0.67162843394652D+03

 The electronic state is 1-A.
 Alpha  occ. eigenvalues --  -20.60828 -20.60816 -15.85853 -11.31184 -11.27771
 Alpha  occ. eigenvalues --  -11.27764 -11.27536 -11.26815 -11.26804 -11.21412
 Alpha  occ. eigenvalues --  -11.21375 -11.21169 -11.21057 -11.20900 -11.20715
 Alpha  occ. eigenvalues --   -1.59892  -1.39446  -1.19395  -1.08790  -1.08184
 Alpha  occ. eigenvalues --   -1.04795  -1.03300  -0.95750  -0.95624  -0.86774
 Alpha  occ. eigenvalues --   -0.86188  -0.82461  -0.79381  -0.78000  -0.77508
 Alpha  occ. eigenvalues --   -0.72088  -0.71227  -0.70500  -0.65045  -0.64820
 Alpha  occ. eigenvalues --   -0.64783  -0.62141  -0.60687  -0.59166  -0.57397
 Alpha  occ. eigenvalues --   -0.55301  -0.55019  -0.53380  -0.52884  -0.52294
 Alpha  occ. eigenvalues --   -0.52020  -0.49678  -0.48846  -0.48843  -0.47678
 Alpha  occ. eigenvalues --   -0.46405  -0.45548  -0.45456  -0.44838  -0.43556
 Alpha  occ. eigenvalues --   -0.37319  -0.36397
 Alpha virt. eigenvalues --    0.05003   0.11201   0.16507   0.21261   0.23090
 Alpha virt. eigenvalues --    0.24411   0.26541   0.27292   0.27778   0.28080
 Alpha virt. eigenvalues --    0.28416   0.30779   0.31634   0.31798   0.31960

 Mulliken charges:
               1
     1  C   -0.299448
     2  C   -0.296590
     3  C   -0.488855
     4  H    0.149056
     5  H    0.156698
     6  H    0.148119
     7  H    0.147888
     8  H    0.166808
     9  H    0.154529
    10  H    0.160514
    11  C   -0.298030
    12  C   -0.299827
    13  C   -0.475576
    14  H    0.147115
    15  H    0.148892
    16  H    0.151653
    17  H    0.154234
    18  H    0.154853
    19  H    0.153868
    20  H    0.160207
    21  C   -0.171355
    22  C   -0.217991
    23  C   -0.171400
    24  C    0.161254
    25  C   -0.171767
    26  C   -0.218319
    27  H    0.225836
    28  H    0.223822
    29  H    0.275394
    30  H    0.275938
    31  H    0.223750
    32  N    0.489133
    33  O   -0.459329
    34  O   -0.461073
 Sum of Mulliken charges =  -0.00000

 Dipole moment (field-independent basis, Debye):
    X=             -1.8008    Y=             -4.8111    Z=              0.3594  Tot=              5.1496
 Quadrupole moment (field-independent basis, Debye-Ang):
   XX=            -85.2127   YY=            -98.4732   ZZ=            -91.8587
   XY=             12.5355   XZ=             -2.4893   YZ=              2.1699

 Normal termination of Gaussian 16 at Wed May  5 17:01:24 2021.
