 Gaussian 16, Revision A.03,
 Gaussian 16:  EM64L-G16RevA.03 25-Dec-2016

 -------------
 #p 6-31g* mp2
 -------------

 ------------------------------------------------------
 Input file generated by CHIRIPA (05-May-2021 14:53:17)
 ------------------------------------------------------
 Symbolic Z-matrix:
 Charge =  0 Multiplicity = 1

                         Standard orientation:
 ---------------------------------------------------------------------
 Center     Atomic      Atomic             Coordinates (Angstroms)
 Number     Number       Type             X           Y           Z
 ---------------------------------------------------------------------
      1          6           0       -3.406140    0.717610   -0.570907
      2          6           0       -3.735957    1.853948    0.397568
      3          6           0       -3.831227    3.213098   -0.296282
      4          1           0       -2.456787    0.939785   -1.077181
      5          1           0       -4.176010    0.677447   -1.353902
      6          1           0       -2.966440    1.891070    1.179286
      7          1           0       -4.684538    1.628950    0.901736
      8          1           0       -4.611809    3.199925   -1.063823
      9          1           0       -2.883949    3.463535   -0.784696
     10          1           0       -4.067786    4.011012    0.414515
     11          6           0       -3.307532   -0.647422    0.107836
     12          6           0       -2.977715   -1.783760   -0.860639
     13          6           0       -2.882445   -3.142910   -0.166788
     14          1           0       -2.537661   -0.607260    0.890831
     15          1           0       -4.256884   -0.869597    0.614110
     16          1           0       -2.029133   -1.558762   -1.364807
     17          1           0       -3.747231   -1.820882   -1.642357
     18          1           0       -3.829722   -3.393347    0.321626
     19          1           0       -2.101862   -3.129737    0.600753
     20          1           0       -2.645885   -3.940824   -0.877586
     21          6           0        4.573190    0.558933   -1.308083
     22          6           0        4.648741    0.792383    0.068985
     23          6           0        3.574019    0.471420    0.903552
     24          6           0        2.433945   -0.084103    0.324835
     25          6           0        2.328316   -0.328682   -1.043490
     26          6           0        3.415260    0.000131   -1.858954
     27          1           0        5.412807    0.811315   -1.948975
     28          1           0        5.546747    1.226243    0.499561
     29          1           0        3.605723    0.641571    1.972880
     30          1           0        1.419886   -0.762369   -1.443599
     31          1           0        3.353779   -0.182277   -2.928062
     32          7           0        1.289715   -0.428048    1.198243
     33          8           0        0.296498   -0.916457    0.663814
     34          8           0        1.407752   -0.202710    2.400710
 ---------------------------------------------------------------------

 SCF Done:  E(RHF) =  -669.536518747     A.U. after   15 cycles
 E2 =    -0.2091901338D+01 EUMP2 =    -0.67162842008572D+03

 The electronic state is 1-A.
 Alpha  occ. eigenvalues --  -20.61107 -20.61099 -15.86124 -11.31385 -11.27940
 Alpha  occ. eigenvalues --  -11.27936 -11.27665 -11.26932 -11.26923 -11.20725
 Alpha  occ. eigenvalues --  -11.20443 -11.20390 -11.20371 -11.19908 -11.19819
 Alpha  occ. eigenvalues --   -1.60158  -1.39716  -1.19546  -1.08963  -1.07291
 Alpha  occ. eigenvalues --   -1.04933  -1.02483  -0.95814  -0.94937  -0.86336
 Alpha  occ. eigenvalues --   -0.85960  -0.82651  -0.78580  -0.77711  -0.77083
 Alpha  occ. eigenvalues --   -0.72366  -0.71465  -0.70655  -0.65213  -0.64935
 Alpha  occ. eigenvalues --   -0.63868  -0.62281  -0.59847  -0.58339  -0.56561
 Alpha  occ. eigenvalues --   -0.55439  -0.54208  -0.53267  -0.53024  -0.51695
 Alpha  occ. eigenvalues --   -0.51375  -0.49154  -0.49105  -0.48834  -0.46901
 Alpha  occ. eigenvalues --   -0.45595  -0.45154  -0.44659  -0.44393  -0.42712
 Alpha  occ. eigenvalues --   -0.37521  -0.36531
 Alpha virt. eigenvalues --    0.04796   0.11124   0.16293   0.20954   0.23707
 Alpha virt. eigenvalues --    0.24974   0.26515   0.27464   0.28501   0.28868
 Alpha virt. eigenvalues --    0.29043   0.30771   0.31683   0.32563   0.32913

 Mulliken charges:
               1
     1  C   -0.296232
     2  C   -0.300027
     3  C   -0.474704
     4  H    0.146089
     5  H    0.143622
     6  H    0.156565
     7  H    0.150286
     8  H    0.152786
     9  H    0.151974
    10  H    0.158034
    11  C   -0.305411
    12  C   -0.294003
    13  C   -0.479434
    14  H    0.176344
    15  H    0.142656
    16  H    0.150427
    17  H    0.143113
    18  H    0.150152
    19  H    0.170527
    20  H    0.151849
    21  C   -0.170322
    22  C   -0.218614
    23  C   -0.170390
    24  C    0.157460
    25  C   -0.170996
    26  C   -0.218652
    27  H    0.226405
    28  H    0.224156
    29  H    0.276014
    30  H    0.276241
    31  H    0.224378
    32  N    0.492438
    33  O   -0.464621
    34  O   -0.458110
 Sum of Mulliken charges =  -0.00000

 Dipole moment (field-independent basis, Debye):
    X=              4.4204    Y=              1.1935    Z=             -2.8665  Tot=              5.4020
 Quadrupole moment (field-independent basis, Debye-Ang):
   XX=            -74.3825   YY=            -97.0338   ZZ=            -93.9606
   XY=              3.9405   XZ=             -4.5195   YZ=              2.3679

 Normal termination of Gaussian 16 at Thu May  6 15:37:05 2021.
