 Gaussian 16, Revision A.03,
 Gaussian 16:  EM64L-G16RevA.03 25-Dec-2016

 -------------
 #p 6-31g* mp2
 -------------

 ------------------------------------------------------
 Input file generated by CHIRIPA (05-May-2021 14:51:12)
 ------------------------------------------------------
 Symbolic Z-matrix:
 Charge =  0 Multiplicity = 1

                         Standard orientation:
 ---------------------------------------------------------------------
 Center     Atomic      Atomic             Coordinates (Angstroms)
 Number     Number       Type             X           Y           Z
 ---------------------------------------------------------------------
      1          6           0       -2.857017    0.918556   -0.609924
      2          6           0       -2.076344    1.741517    0.415390
      3          6           0       -1.141050    2.761874   -0.234142
      4          1           0       -2.148647    0.400240   -1.270610
      5          1           0       -3.439767    1.597573   -1.247680
      6          1           0       -1.496314    1.061060    1.051912
      7          1           0       -2.786653    2.257783    1.073832
      8          1           0       -1.707775    3.463733   -0.854479
      9          1           0       -0.410105    2.260210   -0.876524
     10          1           0       -0.592902    3.339143    0.516960
     11          6           0       -3.796343   -0.105864    0.024077
     12          6           0       -4.577017   -0.928826   -1.001237
     13          6           0       -5.512311   -1.949183   -0.351705
     14          1           0       -3.213593   -0.784881    0.661833
     15          1           0       -4.504713    0.412452    0.684763
     16          1           0       -3.866708   -1.445092   -1.659680
     17          1           0       -5.157046   -0.248369   -1.637759
     18          1           0       -6.243255   -1.447519    0.290677
     19          1           0       -4.945585   -2.651041    0.268631
     20          1           0       -6.060458   -2.526451   -1.102808
     21          6           0        3.695003   -0.491687   -0.370769
     22          6           0        5.187336   -0.170763   -0.281698
     23          6           0        5.910470   -0.346154   -1.617404
     24          1           0        3.568942   -1.524017   -0.724814
     25          1           0        3.232098    0.156947   -1.127332
     26          1           0        5.647023   -0.818852    0.475457
     27          1           0        5.309862    0.860860    0.072359
     28          1           0        5.478770    0.311845   -2.378503
     29          1           0        5.817847   -1.377411   -1.973117
     30          1           0        6.975988   -0.111522   -1.530915
     31          6           0        2.958357   -0.321005    0.956616
     32          6           0        1.466024   -0.641928    0.867547
     33          6           0        0.742890   -0.466537    2.203251
     34          1           0        3.421262   -0.969639    1.713179
     35          1           0        3.084419    0.711325    1.310661
     36          1           0        1.343498   -1.673552    0.513488
     37          1           0        1.006337    0.006161    0.110391
     38          1           0        0.835514    0.564719    2.558964
     39          1           0        1.174590   -1.124537    2.964351
     40          1           0       -0.322628   -0.701170    2.116762
 ---------------------------------------------------------------------

 SCF Done:  E(RHF) =  -470.732856281     A.U. after   11 cycles
 E2 =    -0.1583660383D+01 EUMP2 =    -0.47231651666464D+03

 The electronic state is 1-A.
 Alpha  occ. eigenvalues --  -11.21666 -11.21622 -11.21595 -11.21495 -11.21443
 Alpha  occ. eigenvalues --  -11.21394 -11.21383 -11.21328 -11.21140 -11.21086
 Alpha  occ. eigenvalues --  -11.21079 -11.21066  -1.08482  -1.08402  -1.03611
 Alpha  occ. eigenvalues --   -1.03479  -0.96042  -0.95959  -0.87064  -0.86971
 Alpha  occ. eigenvalues --   -0.79670  -0.79545  -0.78283  -0.78224  -0.65229
 Alpha  occ. eigenvalues --   -0.64955  -0.61236  -0.60704  -0.59436  -0.59273
 Alpha  occ. eigenvalues --   -0.57641  -0.57571  -0.55396  -0.55163  -0.52775
 Alpha  occ. eigenvalues --   -0.52644  -0.52467  -0.52377  -0.50045  -0.49844
 Alpha  occ. eigenvalues --   -0.47977  -0.47874  -0.46731  -0.46514  -0.45844
 Alpha  occ. eigenvalues --   -0.45779  -0.45710  -0.45642  -0.43809  -0.43757
 Alpha virt. eigenvalues --    0.19977   0.22975   0.23736   0.24425   0.26042
 Alpha virt. eigenvalues --    0.26130   0.26801   0.27820   0.28054   0.29282
 Alpha virt. eigenvalues --    0.30633   0.31354   0.31856   0.31989   0.32348

 Mulliken charges:
               1
     1  C   -0.298132
     2  C   -0.309691
     3  C   -0.476614
     4  H    0.149526
     5  H    0.149309
     6  H    0.164712
     7  H    0.151539
     8  H    0.155266
     9  H    0.155045
    10  H    0.159664
    11  C   -0.299038
    12  C   -0.299654
    13  C   -0.475717
    14  H    0.149178
    15  H    0.149834
    16  H    0.152066
    17  H    0.152042
    18  H    0.155187
    19  H    0.155129
    20  H    0.160247
    21  C   -0.298336
    22  C   -0.299716
    23  C   -0.475757
    24  H    0.149617
    25  H    0.149415
    26  H    0.151972
    27  H    0.152152
    28  H    0.155296
    29  H    0.155155
    30  H    0.160362
    31  C   -0.298154
    32  C   -0.304234
    33  C   -0.479429
    34  H    0.149746
    35  H    0.150197
    36  H    0.151915
    37  H    0.155801
    38  H    0.156286
    39  H    0.156658
    40  H    0.161160
 Sum of Mulliken charges =  -0.00000

 Dipole moment (field-independent basis, Debye):
    X=              0.0274    Y=             -0.0095    Z=              0.0223  Tot=              0.0366
 Quadrupole moment (field-independent basis, Debye-Ang):
   XX=            -85.1409   YY=            -84.0226   ZZ=            -85.6146
   XY=             -1.2071   XZ=              0.8563   YZ=             -0.0189

 Normal termination of Gaussian 16 at Wed May  5 23:09:46 2021.
