 Gaussian 16, Revision A.03,
 Gaussian 16:  EM64L-G16RevA.03 25-Dec-2016

 -------------
 #p 6-31g* mp2
 -------------

 ------------------------------------------------------
 Input file generated by CHIRIPA (05-May-2021 14:57:21)
 ------------------------------------------------------
 Symbolic Z-matrix:
 Charge =  0 Multiplicity = 1

                         Standard orientation:
 ---------------------------------------------------------------------
 Center     Atomic      Atomic             Coordinates (Angstroms)
 Number     Number       Type             X           Y           Z
 ---------------------------------------------------------------------
      1          6           0        1.545800    1.248393    1.768215
      2          6           0        2.046576    1.928192    0.653039
      3          6           0        2.923571    1.292746   -0.231063
      4          6           0        3.280382   -0.028988    0.031607
      5          6           0        2.798426   -0.733037    1.134024
      6          6           0        1.922658   -0.077714    2.004731
      7          1           0        0.865006    1.749743    2.449805
      8          1           0        1.755628    2.958110    0.466859
      9          1           0        3.326237    1.795422   -1.102036
     10          1           0        3.106644   -1.759222    1.293283
     11          1           0        1.535319   -0.608129    2.869991
     12          7           0        4.208168   -0.712228   -0.897263
     13          8           0        4.507164   -1.877089   -0.643617
     14          8           0        4.618802   -0.069952   -1.861368
     15          6           0       -2.714991    2.383476   -0.515191
     16          6           0       -1.657345    1.537642   -0.165235
     17          6           0       -1.874280    0.169063    0.020446
     18          6           0       -3.167350   -0.322128   -0.152744
     19          6           0       -4.241677    0.494995   -0.501198
     20          6           0       -4.001513    1.860375   -0.681762
     21          1           0       -2.537449    3.445380   -0.657445
     22          1           0       -0.657171    1.941115   -0.035206
     23          1           0       -1.073636   -0.508348    0.291560
     24          1           0       -5.227712    0.063566   -0.623770
     25          1           0       -4.824798    2.514893   -0.953522
     26          7           0       -3.409304   -1.769289    0.041119
     27          8           0       -4.557777   -2.177353   -0.117412
     28          8           0       -2.445895   -2.468106    0.347931
 ---------------------------------------------------------------------

 SCF Done:  E(RHF) =  -868.336838498     A.U. after   16 cycles
 E2 =    -0.2602210259D+01 EUMP2 =    -0.87093904875655D+03

 The electronic state is 1-A.
 Alpha  occ. eigenvalues --  -20.61250 -20.61233 -20.61051 -20.61041 -15.86309
 Alpha  occ. eigenvalues --  -15.86102 -11.31920 -11.31495 -11.28590 -11.28492
 Alpha  occ. eigenvalues --  -11.28375 -11.28068 -11.28035 -11.27844 -11.27684
 Alpha  occ. eigenvalues --  -11.27529 -11.27096 -11.27010  -1.60314  -1.60122
 Alpha  occ. eigenvalues --   -1.39860  -1.39675  -1.20166  -1.19673  -1.09526
 Alpha  occ. eigenvalues --   -1.09072  -1.05592  -1.05071  -0.96291  -0.95900
 Alpha  occ. eigenvalues --   -0.87004  -0.86463  -0.83103  -0.82725  -0.78104
 Alpha  occ. eigenvalues --   -0.77763  -0.72523  -0.72319  -0.71641  -0.71447
 Alpha  occ. eigenvalues --   -0.71241  -0.70801  -0.65833  -0.65639  -0.65324
 Alpha  occ. eigenvalues --   -0.65030  -0.62905  -0.62433  -0.56081  -0.55638
 Alpha  occ. eigenvalues --   -0.53945  -0.53659  -0.53415  -0.53080  -0.49301
 Alpha  occ. eigenvalues --   -0.49259  -0.49079  -0.49072  -0.45210  -0.45074
 Alpha  occ. eigenvalues --   -0.38180  -0.37681  -0.37196  -0.36650
 Alpha virt. eigenvalues --    0.04369   0.04813   0.10233   0.10947   0.15686
 Alpha virt. eigenvalues --    0.16354   0.19991   0.21758   0.25905   0.27267
 Alpha virt. eigenvalues --    0.27844   0.28224   0.30215   0.31179   0.31687

 Mulliken charges:
               1
     1  C   -0.175179
     2  C   -0.230711
     3  C   -0.169248
     4  C    0.158710
     5  C   -0.168115
     6  C   -0.221873
     7  H    0.229705
     8  H    0.221466
     9  H    0.278260
    10  H    0.282151
    11  H    0.231515
    12  N    0.488186
    13  O   -0.455803
    14  O   -0.459127
    15  C   -0.172907
    16  C   -0.224849
    17  C   -0.177492
    18  C    0.159322
    19  C   -0.170732
    20  C   -0.218304
    21  H    0.223681
    22  H    0.225867
    23  H    0.276988
    24  H    0.276482
    25  H    0.224050
    26  N    0.488091
    27  O   -0.459290
    28  O   -0.460843
 Sum of Mulliken charges =  -0.00000

 Dipole moment (field-independent basis, Debye):
    X=             -2.1291    Y=              7.2638    Z=              2.6366  Tot=              8.0154
 Quadrupole moment (field-independent basis, Debye-Ang):
   XX=           -126.7153   YY=           -105.7549   ZZ=           -103.5890
   XY=             -9.2778   XZ=             13.9680   YZ=             -3.5532

 Normal termination of Gaussian 16 at Thu May  6 14:26:56 2021.
