 Gaussian 16, Revision A.03,
 Gaussian 16:  EM64L-G16RevA.03 25-Dec-2016

 -------------
 #p 6-31g* mp2
 -------------

 ------------------------------------------------------
 Input file generated by CHIRIPA (05-May-2021 14:57:23)
 ------------------------------------------------------
 Symbolic Z-matrix:
 Charge =  0 Multiplicity = 1

                         Standard orientation:
 ---------------------------------------------------------------------
 Center     Atomic      Atomic             Coordinates (Angstroms)
 Number     Number       Type             X           Y           Z
 ---------------------------------------------------------------------
      1          6           0        5.670072    1.409081    0.560171
      2          6           0        5.949388    0.160927   -0.006058
      3          6           0        4.912158   -0.712659   -0.345986
      4          6           0        3.601387   -0.303989   -0.104827
      5          6           0        3.290941    0.933046    0.457896
      6          6           0        4.344078    1.790485    0.789936
      7          1           0        6.481995    2.081431    0.821172
      8          1           0        6.978215   -0.137928   -0.185628
      9          1           0        5.100021   -1.684701   -0.785599
     10          1           0        2.255269    1.203021    0.624973
     11          1           0        4.124183    2.759213    1.229545
     12          7           0        2.494898   -1.220268   -0.460518
     13          8           0        1.348623   -0.836641   -0.237988
     14          8           0        2.794860   -2.304723   -0.955105
     15          6           0       -3.955079   -2.292597    0.642650
     16          6           0       -5.114779   -1.545774    0.410552
     17          6           0       -5.031811   -0.190042    0.079410
     18          6           0       -3.767186    0.389404   -0.011458
     19          6           0       -2.593417   -0.328048    0.213974
     20          6           0       -2.700312   -1.682427    0.543795
     21          1           0       -4.028823   -3.345236    0.899376
     22          1           0       -6.090586   -2.017005    0.486619
     23          1           0       -5.913439    0.411618   -0.105404
     24          1           0       -1.634786    0.169456    0.130715
     25          1           0       -1.797977   -2.259957    0.723508
     26          7           0       -3.666687    1.823941   -0.361323
     27          8           0       -2.540646    2.310997   -0.435103
     28          8           0       -4.715860    2.434109   -0.555143
 ---------------------------------------------------------------------

 SCF Done:  E(RHF) =  -868.340586476     A.U. after   16 cycles
 E2 =    -0.2598201812D+01 EUMP2 =    -0.87093878828798D+03

 The electronic state is 1-A.
 Alpha  occ. eigenvalues --  -20.61370 -20.61338 -20.60114 -20.60109 -15.86394
 Alpha  occ. eigenvalues --  -15.85157 -11.31454 -11.30284 -11.28002 -11.27964
 Alpha  occ. eigenvalues --  -11.27687 -11.26957 -11.26914 -11.26905 -11.26678
 Alpha  occ. eigenvalues --  -11.26566 -11.25903 -11.25651  -1.60415  -1.59193
 Alpha  occ. eigenvalues --   -1.39979  -1.38752  -1.19601  -1.18442  -1.09054
 Alpha  occ. eigenvalues --   -1.07897  -1.04957  -1.03780  -0.95939  -0.94763
 Alpha  occ. eigenvalues --   -0.86372  -0.85207  -0.82787  -0.81582  -0.77860
 Alpha  occ. eigenvalues --   -0.76645  -0.72640  -0.71712  -0.71387  -0.70709
 Alpha  occ. eigenvalues --   -0.70510  -0.69558  -0.65261  -0.64957  -0.64087
 Alpha  occ. eigenvalues --   -0.63768  -0.62304  -0.61098  -0.55477  -0.54342
 Alpha  occ. eigenvalues --   -0.53306  -0.53044  -0.52169  -0.51848  -0.49388
 Alpha  occ. eigenvalues --   -0.49346  -0.48146  -0.48121  -0.45447  -0.44209
 Alpha  occ. eigenvalues --   -0.37570  -0.36546  -0.36457  -0.35381
 Alpha virt. eigenvalues --    0.04655   0.05837   0.11111   0.12256   0.16206
 Alpha virt. eigenvalues --    0.17373   0.21157   0.22414   0.27011   0.27541
 Alpha virt. eigenvalues --    0.28619   0.29274   0.30879   0.31852   0.32262

 Mulliken charges:
               1
     1  C   -0.169901
     2  C   -0.218723
     3  C   -0.170718
     4  C    0.157268
     5  C   -0.169975
     6  C   -0.218708
     7  H    0.227152
     8  H    0.224209
     9  H    0.275271
    10  H    0.277777
    11  H    0.226829
    12  N    0.493536
    13  O   -0.473526
    14  O   -0.458460
    15  C   -0.171570
    16  C   -0.219360
    17  C   -0.172460
    18  C    0.157392
    19  C   -0.173974
    20  C   -0.221470
    21  H    0.223469
    22  H    0.219756
    23  H    0.271999
    24  H    0.286811
    25  H    0.235810
    26  N    0.488223
    27  O   -0.462872
    28  O   -0.463788
 Sum of Mulliken charges =  -0.00000

 Dipole moment (field-independent basis, Debye):
    X=              4.0245    Y=             -1.8597    Z=              2.5049  Tot=              5.0921
 Quadrupole moment (field-independent basis, Debye-Ang):
   XX=            -67.8995   YY=           -109.4230   ZZ=           -106.2177
   XY=             27.2451   XZ=             -1.3577   YZ=              1.2206

 Normal termination of Gaussian 16 at Wed May  5 19:21:52 2021.
