 Gaussian 16, Revision A.03,
 Gaussian 16:  EM64L-G16RevA.03 25-Dec-2016

 -------------
 #p 6-31g* mp2
 -------------

 ------------------------------------------------------
 Input file generated by CHIRIPA (05-May-2021 14:55:23)
 ------------------------------------------------------
 Symbolic Z-matrix:
 Charge =  0 Multiplicity = 1

                         Standard orientation:
 ---------------------------------------------------------------------
 Center     Atomic      Atomic             Coordinates (Angstroms)
 Number     Number       Type             X           Y           Z
 ---------------------------------------------------------------------
      1          6           0       -2.044900   -2.703004    0.578125
      2          6           0       -3.247537   -2.304026   -0.014329
      3          6           0       -3.477128   -0.958981   -0.318780
      4          6           0       -2.477881   -0.035406   -0.015789
      5          6           0       -1.269263   -0.401764    0.574393
      6          6           0       -1.061336   -1.752276    0.870081
      7          1           0       -1.874962   -3.749991    0.811227
      8          1           0       -4.013171   -3.040186   -0.242185
      9          1           0       -4.398992   -0.622616   -0.777522
     10          1           0       -0.524848    0.355134    0.789730
     11          1           0       -0.126390   -2.059247    1.330180
     12          7           0       -2.709472    1.391427   -0.333459
     13          8           0       -1.813256    2.185632   -0.056561
     14          8           0       -3.782823    1.688556   -0.853333
     15          6           0        2.559828    0.810480    0.179066
     16          6           0        2.931247    2.292151    0.110624
     17          6           0        1.794702    3.208127    0.565648
     18          1           0        1.672054    0.632433   -0.443109
     19          1           0        2.274783    0.558325    1.209873
     20          1           0        3.216836    2.541115   -0.919460
     21          1           0        3.818354    2.466656    0.732881
     22          1           0        1.513704    2.988339    1.600701
     23          1           0        0.908769    3.063221   -0.061030
     24          1           0        2.081754    4.262744    0.508673
     25          6           0        3.685834   -0.117834   -0.272677
     26          6           0        3.314415   -1.599505   -0.204234
     27          6           0        4.450960   -2.515481   -0.659258
     28          1           0        3.970880    0.134321   -1.303484
     29          1           0        4.573608    0.060214    0.349498
     30          1           0        2.427308   -1.774009   -0.826493
     31          1           0        3.028826   -1.848468    0.825849
     32          1           0        5.336894   -2.370575   -0.032581
     33          1           0        4.731958   -2.295693   -1.694311
     34          1           0        4.163909   -3.570098   -0.602285
 ---------------------------------------------------------------------

 SCF Done:  E(RHF) =  -669.535976736     A.U. after   15 cycles
 E2 =    -0.2092948484D+01 EUMP2 =    -0.67162892522002D+03

 The electronic state is 1-A.
 Alpha  occ. eigenvalues --  -20.60826 -20.60810 -15.85862 -11.31153 -11.27736
 Alpha  occ. eigenvalues --  -11.27656 -11.27465 -11.26742 -11.26698 -11.22155
 Alpha  occ. eigenvalues --  -11.21739 -11.21679 -11.21518 -11.21448 -11.20402
 Alpha  occ. eigenvalues --   -1.59889  -1.39446  -1.19328  -1.08740  -1.08690
 Alpha  occ. eigenvalues --   -1.04715  -1.03642  -0.96053  -0.95583  -0.87072
 Alpha  occ. eigenvalues --   -0.86118  -0.82416  -0.79744  -0.78575  -0.77423
 Alpha  occ. eigenvalues --   -0.72088  -0.71207  -0.70438  -0.65321  -0.64981
 Alpha  occ. eigenvalues --   -0.64714  -0.62068  -0.61021  -0.59502  -0.57672
 Alpha  occ. eigenvalues --   -0.55320  -0.55226  -0.53064  -0.52863  -0.52721
 Alpha  occ. eigenvalues --   -0.52412  -0.49998  -0.48846  -0.48834  -0.47995
 Alpha  occ. eigenvalues --   -0.46780  -0.46011  -0.45925  -0.44839  -0.43930
 Alpha  occ. eigenvalues --   -0.37316  -0.36306
 Alpha virt. eigenvalues --    0.05011   0.11279   0.16485   0.20300   0.22822
 Alpha virt. eigenvalues --    0.23583   0.24998   0.26440   0.27365   0.28343
 Alpha virt. eigenvalues --    0.30091   0.30431   0.31489   0.31616   0.32237

 Mulliken charges:
               1
     1  C   -0.170815
     2  C   -0.218848
     3  C   -0.170628
     4  C    0.156995
     5  C   -0.176417
     6  C   -0.222214
     7  H    0.225570
     8  H    0.223228
     9  H    0.275269
    10  H    0.285046
    11  H    0.226412
    12  N    0.492499
    13  O   -0.465426
    14  O   -0.459754
    15  C   -0.304957
    16  C   -0.299222
    17  C   -0.486368
    18  H    0.152104
    19  H    0.141608
    20  H    0.153166
    21  H    0.150170
    22  H    0.150632
    23  H    0.181392
    24  H    0.160234
    25  C   -0.296987
    26  C   -0.302207
    27  C   -0.475365
    28  H    0.153006
    29  H    0.151426
    30  H    0.152235
    31  H    0.144780
    32  H    0.156874
    33  H    0.157964
    34  H    0.158599
 Sum of Mulliken charges =  -0.00000

 Dipole moment (field-independent basis, Debye):
    X=              0.8083    Y=             -4.8966    Z=              1.0041  Tot=              5.0634
 Quadrupole moment (field-independent basis, Debye-Ang):
   XX=            -95.1940   YY=            -95.0148   ZZ=            -94.1219
   XY=             14.2966   XZ=             -0.6668   YZ=              0.0938

 Normal termination of Gaussian 16 at Thu May  6 09:28:58 2021.
