 Gaussian 16, Revision A.03,
 Gaussian 16:  EM64L-G16RevA.03 25-Dec-2016

 -------------
 #p 6-31g* mp2
 -------------

 ------------------------------------------------------
 Input file generated by CHIRIPA (05-May-2021 14:53:15)
 ------------------------------------------------------
 Symbolic Z-matrix:
 Charge =  0 Multiplicity = 1

                         Standard orientation:
 ---------------------------------------------------------------------
 Center     Atomic      Atomic             Coordinates (Angstroms)
 Number     Number       Type             X           Y           Z
 ---------------------------------------------------------------------
      1          6           0        4.739457   -0.088839   -0.632878
      2          6           0        5.716391   -1.106463   -0.042940
      3          6           0        6.520694   -1.843583   -1.114174
      4          1           0        4.053278   -0.603931   -1.319015
      5          1           0        5.298957    0.638162   -1.237712
      6          1           0        5.155376   -1.830517    0.561729
      7          1           0        6.400202   -0.588920    0.642019
      8          1           0        7.105279   -1.136539   -1.711628
      9          1           0        5.853381   -2.385191   -1.792375
     10          1           0        7.212724   -2.566109   -0.670428
     11          6           0        3.928112    0.656165    0.425619
     12          6           0        2.951178    1.673788   -0.164320
     13          6           0        2.146875    2.410909    0.906915
     14          1           0        3.368611   -0.070836    1.030453
     15          1           0        4.614291    1.171257    1.111756
     16          1           0        2.267367    1.156246   -0.849279
     17          1           0        3.512193    2.397843   -0.768988
     18          1           0        2.814188    2.952517    1.585115
     19          1           0        1.562290    1.703865    1.504368
     20          1           0        1.454845    3.133434    0.463169
     21          6           0       -1.397204   -0.458515    1.615695
     22          6           0       -2.527236   -1.260771    1.805259
     23          6           0       -3.634801   -1.138108    0.960983
     24          6           0       -3.578016   -0.198708   -0.067412
     25          6           0       -2.466686    0.615059   -0.281930
     26          6           0       -1.370583    0.475194    0.574541
     27          1           0       -0.541273   -0.560483    2.276285
     28          1           0       -2.550708   -1.986745    2.613006
     29          1           0       -4.522471   -1.746428    1.085103
     30          1           0       -2.472779    1.329857   -1.095838
     31          1           0       -0.494331    1.099574    0.424951
     32          7           0       -4.744479   -0.059745   -0.967664
     33          8           0       -4.669553    0.775372   -1.866331
     34          8           0       -5.711591   -0.788574   -0.757568
 ---------------------------------------------------------------------

 SCF Done:  E(RHF) =  -669.535322889     A.U. after   15 cycles
 E2 =    -0.2091348380D+01 EUMP2 =    -0.67162667126875D+03

 The electronic state is 1-A.
 Alpha  occ. eigenvalues --  -20.60728 -20.60723 -15.85780 -11.31137 -11.27705
 Alpha  occ. eigenvalues --  -11.27686 -11.27446 -11.26729 -11.26643 -11.22620
 Alpha  occ. eigenvalues --  -11.22345 -11.22248 -11.22161 -11.22025 -11.21515
 Alpha  occ. eigenvalues --   -1.59803  -1.39357  -1.19305  -1.09226  -1.08705
 Alpha  occ. eigenvalues --   -1.04708  -1.04348  -0.96813  -0.95542  -0.87831
 Alpha  occ. eigenvalues --   -0.86103  -0.82372  -0.80417  -0.78990  -0.77422
 Alpha  occ. eigenvalues --   -0.71999  -0.71126  -0.70426  -0.65908  -0.64957
 Alpha  occ. eigenvalues --   -0.64725  -0.62201  -0.61594  -0.60194  -0.58392
 Alpha  occ. eigenvalues --   -0.56124  -0.55204  -0.53520  -0.53222  -0.53038
 Alpha  occ. eigenvalues --   -0.52759  -0.50728  -0.48764  -0.48755  -0.48711
 Alpha  occ. eigenvalues --   -0.47453  -0.46539  -0.46442  -0.44764  -0.44580
 Alpha  occ. eigenvalues --   -0.37292  -0.36305
 Alpha virt. eigenvalues --    0.05109   0.11327   0.16598   0.19158   0.22655
 Alpha virt. eigenvalues --    0.23799   0.25247   0.26066   0.26666   0.27775
 Alpha virt. eigenvalues --    0.28955   0.30432   0.30804   0.31263   0.31595

 Mulliken charges:
               1
     1  C   -0.299132
     2  C   -0.300042
     3  C   -0.476198
     4  H    0.151045
     5  H    0.151726
     6  H    0.151233
     7  H    0.152751
     8  H    0.156370
     9  H    0.156221
    10  H    0.161659
    11  C   -0.297573
    12  C   -0.302934
    13  C   -0.482193
    14  H    0.145528
    15  H    0.152135
    16  H    0.151280
    17  H    0.157856
    18  H    0.164044
    19  H    0.145340
    20  H    0.161717
    21  C   -0.174358
    22  C   -0.218327
    23  C   -0.171513
    24  C    0.159060
    25  C   -0.173254
    26  C   -0.226908
    27  H    0.224931
    28  H    0.223120
    29  H    0.275360
    30  H    0.275696
    31  H    0.238491
    32  N    0.488001
    33  O   -0.460503
    34  O   -0.460627
 Sum of Mulliken charges =  -0.00000

 Dipole moment (field-independent basis, Debye):
    X=              4.3708    Y=             -0.4412    Z=              3.1277  Tot=              5.3927
 Quadrupole moment (field-independent basis, Debye-Ang):
   XX=           -122.5935   YY=            -91.9948   ZZ=            -94.9123
   XY=              4.0558   XZ=            -12.7437   YZ=             -3.0989

 Normal termination of Gaussian 16 at Thu May  6 10:33:30 2021.
