 Gaussian 16, Revision A.03,
 Gaussian 16:  EM64L-G16RevA.03 25-Dec-2016

 -------------
 #p 6-31g* mp2
 -------------

 ------------------------------------------------------
 Input file generated by CHIRIPA (05-May-2021 14:55:20)
 ------------------------------------------------------
 Symbolic Z-matrix:
 Charge =  0 Multiplicity = 1

                         Standard orientation:
 ---------------------------------------------------------------------
 Center     Atomic      Atomic             Coordinates (Angstroms)
 Number     Number       Type             X           Y           Z
 ---------------------------------------------------------------------
      1          6           0       -0.770690    0.416768   -0.006920
      2          6           0       -1.428814    0.085007   -1.195755
      3          6           0       -2.802835   -0.173076   -1.198475
      4          6           0       -3.490818   -0.090053    0.011102
      5          6           0       -2.863466    0.238046    1.211964
      6          6           0       -1.488850    0.492095    1.191033
      7          1           0        0.296914    0.615686   -0.013994
      8          1           0       -0.873629    0.025770   -2.127584
      9          1           0       -3.337352   -0.432068   -2.104364
     10          1           0       -3.443740    0.289327    2.125238
     11          1           0       -0.980365    0.749518    2.115814
     12          7           0       -4.945748   -0.361139    0.020741
     13          8           0       -5.529203   -0.281437    1.099567
     14          8           0       -5.475116   -0.648186   -1.050711
     15          6           0        4.631123   -0.497032    0.221410
     16          6           0        4.178495   -1.893904   -0.205044
     17          6           0        5.128581   -2.993786    0.269707
     18          1           0        5.638885   -0.308625   -0.173386
     19          1           0        4.713324   -0.464278    1.316658
     20          1           0        4.095839   -1.923606   -1.299074
     21          1           0        3.171617   -2.078933    0.190653
     22          1           0        5.203672   -2.993006    1.361934
     23          1           0        6.133145   -2.836796   -0.136257
     24          1           0        4.785990   -3.984121   -0.046094
     25          6           0        3.691509    0.613193   -0.245764
     26          6           0        4.144137    2.010064    0.180691
     27          6           0        3.194052    3.109946   -0.294060
     28          1           0        3.609309    0.580438   -1.341011
     29          1           0        2.683748    0.424785    0.149033
     30          1           0        5.151016    2.195094   -0.215007
     31          1           0        4.226793    2.039767    1.274720
     32          1           0        2.189487    2.952957    0.111904
     33          1           0        3.118960    3.109167   -1.386287
     34          1           0        3.536642    4.100281    0.021741
 ---------------------------------------------------------------------

 SCF Done:  E(RHF) =  -669.535553439     A.U. after   15 cycles
 E2 =    -0.2091281538D+01 EUMP2 =    -0.67162683497692D+03

 The electronic state is 1-A.
 Alpha  occ. eigenvalues --  -20.60729 -20.60723 -15.85782 -11.31141 -11.27713
 Alpha  occ. eigenvalues --  -11.27706 -11.27416 -11.26726 -11.26708 -11.22620
 Alpha  occ. eigenvalues --  -11.22561 -11.22400 -11.22270 -11.22093 -11.21698
 Alpha  occ. eigenvalues --   -1.59804  -1.39358  -1.19312  -1.09411  -1.08705
 Alpha  occ. eigenvalues --   -1.04716  -1.04421  -0.96879  -0.95543  -0.87888
 Alpha  occ. eigenvalues --   -0.86111  -0.82381  -0.80492  -0.79245  -0.77426
 Alpha  occ. eigenvalues --   -0.72000  -0.71128  -0.70434  -0.66041  -0.64963
 Alpha  occ. eigenvalues --   -0.64719  -0.62065  -0.61812  -0.60250  -0.58490
 Alpha  occ. eigenvalues --   -0.56190  -0.55232  -0.53525  -0.53301  -0.53041
 Alpha  occ. eigenvalues --   -0.52807  -0.50822  -0.48811  -0.48756  -0.48748
 Alpha  occ. eigenvalues --   -0.47529  -0.46756  -0.46677  -0.44765  -0.44701
 Alpha  occ. eigenvalues --   -0.37286  -0.36323
 Alpha virt. eigenvalues --    0.05098   0.11332   0.16553   0.19073   0.22518
 Alpha virt. eigenvalues --    0.23550   0.24856   0.26214   0.27072   0.27395
 Alpha virt. eigenvalues --    0.29462   0.30375   0.31038   0.31137   0.31764

 Mulliken charges:
               1
     1  C   -0.179859
     2  C   -0.221691
     3  C   -0.170677
     4  C    0.158285
     5  C   -0.170677
     6  C   -0.221878
     7  H    0.240106
     8  H    0.224240
     9  H    0.275417
    10  H    0.275394
    11  H    0.222925
    12  N    0.487976
    13  O   -0.460591
    14  O   -0.460522
    15  C   -0.297871
    16  C   -0.300522
    17  C   -0.476218
    18  H    0.153408
    19  H    0.151182
    20  H    0.152272
    21  H    0.150421
    22  H    0.156364
    23  H    0.156796
    24  H    0.162724
    25  C   -0.304266
    26  C   -0.300237
    27  C   -0.477105
    28  H    0.150670
    29  H    0.142101
    30  H    0.156652
    31  H    0.153589
    32  H    0.149214
    33  H    0.156720
    34  H    0.165660
 Sum of Mulliken charges =  -0.00000

 Dipole moment (field-independent basis, Debye):
    X=              5.4015    Y=              0.9554    Z=             -0.0514  Tot=              5.4856
 Quadrupole moment (field-independent basis, Debye-Ang):
   XX=           -130.1413   YY=            -96.0359   ZZ=            -89.1937
   XY=             -3.1803   XZ=             -0.5966   YZ=              1.1247

 Normal termination of Gaussian 16 at Thu May  6 07:42:22 2021.
