 Gaussian 16, Revision A.03,
 Gaussian 16:  EM64L-G16RevA.03 25-Dec-2016

 -------------
 #p 6-31g* mp2
 -------------

 ------------------------------------------------------
 Input file generated by CHIRIPA (05-May-2021 14:51:12)
 ------------------------------------------------------
 Symbolic Z-matrix:
 Charge =  0 Multiplicity = 1

                         Standard orientation:
 ---------------------------------------------------------------------
 Center     Atomic      Atomic             Coordinates (Angstroms)
 Number     Number       Type             X           Y           Z
 ---------------------------------------------------------------------
      1          6           0       -3.019781    1.219760   -0.051018
      2          6           0       -1.609481    1.694470    0.300676
      3          6           0       -1.565006    3.169208    0.701881
      4          1           0       -3.413563    1.836251   -0.870664
      5          1           0       -3.680782    1.386348    0.810795
      6          1           0       -0.951029    1.525760   -0.561063
      7          1           0       -1.218937    1.076653    1.119451
      8          1           0       -2.198963    3.349935    1.575973
      9          1           0       -1.929533    3.801594   -0.114089
     10          1           0       -0.547451    3.487481    0.949157
     11          6           0       -3.080509   -0.252492   -0.454150
     12          6           0       -4.490809   -0.727203   -0.805844
     13          6           0       -4.535284   -2.201940   -1.207049
     14          1           0       -2.419508   -0.419081   -1.315963
     15          1           0       -2.686727   -0.868983    0.365496
     16          1           0       -4.881353   -0.109385   -1.624619
     17          1           0       -5.149260   -0.558493    0.055895
     18          1           0       -4.170757   -2.834327   -0.391078
     19          1           0       -3.901327   -2.382667   -2.081141
     20          1           0       -5.552839   -2.520213   -1.454324
     21          6           0        2.428011   -0.335905    0.670384
     22          6           0        1.973723   -1.521918    1.521841
     23          6           0        0.727977   -1.210894    2.352007
     24          1           0        2.627472    0.522848    1.325901
     25          1           0        1.607427   -0.036364    0.003816
     26          1           0        2.795393   -1.820014    2.185629
     27          1           0        1.775504   -2.378005    0.864240
     28          1           0       -0.108768   -0.934479    1.702351
     29          1           0        0.916916   -0.373317    3.031249
     30          1           0        0.420648   -2.072407    2.953010
     31          6           0        3.672279   -0.631363   -0.165216
     32          6           0        4.126567    0.554650   -1.016674
     33          6           0        5.372312    0.243626   -1.846840
     34          1           0        4.492862   -0.930903    0.501352
     35          1           0        3.472818   -1.490116   -0.820733
     36          1           0        4.324787    1.410736   -0.359072
     37          1           0        3.304898    0.852745   -1.680461
     38          1           0        5.183374   -0.593950   -2.526082
     39          1           0        6.209057   -0.032788   -1.197183
     40          1           0        5.679641    1.105139   -2.447842
 ---------------------------------------------------------------------

 SCF Done:  E(RHF) =  -470.733141124     A.U. after   11 cycles
 E2 =    -0.1583346191D+01 EUMP2 =    -0.47231648731480D+03

 The electronic state is 1-A.
 Alpha  occ. eigenvalues --  -11.21623 -11.21595 -11.21587 -11.21559 -11.21429
 Alpha  occ. eigenvalues --  -11.21380 -11.21360 -11.21317 -11.21088 -11.21067
 Alpha  occ. eigenvalues --  -11.21052 -11.21047  -1.08452  -1.08405  -1.03550
 Alpha  occ. eigenvalues --   -1.03501  -0.95982  -0.95972  -0.87011  -0.86980
 Alpha  occ. eigenvalues --   -0.79680  -0.79520  -0.78339  -0.78139  -0.65105
 Alpha  occ. eigenvalues --   -0.65021  -0.60986  -0.60874  -0.59408  -0.59280
 Alpha  occ. eigenvalues --   -0.57598  -0.57577  -0.55275  -0.55261  -0.52682
 Alpha  occ. eigenvalues --   -0.52667  -0.52439  -0.52378  -0.49975  -0.49886
 Alpha  occ. eigenvalues --   -0.48132  -0.47772  -0.46714  -0.46568  -0.45999
 Alpha  occ. eigenvalues --   -0.45753  -0.45674  -0.45332  -0.43787  -0.43770
 Alpha virt. eigenvalues --    0.21244   0.23110   0.23731   0.24332   0.25549
 Alpha virt. eigenvalues --    0.25611   0.27029   0.27752   0.28245   0.29294
 Alpha virt. eigenvalues --    0.31232   0.31326   0.31696   0.31869   0.31991

 Mulliken charges:
               1
     1  C   -0.297950
     2  C   -0.307506
     3  C   -0.475354
     4  H    0.149578
     5  H    0.149614
     6  H    0.151668
     7  H    0.160483
     8  H    0.155062
     9  H    0.154856
    10  H    0.160626
    11  C   -0.301177
    12  C   -0.299557
    13  C   -0.475787
    14  H    0.148884
    15  H    0.151737
    16  H    0.152163
    17  H    0.152190
    18  H    0.155357
    19  H    0.155020
    20  H    0.160373
    21  C   -0.300675
    22  C   -0.299142
    23  C   -0.483223
    24  H    0.149191
    25  H    0.152876
    26  H    0.151765
    27  H    0.151936
    28  H    0.162801
    29  H    0.154712
    30  H    0.159894
    31  C   -0.298301
    32  C   -0.299513
    33  C   -0.475687
    34  H    0.149458
    35  H    0.149553
    36  H    0.151899
    37  H    0.151645
    38  H    0.155138
    39  H    0.155204
    40  H    0.160188
 Sum of Mulliken charges =  -0.00000

 Dipole moment (field-independent basis, Debye):
    X=             -0.0155    Y=              0.0022    Z=              0.0067  Tot=              0.0170
 Quadrupole moment (field-independent basis, Debye-Ang):
   XX=            -85.2671   YY=            -85.7675   ZZ=            -83.7931
   XY=              0.1232   XZ=              0.8042   YZ=             -0.3391

 Normal termination of Gaussian 16 at Wed May  5 15:17:25 2021.
