 Gaussian 16, Revision A.03,
 Gaussian 16:  EM64L-G16RevA.03 25-Dec-2016

 -------------
 #p 6-31g* mp2
 -------------

 ------------------------------------------------------
 Input file generated by CHIRIPA (05-May-2021 14:57:21)
 ------------------------------------------------------
 Symbolic Z-matrix:
 Charge =  0 Multiplicity = 1

                         Standard orientation:
 ---------------------------------------------------------------------
 Center     Atomic      Atomic             Coordinates (Angstroms)
 Number     Number       Type             X           Y           Z
 ---------------------------------------------------------------------
      1          6           0       -1.069651   -1.631836   -0.335427
      2          6           0       -2.284150   -2.175610   -0.766498
      3          6           0       -3.480857   -1.477419   -0.579501
      4          6           0       -3.426113   -0.232327    0.045030
      5          6           0       -2.231887    0.336024    0.485589
      6          6           0       -1.047435   -0.379961    0.288141
      7          1           0       -0.144780   -2.181119   -0.484750
      8          1           0       -2.304419   -3.147631   -1.251070
      9          1           0       -4.435032   -1.874942   -0.903452
     10          1           0       -2.243462    1.307109    0.965462
     11          1           0       -0.105701    0.044799    0.623940
     12          7           0       -4.686527    0.516236    0.248527
     13          8           0       -4.611466    1.611369    0.801418
     14          8           0       -5.725633   -0.006346   -0.148715
     15          6           0        4.374624   -1.755101    0.745839
     16          6           0        4.329615   -1.430963   -0.614099
     17          6           0        3.691691   -0.263992   -1.045117
     18          6           0        3.106600    0.559763   -0.084708
     19          6           0        3.134672    0.264151    1.277319
     20          6           0        3.778061   -0.908004    1.685550
     21          1           0        4.872302   -2.663646    1.071815
     22          1           0        4.792056   -2.086960   -1.346125
     23          1           0        3.642046    0.011064   -2.091682
     24          1           0        2.664643    0.937796    1.983500
     25          1           0        3.811465   -1.157205    2.742351
     26          7           0        2.428366    1.797927   -0.528945
     27          8           0        1.920537    2.507011    0.337049
     28          8           0        2.417437    2.035871   -1.734723
 ---------------------------------------------------------------------

 SCF Done:  E(RHF) =  -868.338181228     A.U. after   16 cycles
 E2 =    -0.2600458041D+01 EUMP2 =    -0.87093863926893D+03

 The electronic state is 1-A.
 Alpha  occ. eigenvalues --  -20.61782 -20.61743 -20.60411 -20.60395 -15.86797
 Alpha  occ. eigenvalues --  -15.85459 -11.32243 -11.30823 -11.28791 -11.28752
 Alpha  occ. eigenvalues --  -11.28474 -11.27778 -11.27766 -11.27436 -11.27341
 Alpha  occ. eigenvalues --  -11.27198 -11.26476 -11.26377  -1.60830  -1.59481
 Alpha  occ. eigenvalues --   -1.40381  -1.39034  -1.20401  -1.19008  -1.09769
 Alpha  occ. eigenvalues --   -1.08418  -1.05785  -1.04404  -0.96589  -0.95245
 Alpha  occ. eigenvalues --   -0.87172  -0.85819  -0.83403  -0.82070  -0.78459
 Alpha  occ. eigenvalues --   -0.77108  -0.72996  -0.72180  -0.71678  -0.71449
 Alpha  occ. eigenvalues --   -0.70803  -0.70140  -0.66022  -0.65746  -0.64664
 Alpha  occ. eigenvalues --   -0.64424  -0.63108  -0.61747  -0.56239  -0.54953
 Alpha  occ. eigenvalues --   -0.54149  -0.53841  -0.52745  -0.52496  -0.49769
 Alpha  occ. eigenvalues --   -0.49759  -0.48443  -0.48429  -0.45749  -0.44438
 Alpha  occ. eigenvalues --   -0.38376  -0.37405  -0.37015  -0.36001
 Alpha virt. eigenvalues --    0.04041   0.05422   0.10136   0.11633   0.15534
 Alpha virt. eigenvalues --    0.16896   0.20481   0.21599   0.26257   0.26952
 Alpha virt. eigenvalues --    0.27708   0.28568   0.30041   0.30883   0.32087

 Mulliken charges:
               1
     1  C   -0.171723
     2  C   -0.218593
     3  C   -0.171268
     4  C    0.158406
     5  C   -0.169673
     6  C   -0.221864
     7  H    0.222061
     8  H    0.220667
     9  H    0.274431
    10  H    0.280856
    11  H    0.224345
    12  N    0.488036
    13  O   -0.458689
    14  O   -0.462205
    15  C   -0.172041
    16  C   -0.219797
    17  C   -0.172666
    18  C    0.155035
    19  C   -0.179794
    20  C   -0.218197
    21  H    0.229055
    22  H    0.226714
    23  H    0.278666
    24  H    0.277190
    25  H    0.227489
    26  N    0.488129
    27  O   -0.461118
    28  O   -0.453453
 Sum of Mulliken charges =  -0.00000

 Dipole moment (field-independent basis, Debye):
    X=              7.0992    Y=             -6.8959    Z=              0.8241  Tot=              9.9313
 Quadrupole moment (field-independent basis, Debye-Ang):
   XX=           -119.3021   YY=           -106.3649   ZZ=           -100.1821
   XY=             -2.9127   XZ=              7.2868   YZ=              4.2122

 Normal termination of Gaussian 16 at Wed May  5 22:32:56 2021.
