 Gaussian 16, Revision A.03,
 Gaussian 16:  EM64L-G16RevA.03 25-Dec-2016

 -------------
 #p 6-31g* mp2
 -------------

 ------------------------------------------------------
 Input file generated by CHIRIPA (05-May-2021 14:57:25)
 ------------------------------------------------------
 Symbolic Z-matrix:
 Charge =  0 Multiplicity = 1

                         Standard orientation:
 ---------------------------------------------------------------------
 Center     Atomic      Atomic             Coordinates (Angstroms)
 Number     Number       Type             X           Y           Z
 ---------------------------------------------------------------------
      1          6           0        5.442497    1.158948   -1.063367
      2          6           0        5.561003   -0.192563   -0.722933
      3          6           0        4.536874   -0.841953   -0.027232
      4          6           0        3.403039   -0.106131    0.313758
      5          6           0        3.255396    1.241427   -0.011169
      6          6           0        4.292099    1.870375   -0.707027
      7          1           0        6.242949    1.655470   -1.603866
      8          1           0        6.453276   -0.747565   -0.998373
      9          1           0        4.602525   -1.887352    0.248900
     10          1           0        2.353914    1.768359    0.277087
     11          1           0        4.197331    2.920070   -0.970094
     12          7           0        2.312183   -0.782791    1.050349
     13          8           0        1.323421   -0.112308    1.339210
     14          8           0        2.466587   -1.970827    1.324880
     15          6           0       -2.762390   -2.315265   -0.790096
     16          6           0       -4.135155   -2.058260   -0.712737
     17          6           0       -4.601093   -0.782196   -0.382417
     18          6           0       -3.662142    0.217919   -0.134573
     19          6           0       -2.288109   -0.006902   -0.203710
     20          6           0       -1.844865   -1.290572   -0.535783
     21          1           0       -2.409253   -3.309496   -1.047377
     22          1           0       -4.850011   -2.852125   -0.909728
     23          1           0       -5.658273   -0.555667   -0.315527
     24          1           0       -1.599675    0.804745   -0.001948
     25          1           0       -0.778174   -1.487277   -0.595127
     26          7           0       -4.143396    1.572857    0.216051
     27          8           0       -3.295773    2.436839    0.429851
     28          8           0       -5.359114    1.745222    0.270431
 ---------------------------------------------------------------------

 SCF Done:  E(RHF) =  -868.339784012     A.U. after   16 cycles
 E2 =    -0.2598796772D+01 EUMP2 =    -0.87093858078451D+03

 The electronic state is 1-A.
 Alpha  occ. eigenvalues --  -20.61665 -20.61642 -20.60070 -20.60065 -15.86678
 Alpha  occ. eigenvalues --  -15.85115 -11.31777 -11.30285 -11.28318 -11.28296
 Alpha  occ. eigenvalues --  -11.27994 -11.27267 -11.27236 -11.26888 -11.26731
 Alpha  occ. eigenvalues --  -11.26555 -11.25894 -11.25691  -1.60729  -1.59147
 Alpha  occ. eigenvalues --   -1.40284  -1.38706  -1.19924  -1.18440  -1.09368
 Alpha  occ. eigenvalues --   -1.07882  -1.05280  -1.03793  -0.96243  -0.94745
 Alpha  occ. eigenvalues --   -0.86691  -0.85216  -0.83080  -0.81569  -0.78162
 Alpha  occ. eigenvalues --   -0.76638  -0.72888  -0.72050  -0.71343  -0.71020
 Alpha  occ. eigenvalues --   -0.70464  -0.69560  -0.65574  -0.65271  -0.64088
 Alpha  occ. eigenvalues --   -0.63793  -0.62625  -0.61134  -0.55784  -0.54342
 Alpha  occ. eigenvalues --   -0.53631  -0.53360  -0.52160  -0.51882  -0.49661
 Alpha  occ. eigenvalues --   -0.49622  -0.48103  -0.48081  -0.45736  -0.44154
 Alpha  occ. eigenvalues --   -0.37891  -0.36872  -0.36438  -0.35378
 Alpha virt. eigenvalues --    0.04307   0.05869   0.10784   0.12259   0.15847
 Alpha virt. eigenvalues --    0.17404   0.20900   0.22346   0.26789   0.27383
 Alpha virt. eigenvalues --    0.28419   0.29174   0.30755   0.31586   0.32123

 Mulliken charges:
               1
     1  C   -0.169827
     2  C   -0.218563
     3  C   -0.171129
     4  C    0.156295
     5  C   -0.171718
     6  C   -0.218468
     7  H    0.228099
     8  H    0.225102
     9  H    0.275574
    10  H    0.277329
    11  H    0.227140
    12  N    0.486787
    13  O   -0.464645
    14  O   -0.458740
    15  C   -0.171676
    16  C   -0.219062
    17  C   -0.172559
    18  C    0.157345
    19  C   -0.168860
    20  C   -0.214491
    21  H    0.223894
    22  H    0.219894
    23  H    0.272273
    24  H    0.278646
    25  H    0.228820
    26  N    0.488353
    27  O   -0.462280
    28  O   -0.463533
 Sum of Mulliken charges =  -0.00000

 Dipole moment (field-independent basis, Debye):
    X=              6.0341    Y=             -2.3523    Z=             -3.8093  Tot=              7.5136
 Quadrupole moment (field-independent basis, Debye-Ang):
   XX=            -85.9577   YY=           -104.0196   ZZ=           -107.7878
   XY=             25.2200   XZ=             -3.4758   YZ=              1.3999

 Normal termination of Gaussian 16 at Wed May  5 17:59:06 2021.
