 Gaussian 16, Revision A.03,
 Gaussian 16:  EM64L-G16RevA.03 25-Dec-2016

 -------------
 #p 6-31g* mp2
 -------------

 ------------------------------------------------------
 Input file generated by CHIRIPA (05-May-2021 14:53:14)
 ------------------------------------------------------
 Symbolic Z-matrix:
 Charge =  0 Multiplicity = 1

                         Standard orientation:
 ---------------------------------------------------------------------
 Center     Atomic      Atomic             Coordinates (Angstroms)
 Number     Number       Type             X           Y           Z
 ---------------------------------------------------------------------
      1          6           0       -2.426847   -0.995792   -0.562745
      2          6           0       -1.221459   -0.867070   -1.494654
      3          6           0       -0.446782   -2.176846   -1.643499
      4          1           0       -2.084469   -1.335170    0.424446
      5          1           0       -3.096744   -1.777455   -0.946978
      6          1           0       -0.554719   -0.084924   -1.109529
      7          1           0       -1.566723   -0.527775   -2.479686
      8          1           0       -1.092392   -2.962258   -2.049597
      9          1           0       -0.074638   -2.516891   -0.671656
     10          1           0        0.410694   -2.062156   -2.313904
     11          6           0       -3.211399    0.305340   -0.403812
     12          6           0       -4.416787    0.176618    0.528098
     13          6           0       -5.191464    1.486394    0.676942
     14          1           0       -2.541502    1.087003   -0.019579
     15          1           0       -3.553777    0.644718   -1.391003
     16          1           0       -4.071523   -0.162677    1.513129
     17          1           0       -5.083527   -0.605528    0.142973
     18          1           0       -5.563608    1.826439   -0.294901
     19          1           0       -4.545854    2.271806    1.083041
     20          1           0       -6.048940    1.371704    1.347347
     21          6           0        2.621854    2.442637   -0.834212
     22          6           0        1.840282    2.427552    0.325719
     23          6           0        1.601299    1.229388    1.005306
     24          6           0        2.161892    0.059638    0.494711
     25          6           0        2.944904    0.042200   -0.658493
     26          6           0        3.170703    1.252012   -1.321756
     27          1           0        2.802382    3.377923   -1.355791
     28          1           0        1.412767    3.350680    0.706649
     29          1           0        1.000036    1.189062    1.905459
     30          1           0        3.357660   -0.894098   -1.014013
     31          1           0        3.778081    1.260726   -2.222345
     32          7           0        1.915870   -1.214971    1.205519
     33          8           0        2.421077   -2.231949    0.735243
     34          8           0        1.222490   -1.172896    2.219467
 ---------------------------------------------------------------------

 SCF Done:  E(RHF) =  -669.535809121     A.U. after   15 cycles
 E2 =    -0.2093768040D+01 EUMP2 =    -0.67162957716064D+03

 The electronic state is 1-A.
 Alpha  occ. eigenvalues --  -20.60937 -20.60931 -15.85954 -11.31287 -11.27864
 Alpha  occ. eigenvalues --  -11.27845 -11.27592 -11.26875 -11.26856 -11.21420
 Alpha  occ. eigenvalues --  -11.21242 -11.21211 -11.21006 -11.20987 -11.20503
 Alpha  occ. eigenvalues --   -1.60000  -1.39553  -1.19468  -1.08866  -1.08164
 Alpha  occ. eigenvalues --   -1.04862  -1.03261  -0.95718  -0.95689  -0.86709
 Alpha  occ. eigenvalues --   -0.86257  -0.82539  -0.79323  -0.77969  -0.77591
 Alpha  occ. eigenvalues --   -0.72184  -0.71359  -0.70567  -0.65118  -0.64861
 Alpha  occ. eigenvalues --   -0.64793  -0.62208  -0.60660  -0.59086  -0.57321
 Alpha  occ. eigenvalues --   -0.55362  -0.54986  -0.53202  -0.52951  -0.52388
 Alpha  occ. eigenvalues --   -0.52110  -0.49645  -0.48944  -0.48943  -0.47629
 Alpha  occ. eigenvalues --   -0.46383  -0.45504  -0.45427  -0.44876  -0.43507
 Alpha  occ. eigenvalues --   -0.37410  -0.36454
 Alpha virt. eigenvalues --    0.04901   0.11144   0.16397   0.21242   0.22934
 Alpha virt. eigenvalues --    0.24322   0.26656   0.27145   0.27736   0.28124
 Alpha virt. eigenvalues --    0.28462   0.30944   0.31559   0.31661   0.32073

 Mulliken charges:
               1
     1  C   -0.300723
     2  C   -0.304883
     3  C   -0.482717
     4  H    0.158497
     5  H    0.149482
     6  H    0.150598
     7  H    0.148169
     8  H    0.154693
     9  H    0.171571
    10  H    0.154168
    11  C   -0.296464
    12  C   -0.300174
    13  C   -0.475084
    14  H    0.144191
    15  H    0.147634
    16  H    0.154930
    17  H    0.152605
    18  H    0.154135
    19  H    0.152198
    20  H    0.160572
    21  C   -0.170464
    22  C   -0.217740
    23  C   -0.173202
    24  C    0.161236
    25  C   -0.170771
    26  C   -0.218091
    27  H    0.226238
    28  H    0.224052
    29  H    0.275646
    30  H    0.276401
    31  H    0.224026
    32  N    0.487197
    33  O   -0.457698
    34  O   -0.460228
 Sum of Mulliken charges =  -0.00000

 Dipole moment (field-independent basis, Debye):
    X=              1.0008    Y=              4.4107    Z=             -2.4067  Tot=              5.1233
 Quadrupole moment (field-independent basis, Debye-Ang):
   XX=            -90.1681   YY=            -93.9883   ZZ=            -94.9756
   XY=              9.3374   XZ=             -6.8375   YZ=              3.8176

 Normal termination of Gaussian 16 at Thu May  6 15:26:14 2021.
