 Gaussian 16, Revision A.03,
 Gaussian 16:  EM64L-G16RevA.03 25-Dec-2016

 -------------
 #p 6-31g* mp2
 -------------

 ------------------------------------------------------
 Input file generated by CHIRIPA (05-May-2021 14:51:08)
 ------------------------------------------------------
 Symbolic Z-matrix:
 Charge =  0 Multiplicity = 1

                         Standard orientation:
 ---------------------------------------------------------------------
 Center     Atomic      Atomic             Coordinates (Angstroms)
 Number     Number       Type             X           Y           Z
 ---------------------------------------------------------------------
      1          6           0       -4.432294   -0.646885   -0.198398
      2          6           0       -5.448523    0.488017   -0.329780
      3          6           0       -6.740319    0.047938   -1.019263
      4          1           0       -4.200579   -1.040536   -1.197544
      5          1           0       -4.886810   -1.473251    0.365455
      6          1           0       -4.991756    1.312553   -0.892025
      7          1           0       -5.677701    0.879138    0.669779
      8          1           0       -7.221369   -0.759068   -0.457183
      9          1           0       -6.531527   -0.323191   -2.027861
     10          1           0       -7.452627    0.874690   -1.102678
     11          6           0       -3.135654   -0.222478    0.488864
     12          6           0       -2.119425   -1.357380    0.620246
     13          6           0       -0.827629   -0.917301    1.309729
     14          1           0       -2.681138    0.603888   -0.074989
     15          1           0       -3.367369    0.171172    1.488010
     16          1           0       -1.890247   -1.748502   -0.379313
     17          1           0       -2.576192   -2.181917    1.182491
     18          1           0       -1.036421   -0.546173    2.318327
     19          1           0       -0.346579   -0.110295    0.747649
     20          1           0       -0.115321   -1.744053    1.393144
     21          6           0        4.200490   -0.039311   -0.575671
     22          6           0        5.492542   -0.496623    0.102160
     23          6           0        6.314945   -1.444425   -0.771406
     24          1           0        3.596726   -0.920567   -0.832188
     25          1           0        4.448072    0.456857   -1.524311
     26          1           0        5.242681   -0.990555    1.049903
     27          1           0        6.093212    0.385834    0.357264
     28          1           0        6.592926   -0.957837   -1.711917
     29          1           0        5.737561   -2.342047   -1.015343
     30          1           0        7.234202   -1.758885   -0.267481
     31          6           0        3.367458    0.908674    0.285205
     32          6           0        2.075407    1.365986   -0.392626
     33          6           0        1.253003    2.313789    0.480941
     34          1           0        3.119877    0.412506    1.233844
     35          1           0        3.971223    1.789931    0.541722
     36          1           0        1.474736    0.483529   -0.647731
     37          1           0        2.325267    1.859919   -1.340368
     38          1           0        1.830387    3.211410    0.724877
     39          1           0        0.975022    1.827200    1.421450
     40          1           0        0.333746    2.628249   -0.022985
 ---------------------------------------------------------------------

 SCF Done:  E(RHF) =  -470.732513236     A.U. after   11 cycles
 E2 =    -0.1583385376D+01 EUMP2 =    -0.47231589861283D+03

 The electronic state is 1-A.
 Alpha  occ. eigenvalues --  -11.21603 -11.21601 -11.21588 -11.21587 -11.21405
 Alpha  occ. eigenvalues --  -11.21386 -11.21346 -11.21326 -11.21070 -11.21062
 Alpha  occ. eigenvalues --  -11.21044 -11.21015  -1.08445  -1.08404  -1.03587
 Alpha  occ. eigenvalues --   -1.03473  -0.96051  -0.95908  -0.87039  -0.86951
 Alpha  occ. eigenvalues --   -0.79600  -0.79586  -0.78246  -0.78227  -0.65183
 Alpha  occ. eigenvalues --   -0.64965  -0.61249  -0.60683  -0.59377  -0.59310
 Alpha  occ. eigenvalues --   -0.57606  -0.57575  -0.55530  -0.55002  -0.52681
 Alpha  occ. eigenvalues --   -0.52661  -0.52443  -0.52320  -0.49964  -0.49859
 Alpha  occ. eigenvalues --   -0.47989  -0.47785  -0.46704  -0.46537  -0.45826
 Alpha  occ. eigenvalues --   -0.45749  -0.45700  -0.45626  -0.43788  -0.43771
 Alpha virt. eigenvalues --    0.21317   0.23051   0.23683   0.24985   0.26287
 Alpha virt. eigenvalues --    0.26554   0.27133   0.27527   0.28035   0.29205
 Alpha virt. eigenvalues --    0.30777   0.31123   0.31457   0.31711   0.32206

 Mulliken charges:
               1
     1  C   -0.298318
     2  C   -0.299649
     3  C   -0.475710
     4  H    0.149600
     5  H    0.149556
     6  H    0.151907
     7  H    0.152001
     8  H    0.155178
     9  H    0.155167
    10  H    0.160270
    11  C   -0.298358
    12  C   -0.299319
    13  C   -0.486313
    14  H    0.149515
    15  H    0.149795
    16  H    0.151472
    17  H    0.151777
    18  H    0.154592
    19  H    0.169367
    20  H    0.158846
    21  C   -0.298428
    22  C   -0.299681
    23  C   -0.475695
    24  H    0.149819
    25  H    0.149342
    26  H    0.152043
    27  H    0.151905
    28  H    0.155122
    29  H    0.155136
    30  H    0.160224
    31  C   -0.298102
    32  C   -0.303957
    33  C   -0.480758
    34  H    0.150487
    35  H    0.149633
    36  H    0.154332
    37  H    0.152187
    38  H    0.156445
    39  H    0.159140
    40  H    0.159430
 Sum of Mulliken charges =  -0.00000

 Dipole moment (field-independent basis, Debye):
    X=              0.0068    Y=              0.0146    Z=              0.0101  Tot=              0.0190
 Quadrupole moment (field-independent basis, Debye-Ang):
   XX=            -85.9065   YY=            -84.6681   ZZ=            -84.3004
   XY=              0.8049   XZ=             -0.6488   YZ=             -0.9400

 Normal termination of Gaussian 16 at Thu May  6 00:31:44 2021.
