 Gaussian 16, Revision A.03,
 Gaussian 16:  EM64L-G16RevA.03 25-Dec-2016

 -------------
 #p 6-31g* mp2
 -------------

 ------------------------------------------------------
 Input file generated by CHIRIPA (05-May-2021 14:55:24)
 ------------------------------------------------------
 Symbolic Z-matrix:
 Charge =  0 Multiplicity = 1

                         Standard orientation:
 ---------------------------------------------------------------------
 Center     Atomic      Atomic             Coordinates (Angstroms)
 Number     Number       Type             X           Y           Z
 ---------------------------------------------------------------------
      1          6           0        1.240850    1.429822   -0.305300
      2          6           0        2.524861    1.971683   -0.424568
      3          6           0        3.654208    1.161252   -0.275146
      4          6           0        3.461954   -0.192905   -0.005730
      5          6           0        2.195672   -0.762383    0.118827
      6          6           0        1.080636    0.066922   -0.034460
      7          1           0        0.369105    2.066715   -0.422876
      8          1           0        2.652303    3.029784   -0.634866
      9          1           0        4.659725    1.554616   -0.362426
     10          1           0        2.100430   -1.820790    0.328880
     11          1           0        0.084660   -0.356633    0.058695
     12          7           0        4.649968   -1.060862    0.154503
     13          8           0        4.453745   -2.250805    0.391506
     14          8           0        5.754860   -0.534790    0.040055
     15          6           0       -4.712256   -0.455150    0.218712
     16          6           0       -4.502725   -1.800389   -0.477288
     17          6           0       -5.574170   -2.828188   -0.112007
     18          1           0       -4.718772   -0.609363    1.306426
     19          1           0       -5.703652   -0.063045   -0.047336
     20          1           0       -3.511461   -2.189182   -0.211107
     21          1           0       -4.496515   -1.642927   -1.563466
     22          1           0       -6.568018   -2.465168   -0.393223
     23          1           0       -5.577367   -3.014526    0.966821
     24          1           0       -5.405089   -3.782438   -0.620612
     25          6           0       -3.649101    0.582780   -0.136439
     26          6           0       -3.858632    1.928019    0.559562
     27          6           0       -2.787188    2.955818    0.194281
     28          1           0       -2.657704    0.190676    0.129610
     29          1           0       -3.642585    0.736993   -1.224152
     30          1           0       -3.864842    1.770558    1.645740
     31          1           0       -4.849895    2.316812    0.293381
     32          1           0       -2.783989    3.142157   -0.884547
     33          1           0       -1.793338    2.592798    0.475497
     34          1           0       -2.956267    3.910067    0.702885
 ---------------------------------------------------------------------

 SCF Done:  E(RHF) =  -669.535557433     A.U. after   15 cycles
 E2 =    -0.2091472270D+01 EUMP2 =    -0.67162702970219D+03

 The electronic state is 1-A.
 Alpha  occ. eigenvalues --  -20.60721 -20.60716 -15.85774 -11.31129 -11.27700
 Alpha  occ. eigenvalues --  -11.27695 -11.27393 -11.26705 -11.26695 -11.22636
 Alpha  occ. eigenvalues --  -11.22472 -11.22341 -11.22322 -11.22186 -11.21622
 Alpha  occ. eigenvalues --   -1.59797  -1.39351  -1.19298  -1.09358  -1.08691
 Alpha  occ. eigenvalues --   -1.04702  -1.04427  -0.96899  -0.95530  -0.87915
 Alpha  occ. eigenvalues --   -0.86099  -0.82366  -0.80508  -0.79160  -0.77416
 Alpha  occ. eigenvalues --   -0.71992  -0.71120  -0.70418  -0.65996  -0.64948
 Alpha  occ. eigenvalues --   -0.64702  -0.62059  -0.61813  -0.60266  -0.58511
 Alpha  occ. eigenvalues --   -0.56261  -0.55179  -0.53559  -0.53289  -0.53028
 Alpha  occ. eigenvalues --   -0.52792  -0.50828  -0.48814  -0.48749  -0.48743
 Alpha  occ. eigenvalues --   -0.47533  -0.46699  -0.46602  -0.44759  -0.44682
 Alpha  occ. eigenvalues --   -0.37271  -0.36310
 Alpha virt. eigenvalues --    0.05111   0.11338   0.16571   0.18630   0.22404
 Alpha virt. eigenvalues --    0.23543   0.24355   0.25682   0.26278   0.28441
 Alpha virt. eigenvalues --    0.29242   0.30477   0.30857   0.31117   0.31712

 Mulliken charges:
               1
     1  C   -0.177768
     2  C   -0.219598
     3  C   -0.170933
     4  C    0.158608
     5  C   -0.171495
     6  C   -0.224544
     7  H    0.234837
     8  H    0.223766
     9  H    0.275337
    10  H    0.275579
    11  H    0.227451
    12  N    0.488010
    13  O   -0.460635
    14  O   -0.460587
    15  C   -0.298905
    16  C   -0.299712
    17  C   -0.476305
    18  H    0.151716
    19  H    0.152735
    20  H    0.148771
    21  H    0.153303
    22  H    0.156685
    23  H    0.156457
    24  H    0.162663
    25  C   -0.301074
    26  C   -0.299691
    27  C   -0.481924
    28  H    0.141938
    29  H    0.151816
    30  H    0.155476
    31  H    0.156869
    32  H    0.156631
    33  H    0.148087
    34  H    0.166434
 Sum of Mulliken charges =  -0.00000

 Dipole moment (field-independent basis, Debye):
    X=             -4.4887    Y=              3.0805    Z=             -0.5598  Tot=              5.4728
 Quadrupole moment (field-independent basis, Debye-Ang):
   XX=           -121.2398   YY=            -93.3621   ZZ=            -94.8683
   XY=             13.3249   XZ=             -2.0046   YZ=             -0.7281

 Normal termination of Gaussian 16 at Wed May  5 22:23:50 2021.
