 Gaussian 16, Revision A.03,
 Gaussian 16:  EM64L-G16RevA.03 25-Dec-2016

 -------------
 #p 6-31g* mp2
 -------------

 ------------------------------------------------------
 Input file generated by CHIRIPA (05-May-2021 14:53:18)
 ------------------------------------------------------
 Symbolic Z-matrix:
 Charge =  0 Multiplicity = 1

                         Standard orientation:
 ---------------------------------------------------------------------
 Center     Atomic      Atomic             Coordinates (Angstroms)
 Number     Number       Type             X           Y           Z
 ---------------------------------------------------------------------
      1          6           0        2.654832    0.647069   -0.815007
      2          6           0        2.274232    2.006653   -0.227929
      3          6           0        1.528593    2.893536   -1.225554
      4          1           0        3.277104    0.801265   -1.707165
      5          1           0        1.744215    0.133946   -1.153940
      6          1           0        3.185158    2.516475    0.111057
      7          1           0        1.652953    1.849199    0.663046
      8          1           0        0.604090    2.408938   -1.555795
      9          1           0        2.145001    3.080004   -2.110920
     10          1           0        1.266166    3.860484   -0.785096
     11          6           0        3.400859   -0.250881    0.170315
     12          6           0        3.781458   -1.610465   -0.416763
     13          6           0        4.527097   -2.497348    0.580862
     14          1           0        4.311476    0.262242    0.509248
     15          1           0        2.778587   -0.405077    1.062473
     16          1           0        4.402737   -1.453011   -1.307738
     17          1           0        2.870532   -2.120286   -0.755749
     18          1           0        3.910689   -2.683816    1.466228
     19          1           0        5.451600   -2.012749    0.911103
     20          1           0        4.789525   -3.464296    0.140404
     21          6           0       -1.178904    1.810881    1.297852
     22          6           0       -0.667321    0.518808    1.457077
     23          6           0       -1.316467   -0.577724    0.881947
     24          6           0       -2.480220   -0.344792    0.150708
     25          6           0       -3.014714    0.930529   -0.025823
     26          6           0       -2.348905    2.012262    0.558215
     27          1           0       -0.668160    2.656944    1.748087
     28          1           0        0.241137    0.359425    2.030964
     29          1           0       -0.942291   -1.588594    0.989427
     30          1           0       -3.922208    1.057940   -0.603437
     31          1           0       -2.748500    3.014593    0.432904
     32          7           0       -3.176263   -1.497808   -0.462872
     33          8           0       -4.199927   -1.266026   -1.102421
     34          8           0       -2.684975   -2.611491   -0.292628
 ---------------------------------------------------------------------

 SCF Done:  E(RHF) =  -669.534231527     A.U. after   15 cycles
 E2 =    -0.2094498521D+01 EUMP2 =    -0.67162873004834D+03

 The electronic state is 1-A.
 Alpha  occ. eigenvalues --  -20.60831 -20.60826 -15.85887 -11.31275 -11.27851
 Alpha  occ. eigenvalues --  -11.27845 -11.27587 -11.26865 -11.26855 -11.22204
 Alpha  occ. eigenvalues --  -11.22029 -11.21971 -11.21859 -11.21622 -11.21424
 Alpha  occ. eigenvalues --   -1.59907  -1.39459  -1.19462  -1.09009  -1.08814
 Alpha  occ. eigenvalues --   -1.04870  -1.04028  -0.96480  -0.95674  -0.87493
 Alpha  occ. eigenvalues --   -0.86272  -0.82506  -0.80110  -0.78798  -0.77548
 Alpha  occ. eigenvalues --   -0.72105  -0.71232  -0.70572  -0.65745  -0.65112
 Alpha  occ. eigenvalues --   -0.64788  -0.62217  -0.61432  -0.59854  -0.58098
 Alpha  occ. eigenvalues --   -0.55794  -0.55332  -0.53216  -0.53119  -0.52944
 Alpha  occ. eigenvalues --   -0.52886  -0.50416  -0.48869  -0.48858  -0.48413
 Alpha  occ. eigenvalues --   -0.47148  -0.46336  -0.46223  -0.44860  -0.44298
 Alpha  occ. eigenvalues --   -0.37361  -0.36434
 Alpha virt. eigenvalues --    0.04955   0.11077   0.16355   0.19632   0.22865
 Alpha virt. eigenvalues --    0.23664   0.24928   0.26468   0.26683   0.28655
 Alpha virt. eigenvalues --    0.29170   0.30799   0.30922   0.31398   0.32017

 Mulliken charges:
               1
     1  C   -0.300282
     2  C   -0.298893
     3  C   -0.477626
     4  H    0.152802
     5  H    0.153847
     6  H    0.151869
     7  H    0.142314
     8  H    0.160925
     9  H    0.158220
    10  H    0.153832
    11  C   -0.298158
    12  C   -0.300900
    13  C   -0.475644
    14  H    0.151023
    15  H    0.139505
    16  H    0.154524
    17  H    0.154797
    18  H    0.153050
    19  H    0.155413
    20  H    0.163526
    21  C   -0.167008
    22  C   -0.218706
    23  C   -0.173780
    24  C    0.158140
    25  C   -0.171163
    26  C   -0.219550
    27  H    0.227345
    28  H    0.226703
    29  H    0.275720
    30  H    0.276092
    31  H    0.224333
    32  N    0.488133
    33  O   -0.460089
    34  O   -0.460314
 Sum of Mulliken charges =  -0.00000

 Dipole moment (field-independent basis, Debye):
    X=              2.4412    Y=              4.0135    Z=              2.0574  Tot=              5.1284
 Quadrupole moment (field-independent basis, Debye-Ang):
   XX=           -104.1588   YY=            -96.5531   ZZ=            -94.3031
   XY=            -13.0901   XZ=             -4.4924   YZ=             -1.0699

 Normal termination of Gaussian 16 at Thu May  6 17:20:53 2021.
