 Gaussian 16, Revision A.03,
 Gaussian 16:  EM64L-G16RevA.03 25-Dec-2016

 -------------
 #p 6-31g* mp2
 -------------

 ------------------------------------------------------
 Input file generated by CHIRIPA (05-May-2021 14:57:26)
 ------------------------------------------------------
 Symbolic Z-matrix:
 Charge =  0 Multiplicity = 1

                         Standard orientation:
 ---------------------------------------------------------------------
 Center     Atomic      Atomic             Coordinates (Angstroms)
 Number     Number       Type             X           Y           Z
 ---------------------------------------------------------------------
      1          6           0       -5.138789   -1.763366    0.421386
      2          6           0       -5.536077   -0.425670    0.517577
      3          6           0       -4.662727    0.602515    0.150638
      4          6           0       -3.393757    0.255457   -0.310397
      5          6           0       -2.968607   -1.067816   -0.417575
      6          6           0       -3.858579   -2.079612   -0.045061
      7          1           0       -5.823684   -2.555719    0.708598
      8          1           0       -6.529700   -0.177112    0.879484
      9          1           0       -4.944422    1.646503    0.215100
     10          1           0       -1.971746   -1.284430   -0.781944
     11          1           0       -3.547328   -3.117605   -0.120813
     12          7           0       -2.460382    1.335275   -0.701810
     13          8           0       -1.347794    1.003208   -1.104942
     14          8           0       -2.859065    2.493258   -0.598057
     15          6           0        1.302165    0.597709    1.177608
     16          6           0        1.509377   -0.711166    0.729916
     17          6           0        2.749413   -1.096398    0.211789
     18          6           0        3.764667   -0.142766    0.155813
     19          6           0        3.589163    1.168929    0.593932
     20          6           0        2.340888    1.531932    1.108309
     21          1           0        0.335675    0.888333    1.578646
     22          1           0        0.704508   -1.438809    0.782525
     23          1           0        2.937136   -2.102955   -0.141794
     24          1           0        4.410648    1.872016    0.528753
     25          1           0        2.182826    2.549128    1.455259
     26          7           0        5.081800   -0.538827   -0.390720
     27          8           0        5.960071    0.320120   -0.429284
     28          8           0        5.210956   -1.700707   -0.770181
 ---------------------------------------------------------------------

 SCF Done:  E(RHF) =  -868.338036124     A.U. after   16 cycles
 E2 =    -0.2599939454D+01 EUMP2 =    -0.87093797557778D+03

 The electronic state is 1-A.
 Alpha  occ. eigenvalues --  -20.61718 -20.61708 -20.60217 -20.60207 -15.86738
 Alpha  occ. eigenvalues --  -15.85268 -11.32051 -11.30474 -11.28633 -11.28565
 Alpha  occ. eigenvalues --  -11.28278 -11.27592 -11.27549 -11.27116 -11.27044
 Alpha  occ. eigenvalues --  -11.26750 -11.26104 -11.25953  -1.60794  -1.59294
 Alpha  occ. eigenvalues --   -1.40344  -1.38853  -1.20204  -1.18646  -1.09602
 Alpha  occ. eigenvalues --   -1.08049  -1.05590  -1.04056  -0.96449  -0.94915
 Alpha  occ. eigenvalues --   -0.86987  -0.85457  -0.83275  -0.81776  -0.78347
 Alpha  occ. eigenvalues --   -0.76856  -0.72949  -0.72146  -0.71493  -0.71288
 Alpha  occ. eigenvalues --   -0.70615  -0.69731  -0.65845  -0.65578  -0.64311
 Alpha  occ. eigenvalues --   -0.64093  -0.62935  -0.61436  -0.56062  -0.54531
 Alpha  occ. eigenvalues --   -0.53926  -0.53670  -0.52339  -0.52175  -0.49728
 Alpha  occ. eigenvalues --   -0.49707  -0.48253  -0.48236  -0.45749  -0.44296
 Alpha  occ. eigenvalues --   -0.38168  -0.37196  -0.36503  -0.35650
 Alpha virt. eigenvalues --    0.04123   0.05748   0.10422   0.11984   0.15659
 Alpha virt. eigenvalues --    0.17293   0.20156   0.21939   0.25712   0.27086
 Alpha virt. eigenvalues --    0.28562   0.28735   0.30413   0.30899   0.32474

 Mulliken charges:
               1
     1  C   -0.170217
     2  C   -0.218019
     3  C   -0.170909
     4  C    0.156759
     5  C   -0.176779
     6  C   -0.218044
     7  H    0.228659
     8  H    0.226352
     9  H    0.277179
    10  H    0.274082
    11  H    0.225248
    12  N    0.485396
    13  O   -0.459952
    14  O   -0.458074
    15  C   -0.151775
    16  C   -0.214908
    17  C   -0.171336
    18  C    0.157618
    19  C   -0.170376
    20  C   -0.218288
    21  H    0.223095
    22  H    0.211704
    23  H    0.271175
    24  H    0.274067
    25  H    0.224247
    26  N    0.488374
    27  O   -0.461660
    28  O   -0.463619
 Sum of Mulliken charges =  -0.00000

 Dipole moment (field-independent basis, Debye):
    X=             -8.3071    Y=             -2.2519    Z=              3.3000  Tot=              9.2179
 Quadrupole moment (field-independent basis, Debye-Ang):
   XX=           -115.0202   YY=           -100.8391   ZZ=           -106.3553
   XY=             17.8229   XZ=              2.1063   YZ=              3.2825

 Normal termination of Gaussian 16 at Fri May  7 09:39:34 2021.
