 Gaussian 16, Revision A.03,
 Gaussian 16:  EM64L-G16RevA.03 25-Dec-2016

 -------------
 #p 6-31g* mp2
 -------------

 ------------------------------------------------------
 Input file generated by CHIRIPA (05-May-2021 14:51:07)
 ------------------------------------------------------
 Symbolic Z-matrix:
 Charge =  0 Multiplicity = 1

                         Standard orientation:
 ---------------------------------------------------------------------
 Center     Atomic      Atomic             Coordinates (Angstroms)
 Number     Number       Type             X           Y           Z
 ---------------------------------------------------------------------
      1          6           0       -3.465291   -0.227089    0.285528
      2          6           0       -3.836219    0.293864   -1.103358
      3          6           0       -5.346456    0.428940   -1.300164
      4          1           0       -3.945917   -1.202050    0.444885
      5          1           0       -3.875805    0.451760    1.045816
      6          1           0       -3.423947   -0.385017   -1.860833
      7          1           0       -3.354499    1.267610   -1.259501
      8          1           0       -5.770092    1.122235   -0.566356
      9          1           0       -5.839935   -0.539783   -1.171104
     10          1           0       -5.589204    0.802846   -2.299728
     11          6           0       -1.958947   -0.367521    0.497506
     12          6           0       -1.588019   -0.888475    1.886392
     13          6           0       -0.077782   -1.023550    2.083199
     14          1           0       -1.548433   -1.046370   -0.262782
     15          1           0       -1.478321    0.607440    0.338149
     16          1           0       -2.069739   -1.862221    2.042535
     17          1           0       -2.000291   -0.209593    2.643867
     18          1           0        0.415697   -0.054828    1.954138
     19          1           0        0.345854   -1.716845    1.349390
     20          1           0        0.164966   -1.397457    3.082762
     21          6           0        2.459086    0.990151   -0.589939
     22          6           0        2.693985    2.052190    0.484714
     23          6           0        2.182383    3.432987    0.073059
     24          1           0        2.952760    1.303359   -1.520064
     25          1           0        1.384141    0.933162   -0.810481
     26          1           0        3.768016    2.106187    0.704156
     27          1           0        2.199854    1.736327    1.412444
     28          1           0        1.106399    3.401381   -0.126589
     29          1           0        2.683471    3.773344   -0.838901
     30          1           0        2.360483    4.176895    0.855837
     31          6           0        2.965152   -0.395541   -0.193096
     32          6           0        2.730254   -1.457581   -1.267749
     33          6           0        3.241855   -2.838376   -0.856093
     34          1           0        4.040097   -0.338551    0.027446
     35          1           0        2.471478   -0.708748    0.737029
     36          1           0        3.224384   -1.141716   -2.195479
     37          1           0        1.656222   -1.511576   -1.487191
     38          1           0        2.740768   -3.178733    0.055866
     39          1           0        4.317840   -2.806771   -0.656446
     40          1           0        3.063754   -3.582284   -1.638871
 ---------------------------------------------------------------------

 SCF Done:  E(RHF) =  -470.732364951     A.U. after   11 cycles
 E2 =    -0.1584729884D+01 EUMP2 =    -0.47231709483505D+03

 The electronic state is 1-A.
 Alpha  occ. eigenvalues --  -11.21703 -11.21655 -11.21582 -11.21531 -11.21505
 Alpha  occ. eigenvalues --  -11.21433 -11.21296 -11.21185 -11.21159 -11.21109
 Alpha  occ. eigenvalues --  -11.21074 -11.21040  -1.08529  -1.08345  -1.03618
 Alpha  occ. eigenvalues --   -1.03489  -0.96091  -0.95915  -0.87112  -0.86940
 Alpha  occ. eigenvalues --   -0.79713  -0.79544  -0.78341  -0.78144  -0.65163
 Alpha  occ. eigenvalues --   -0.65017  -0.61159  -0.60768  -0.59431  -0.59298
 Alpha  occ. eigenvalues --   -0.57716  -0.57515  -0.55372  -0.55218  -0.52773
 Alpha  occ. eigenvalues --   -0.52656  -0.52527  -0.52326  -0.50070  -0.49832
 Alpha  occ. eigenvalues --   -0.48075  -0.47869  -0.46733  -0.46543  -0.46052
 Alpha  occ. eigenvalues --   -0.45789  -0.45591  -0.45349  -0.43870  -0.43715
 Alpha virt. eigenvalues --    0.19806   0.22365   0.23144   0.24893   0.25571
 Alpha virt. eigenvalues --    0.25925   0.26911   0.27508   0.28704   0.29609
 Alpha virt. eigenvalues --    0.30346   0.31066   0.31656   0.31739   0.32567

 Mulliken charges:
               1
     1  C   -0.298374
     2  C   -0.299758
     3  C   -0.475778
     4  H    0.150043
     5  H    0.149861
     6  H    0.152106
     7  H    0.151988
     8  H    0.155296
     9  H    0.155283
    10  H    0.160533
    11  C   -0.300104
    12  C   -0.299970
    13  C   -0.484485
    14  H    0.149787
    15  H    0.150208
    16  H    0.152462
    17  H    0.152374
    18  H    0.160977
    19  H    0.158343
    20  H    0.161102
    21  C   -0.300604
    22  C   -0.303473
    23  C   -0.475404
    24  H    0.149518
    25  H    0.151658
    26  H    0.152389
    27  H    0.153832
    28  H    0.154217
    29  H    0.155530
    30  H    0.160080
    31  C   -0.305193
    32  C   -0.300533
    33  C   -0.476728
    34  H    0.148281
    35  H    0.160751
    36  H    0.151790
    37  H    0.151465
    38  H    0.155206
    39  H    0.155486
    40  H    0.159839
 Sum of Mulliken charges =  -0.00000

 Dipole moment (field-independent basis, Debye):
    X=             -0.0473    Y=             -0.0132    Z=              0.0412  Tot=              0.0641
 Quadrupole moment (field-independent basis, Debye-Ang):
   XX=            -85.2051   YY=            -85.0221   ZZ=            -84.5818
   XY=              0.7483   XZ=             -0.6578   YZ=              0.4040

 Normal termination of Gaussian 16 at Thu May  6 08:25:49 2021.
