 Gaussian 16, Revision A.03,
 Gaussian 16:  EM64L-G16RevA.03 25-Dec-2016

 -------------
 #p 6-31g* mp2
 -------------

 ------------------------------------------------------
 Input file generated by CHIRIPA (05-May-2021 14:51:07)
 ------------------------------------------------------
 Symbolic Z-matrix:
 Charge =  0 Multiplicity = 1

                         Standard orientation:
 ---------------------------------------------------------------------
 Center     Atomic      Atomic             Coordinates (Angstroms)
 Number     Number       Type             X           Y           Z
 ---------------------------------------------------------------------
      1          6           0        2.992532    0.169960    0.087724
      2          6           0        4.090719   -0.185334   -0.915139
      3          6           0        4.762071   -1.524042   -0.607015
      4          1           0        3.422662    0.197847    1.098246
      5          1           0        2.237011   -0.627893    0.091515
      6          1           0        4.843238    0.613617   -0.918045
      7          1           0        3.657964   -0.212190   -1.923414
      8          1           0        4.027942   -2.336059   -0.623810
      9          1           0        5.219950   -1.505560    0.387272
     10          1           0        5.543859   -1.758350   -1.336239
     11          6           0        2.311995    1.505528   -0.206992
     12          6           0        1.213808    1.860822    0.795872
     13          6           0        0.542455    3.199530    0.487748
     14          1           0        3.067516    2.303381   -0.210783
     15          1           0        1.881865    1.477641   -1.217514
     16          1           0        1.646562    1.887678    1.804147
     17          1           0        0.461289    1.061871    0.798777
     18          1           0        0.084577    3.181048   -0.506539
     19          1           0        1.276585    4.011547    0.504543
     20          1           0       -0.239332    3.433838    1.216971
     21          6           0       -2.128454   -1.020751    0.584575
     22          6           0       -1.054830   -1.976134    0.062503
     23          6           0       -0.014095   -2.332919    1.124280
     24          1           0       -1.647289   -0.103671    0.951167
     25          1           0       -2.627875   -1.478898    1.449489
     26          1           0       -0.558520   -1.516908   -0.802023
     27          1           0       -1.538623   -2.890968   -0.303065
     28          1           0       -0.490657   -2.814230    1.984412
     29          1           0        0.495014   -1.432364    1.482619
     30          1           0        0.743823   -3.016820    0.729691
     31          6           0       -3.176073   -0.654737   -0.465308
     32          6           0       -4.249697    0.300646    0.056765
     33          6           0       -5.290432    0.657431   -1.005012
     34          1           0       -2.676652   -0.196590   -1.330222
     35          1           0       -3.657238   -1.571816   -0.831900
     36          1           0       -3.765904    1.215480    0.422333
     37          1           0       -4.746006   -0.158581    0.921290
     38          1           0       -5.799540   -0.243124   -1.363352
     39          1           0       -4.813870    1.138743   -1.865145
     40          1           0       -6.048350    1.341332   -0.610424
 ---------------------------------------------------------------------

 SCF Done:  E(RHF) =  -470.732225199     A.U. after   11 cycles
 E2 =    -0.1584873464D+01 EUMP2 =    -0.47231709866249D+03

 The electronic state is 1-A.
 Alpha  occ. eigenvalues --  -11.21669 -11.21652 -11.21620 -11.21587 -11.21442
 Alpha  occ. eigenvalues --  -11.21410 -11.21382 -11.21303 -11.21141 -11.21085
 Alpha  occ. eigenvalues --  -11.21064 -11.21061  -1.08511  -1.08414  -1.03579
 Alpha  occ. eigenvalues --   -1.03548  -0.96054  -0.95963  -0.87063  -0.86988
 Alpha  occ. eigenvalues --   -0.79658  -0.79616  -0.78372  -0.78180  -0.65423
 Alpha  occ. eigenvalues --   -0.64823  -0.61058  -0.60879  -0.59446  -0.59302
 Alpha  occ. eigenvalues --   -0.57666  -0.57589  -0.55510  -0.55102  -0.52717
 Alpha  occ. eigenvalues --   -0.52702  -0.52451  -0.52398  -0.50119  -0.49809
 Alpha  occ. eigenvalues --   -0.48062  -0.47875  -0.46907  -0.46624  -0.46001
 Alpha  occ. eigenvalues --   -0.45778  -0.45765  -0.45155  -0.43819  -0.43794
 Alpha virt. eigenvalues --    0.19915   0.22795   0.23955   0.24187   0.26319
 Alpha virt. eigenvalues --    0.26512   0.26743   0.27691   0.27872   0.30322
 Alpha virt. eigenvalues --    0.30478   0.31271   0.31779   0.31913   0.31922

 Mulliken charges:
               1
     1  C   -0.307716
     2  C   -0.299124
     3  C   -0.475715
     4  H    0.149020
     5  H    0.161483
     6  H    0.151713
     7  H    0.151474
     8  H    0.155050
     9  H    0.155318
    10  H    0.160162
    11  C   -0.297042
    12  C   -0.310699
    13  C   -0.475425
    14  H    0.149635
    15  H    0.148784
    16  H    0.152244
    17  H    0.160945
    18  H    0.154813
    19  H    0.155926
    20  H    0.160104
    21  C   -0.304786
    22  C   -0.301487
    23  C   -0.482184
    24  H    0.155168
    25  H    0.150212
    26  H    0.151428
    27  H    0.152873
    28  H    0.156193
    29  H    0.161377
    30  H    0.159583
    31  C   -0.297798
    32  C   -0.299870
    33  C   -0.475713
    34  H    0.149119
    35  H    0.149813
    36  H    0.152354
    37  H    0.152006
    38  H    0.155167
    39  H    0.155190
    40  H    0.160403
 Sum of Mulliken charges =  -0.00000

 Dipole moment (field-independent basis, Debye):
    X=             -0.0132    Y=             -0.0067    Z=              0.0229  Tot=              0.0272
 Quadrupole moment (field-independent basis, Debye-Ang):
   XX=            -85.0327   YY=            -84.9618   ZZ=            -84.8029
   XY=              1.6098   XZ=             -0.3307   YZ=              0.3614

 Normal termination of Gaussian 16 at Wed May  5 15:02:54 2021.
