 Gaussian 16, Revision A.03,
 Gaussian 16:  EM64L-G16RevA.03 25-Dec-2016

 -------------
 #p 6-31g* mp2
 -------------

 ------------------------------------------------------
 Input file generated by CHIRIPA (05-May-2021 14:51:08)
 ------------------------------------------------------
 Symbolic Z-matrix:
 Charge =  0 Multiplicity = 1

                         Standard orientation:
 ---------------------------------------------------------------------
 Center     Atomic      Atomic             Coordinates (Angstroms)
 Number     Number       Type             X           Y           Z
 ---------------------------------------------------------------------
      1          6           0       -2.842787   -0.345996    0.454506
      2          6           0       -1.689204   -0.971470   -0.330359
      3          6           0       -0.412093   -1.103122    0.499973
      4          1           0       -2.536202    0.644443    0.817800
      5          1           0       -3.044793   -0.956892    1.345233
      6          1           0       -1.490346   -0.360339   -1.220073
      7          1           0       -1.998637   -1.960454   -0.691990
      8          1           0       -0.587663   -1.730367    1.379939
      9          1           0       -0.076484   -0.121161    0.848855
     10          1           0        0.399634   -1.552554   -0.080519
     11          6           0       -4.126428   -0.207746   -0.362121
     12          6           0       -5.280011    0.417728    0.422745
     13          6           0       -6.557121    0.549381   -0.407587
     14          1           0       -3.924421    0.403150   -1.252848
     15          1           0       -4.433012   -1.198184   -0.725415
     16          1           0       -4.970577    1.406713    0.784375
     17          1           0       -5.478868   -0.193402    1.312459
     18          1           0       -6.892730   -0.432581   -0.756469
     19          1           0       -6.381551    1.176626   -1.287553
     20          1           0       -7.368849    0.998812    0.172904
     21          6           0        3.454689   -0.403359    0.299962
     22          6           0        3.861409   -1.564290   -0.608224
     23          6           0        3.796464   -2.918554    0.098560
     24          1           0        4.109038   -0.389809    1.182341
     25          1           0        2.434597   -0.576372    0.669927
     26          1           0        4.879916   -1.388454   -0.977471
     27          1           0        3.206140   -1.574962   -1.488637
     28          1           0        2.780230   -3.120035    0.452504
     29          1           0        4.463516   -2.932468    0.966574
     30          1           0        4.091209   -3.734306   -0.568923
     31          6           0        3.514524    0.957101   -0.392348
     32          6           0        3.107805    2.118031    0.515839
     33          6           0        3.172751    3.472295   -0.190945
     34          1           0        4.534616    1.130113   -0.762313
     35          1           0        2.860177    0.943551   -1.274726
     36          1           0        3.763074    2.128703    1.396251
     37          1           0        2.089299    1.942196    0.885085
     38          1           0        2.505699    3.486210   -1.058960
     39          1           0        4.188985    3.673777   -0.544890
     40          1           0        2.878004    4.288048    0.476538
 ---------------------------------------------------------------------

 SCF Done:  E(RHF) =  -470.732582470     A.U. after   11 cycles
 E2 =    -0.1583598157D+01 EUMP2 =    -0.47231618062728D+03

 The electronic state is 1-A.
 Alpha  occ. eigenvalues --  -11.21696 -11.21640 -11.21579 -11.21539 -11.21468
 Alpha  occ. eigenvalues --  -11.21405 -11.21313 -11.21203 -11.21169 -11.21101
 Alpha  occ. eigenvalues --  -11.21059 -11.21023  -1.08501  -1.08354  -1.03612
 Alpha  occ. eigenvalues --   -1.03482  -0.96076  -0.95916  -0.87108  -0.86930
 Alpha  occ. eigenvalues --   -0.79704  -0.79534  -0.78322  -0.78139  -0.65170
 Alpha  occ. eigenvalues --   -0.64989  -0.61005  -0.60937  -0.59437  -0.59256
 Alpha  occ. eigenvalues --   -0.57662  -0.57537  -0.55439  -0.55137  -0.52811
 Alpha  occ. eigenvalues --   -0.52631  -0.52484  -0.52332  -0.50045  -0.49831
 Alpha  occ. eigenvalues --   -0.48000  -0.47851  -0.46739  -0.46582  -0.45913
 Alpha  occ. eigenvalues --   -0.45785  -0.45693  -0.45508  -0.43765  -0.43710
 Alpha virt. eigenvalues --    0.20663   0.22955   0.23329   0.24742   0.25623
 Alpha virt. eigenvalues --    0.26691   0.26854   0.27694   0.27866   0.29496
 Alpha virt. eigenvalues --    0.29741   0.31396   0.31694   0.31973   0.32183

 Mulliken charges:
               1
     1  C   -0.298824
     2  C   -0.299751
     3  C   -0.482795
     4  H    0.149801
     5  H    0.149800
     6  H    0.152041
     7  H    0.152433
     8  H    0.156293
     9  H    0.157211
    10  H    0.164660
    11  C   -0.298353
    12  C   -0.299693
    13  C   -0.475748
    14  H    0.149609
    15  H    0.149814
    16  H    0.152043
    17  H    0.152031
    18  H    0.155244
    19  H    0.155247
    20  H    0.160412
    21  C   -0.308238
    22  C   -0.299914
    23  C   -0.477432
    24  H    0.148612
    25  H    0.162978
    26  H    0.151843
    27  H    0.150759
    28  H    0.156305
    29  H    0.155345
    30  H    0.159883
    31  C   -0.297469
    32  C   -0.301285
    33  C   -0.475610
    34  H    0.149174
    35  H    0.148915
    36  H    0.152141
    37  H    0.152346
    38  H    0.154859
    39  H    0.155347
    40  H    0.159967
 Sum of Mulliken charges =  -0.00000

 Dipole moment (field-independent basis, Debye):
    X=             -0.0668    Y=             -0.0149    Z=              0.0223  Tot=              0.0720
 Quadrupole moment (field-independent basis, Debye-Ang):
   XX=            -84.9054   YY=            -85.0908   ZZ=            -84.9850
   XY=              0.5773   XZ=             -0.2229   YZ=              0.1787

 Normal termination of Gaussian 16 at Thu May  6 03:41:43 2021.
