 Gaussian 16, Revision A.03,
 Gaussian 16:  EM64L-G16RevA.03 25-Dec-2016

 -------------
 #p 6-31g* mp2
 -------------

 ------------------------------------------------------
 Input file generated by CHIRIPA (05-May-2021 14:53:18)
 ------------------------------------------------------
 Symbolic Z-matrix:
 Charge =  0 Multiplicity = 1

                         Standard orientation:
 ---------------------------------------------------------------------
 Center     Atomic      Atomic             Coordinates (Angstroms)
 Number     Number       Type             X           Y           Z
 ---------------------------------------------------------------------
      1          6           0       -3.831661    0.780941   -0.377299
      2          6           0       -2.620051    1.406866    0.314224
      3          6           0       -2.282714    2.796347   -0.227383
      4          1           0       -3.637797    0.718124   -1.456843
      5          1           0       -4.698918    1.444226   -0.253547
      6          1           0       -1.755673    0.741935    0.190389
      7          1           0       -2.816746    1.468024    1.392271
      8          1           0       -3.127426    3.479046   -0.089600
      9          1           0       -2.060325    2.748832   -1.298311
     10          1           0       -1.413484    3.225219    0.280917
     11          6           0       -4.181330   -0.608289    0.153268
     12          6           0       -5.392940   -1.234213   -0.538255
     13          6           0       -5.730277   -2.623695    0.003352
     14          1           0       -3.314074   -1.271574    0.029517
     15          1           0       -4.375194   -0.545472    1.232812
     16          1           0       -5.196246   -1.295372   -1.616302
     17          1           0       -6.257318   -0.569283   -0.414420
     18          1           0       -5.952666   -2.576180    1.074280
     19          1           0       -4.885565   -3.306394   -0.134431
     20          1           0       -6.599507   -3.052567   -0.504948
     21          6           0        1.547942    1.839059    0.565040
     22          6           0        2.425484    1.913106   -0.521680
     23          6           0        3.306466    0.862717   -0.795727
     24          6           0        3.283029   -0.251756    0.041346
     25          6           0        2.420581   -0.355202    1.131654
     26          6           0        1.548292    0.707137    1.386790
     27          1           0        0.866951    2.659668    0.770580
     28          1           0        2.427413    2.790942   -1.161558
     29          1           0        3.996300    0.893860   -1.630337
     30          1           0        2.441838   -1.243224    1.751640
     31          1           0        0.867879    0.646887    2.231452
     32          7           0        4.211085   -1.370081   -0.238765
     33          8           0        4.170868   -2.340999    0.513791
     34          8           0        4.961138   -1.254531   -1.205565
 ---------------------------------------------------------------------

 SCF Done:  E(RHF) =  -669.535535052     A.U. after   15 cycles
 E2 =    -0.2091516778D+01 EUMP2 =    -0.67162705182925D+03

 The electronic state is 1-A.
 Alpha  occ. eigenvalues --  -20.60767 -20.60761 -15.85820 -11.31187 -11.27757
 Alpha  occ. eigenvalues --  -11.27754 -11.27478 -11.26768 -11.26756 -11.22417
 Alpha  occ. eigenvalues --  -11.22111 -11.21998 -11.21968 -11.21846 -11.21354
 Alpha  occ. eigenvalues --   -1.59842  -1.39396  -1.19361  -1.09014  -1.08750
 Alpha  occ. eigenvalues --   -1.04762  -1.04144  -0.96604  -0.95585  -0.87619
 Alpha  occ. eigenvalues --   -0.86156  -0.82419  -0.80218  -0.78791  -0.77466
 Alpha  occ. eigenvalues --   -0.72038  -0.71166  -0.70490  -0.65631  -0.65010
 Alpha  occ. eigenvalues --   -0.64763  -0.62108  -0.61524  -0.60053  -0.58228
 Alpha  occ. eigenvalues --   -0.55872  -0.55271  -0.53304  -0.53082  -0.52981
 Alpha  occ. eigenvalues --   -0.52848  -0.50518  -0.48802  -0.48793  -0.48525
 Alpha  occ. eigenvalues --   -0.47228  -0.46341  -0.46232  -0.44801  -0.44393
 Alpha  occ. eigenvalues --   -0.37318  -0.36365
 Alpha virt. eigenvalues --    0.05050   0.11222   0.16489   0.19924   0.22561
 Alpha virt. eigenvalues --    0.23977   0.26039   0.26120   0.26498   0.27631
 Alpha virt. eigenvalues --    0.28639   0.30193   0.30820   0.31506   0.32505

 Mulliken charges:
               1
     1  C   -0.298458
     2  C   -0.304547
     3  C   -0.475983
     4  H    0.151851
     5  H    0.150753
     6  H    0.155241
     7  H    0.149939
     8  H    0.159703
     9  H    0.158777
    10  H    0.147552
    11  C   -0.299101
    12  C   -0.300151
    13  C   -0.476188
    14  H    0.150999
    15  H    0.149148
    16  H    0.153176
    17  H    0.152256
    18  H    0.155136
    19  H    0.156522
    20  H    0.161683
    21  C   -0.171407
    22  C   -0.220506
    23  C   -0.170953
    24  C    0.158378
    25  C   -0.171408
    26  C   -0.220535
    27  H    0.231183
    28  H    0.223851
    29  H    0.275576
    30  H    0.275650
    31  H    0.224733
    32  N    0.488035
    33  O   -0.460454
    34  O   -0.460452
 Sum of Mulliken charges =  -0.00000

 Dipole moment (field-independent basis, Debye):
    X=             -3.4033    Y=              3.8837    Z=              0.9294  Tot=              5.2469
 Quadrupole moment (field-independent basis, Debye-Ang):
   XX=           -115.5245   YY=            -96.9667   ZZ=            -91.4555
   XY=             14.3705   XZ=              1.2976   YZ=             -1.8802

 Normal termination of Gaussian 16 at Thu May  6 12:18:50 2021.
