 Gaussian 16, Revision A.03,
 Gaussian 16:  EM64L-G16RevA.03 25-Dec-2016

 -------------
 #p 6-31g* mp2
 -------------

 ------------------------------------------------------
 Input file generated by CHIRIPA (05-May-2021 14:51:14)
 ------------------------------------------------------
 Symbolic Z-matrix:
 Charge =  0 Multiplicity = 1

                         Standard orientation:
 ---------------------------------------------------------------------
 Center     Atomic      Atomic             Coordinates (Angstroms)
 Number     Number       Type             X           Y           Z
 ---------------------------------------------------------------------
      1          6           0       -2.792720   -0.251244    0.294958
      2          6           0       -3.572120    0.466454   -0.807507
      3          6           0       -4.378383    1.655223   -0.283520
      4          1           0       -3.494465   -0.594280    1.067503
      5          1           0       -2.116910    0.465049    0.782400
      6          1           0       -4.245257   -0.251303   -1.293643
      7          1           0       -2.868459    0.807654   -1.577611
      8          1           0       -3.717859    2.392669    0.183901
      9          1           0       -5.102479    1.327695    0.469482
     10          1           0       -4.927753    2.153690   -1.088244
     11          6           0       -1.981737   -1.441927   -0.213280
     12          6           0       -1.202337   -2.159625    0.889186
     13          6           0       -0.396074   -3.348394    0.365198
     14          1           0       -2.657547   -2.158220   -0.700722
     15          1           0       -1.279992   -1.098891   -0.985824
     16          1           0       -1.905998   -2.500825    1.659290
     17          1           0       -0.529200   -1.441868    1.375322
     18          1           0        0.328022   -3.020866   -0.387803
     19          1           0       -1.056598   -4.085840   -0.102222
     20          1           0        0.153296   -3.846862    1.169923
     21          6           0        2.031665    1.359701    0.399297
     22          6           0        1.905248    2.735922   -0.254935
     23          6           0        1.191709    3.751591    0.637854
     24          1           0        1.029428    0.987482    0.652121
     25          1           0        2.576006    1.461217    1.348392
     26          1           0        1.362513    2.631630   -1.203185
     27          1           0        2.907889    3.104823   -0.506406
     28          1           0        1.734240    3.885064    1.579367
     29          1           0        0.180084    3.409183    0.878628
     30          1           0        1.112278    4.728413    0.150649
     31          6           0        2.742792    0.333470   -0.480975
     32          6           0        2.869209   -1.042751    0.173256
     33          6           0        3.582748   -2.058420   -0.719533
     34          1           0        2.198451    0.231954   -1.430071
     35          1           0        3.745029    0.705689   -0.733799
     36          1           0        1.866568   -1.411652    0.424726
     37          1           0        3.411944   -0.938459    1.121507
     38          1           0        4.594373   -1.716012   -0.960306
     39          1           0        3.040217   -2.191893   -1.661046
     40          1           0        3.662178   -3.035242   -0.232327
 ---------------------------------------------------------------------

 SCF Done:  E(RHF) =  -470.732827779     A.U. after   11 cycles
 E2 =    -0.1584502715D+01 EUMP2 =    -0.47231733049329D+03

 The electronic state is 1-A.
 Alpha  occ. eigenvalues --  -11.21661 -11.21655 -11.21653 -11.21549 -11.21478
 Alpha  occ. eigenvalues --  -11.21453 -11.21419 -11.21385 -11.21124 -11.21109
 Alpha  occ. eigenvalues --  -11.21094 -11.21075  -1.08525  -1.08441  -1.03635
 Alpha  occ. eigenvalues --   -1.03513  -0.96070  -0.95979  -0.87051  -0.87025
 Alpha  occ. eigenvalues --   -0.79650  -0.79620  -0.78342  -0.78254  -0.65437
 Alpha  occ. eigenvalues --   -0.64844  -0.61345  -0.60644  -0.59427  -0.59339
 Alpha  occ. eigenvalues --   -0.57645  -0.57622  -0.55530  -0.55096  -0.52734
 Alpha  occ. eigenvalues --   -0.52684  -0.52452  -0.52428  -0.49994  -0.49938
 Alpha  occ. eigenvalues --   -0.48033  -0.47865  -0.46691  -0.46621  -0.46090
 Alpha  occ. eigenvalues --   -0.45819  -0.45770  -0.45456  -0.43843  -0.43808
 Alpha virt. eigenvalues --    0.18932   0.22018   0.23895   0.24487   0.25749
 Alpha virt. eigenvalues --    0.26480   0.26699   0.28095   0.28537   0.30068
 Alpha virt. eigenvalues --    0.30849   0.31101   0.31659   0.31886   0.32426

 Mulliken charges:
               1
     1  C   -0.299760
     2  C   -0.299633
     3  C   -0.475716
     4  H    0.150218
     5  H    0.149858
     6  H    0.152199
     7  H    0.151766
     8  H    0.155161
     9  H    0.155372
    10  H    0.160519
    11  C   -0.298118
    12  C   -0.305347
    13  C   -0.479786
    14  H    0.150182
    15  H    0.148957
    16  H    0.153029
    17  H    0.155112
    18  H    0.158616
    19  H    0.156108
    20  H    0.160834
    21  C   -0.301757
    22  C   -0.299542
    23  C   -0.475675
    24  H    0.151433
    25  H    0.149951
    26  H    0.151733
    27  H    0.152420
    28  H    0.155506
    29  H    0.154400
    30  H    0.160613
    31  C   -0.297584
    32  C   -0.310763
    33  C   -0.475607
    34  H    0.148544
    35  H    0.149941
    36  H    0.164398
    37  H    0.151722
    38  H    0.155262
    39  H    0.154333
    40  H    0.161103
 Sum of Mulliken charges =  -0.00000

 Dipole moment (field-independent basis, Debye):
    X=             -0.0116    Y=             -0.0224    Z=              0.0124  Tot=              0.0281
 Quadrupole moment (field-independent basis, Debye-Ang):
   XX=            -83.8958   YY=            -85.7450   ZZ=            -84.9405
   XY=              1.7451   XZ=              0.6613   YZ=             -0.6604

 Normal termination of Gaussian 16 at Thu May  6 05:35:52 2021.
