 Gaussian 16, Revision A.03,
 Gaussian 16:  EM64L-G16RevA.03 25-Dec-2016

 -------------
 #p 6-31g* mp2
 -------------

 ------------------------------------------------------
 Input file generated by CHIRIPA (05-May-2021 14:53:16)
 ------------------------------------------------------
 Symbolic Z-matrix:
 Charge =  0 Multiplicity = 1

                         Standard orientation:
 ---------------------------------------------------------------------
 Center     Atomic      Atomic             Coordinates (Angstroms)
 Number     Number       Type             X           Y           Z
 ---------------------------------------------------------------------
      1          6           0        4.103648   -0.664258   -0.226965
      2          6           0        5.483813   -1.305469   -0.078719
      3          6           0        5.536976   -2.729083   -0.633957
      4          1           0        3.359500   -1.287884    0.287118
      5          1           0        3.823478   -0.655139   -1.289423
      6          1           0        5.761894   -1.312121    0.982998
      7          1           0        6.224790   -0.680144   -0.593051
      8          1           0        5.284959   -2.736726   -1.699334
      9          1           0        4.819432   -3.372294   -0.114330
     10          1           0        6.532628   -3.168425   -0.517698
     11          6           0        4.034633    0.759097    0.323513
     12          6           0        2.654467    1.400307    0.175267
     13          6           0        2.601304    2.823922    0.730505
     14          1           0        4.314802    0.749977    1.385971
     15          1           0        4.778780    1.382722   -0.190570
     16          1           0        1.913490    0.774982    0.689599
     17          1           0        2.376387    1.406959   -0.886450
     18          1           0        3.318848    3.467132    0.210878
     19          1           0        2.853322    2.831564    1.795883
     20          1           0        1.605652    3.263264    0.614246
     21          6           0       -5.099774   -1.628650    0.340980
     22          6           0       -5.127520   -0.743013   -0.741332
     23          6           0       -4.068812    0.143271   -0.960844
     24          6           0       -2.993323    0.116824   -0.074325
     25          6           0       -2.936423   -0.753658    1.013018
     26          6           0       -4.006242   -1.631141    1.213163
     27          1           0       -5.926519   -2.313718    0.503980
     28          1           0       -5.975474   -0.738862   -1.420302
     29          1           0       -4.064477    0.839402   -1.790784
     30          1           0       -2.077472   -0.734440    1.672754
     31          1           0       -3.981988   -2.317837    2.054534
     32          7           0       -1.866636    1.050435   -0.296461
     33          8           0       -0.930670    1.007417    0.498997
     34          8           0       -1.940838    1.807539   -1.261823
 ---------------------------------------------------------------------

 SCF Done:  E(RHF) =  -669.536061458     A.U. after   15 cycles
 E2 =    -0.2091161170D+01 EUMP2 =    -0.67162722262751D+03

 The electronic state is 1-A.
 Alpha  occ. eigenvalues --  -20.60968 -20.60950 -15.85990 -11.31309 -11.27873
 Alpha  occ. eigenvalues --  -11.27868 -11.27607 -11.26878 -11.26868 -11.20956
 Alpha  occ. eigenvalues --  -11.20583 -11.20529 -11.20234 -11.19908 -11.19473
 Alpha  occ. eigenvalues --   -1.60017  -1.39574  -1.19476  -1.08881  -1.07405
 Alpha  occ. eigenvalues --   -1.04873  -1.02419  -0.95725  -0.94919  -0.86273
 Alpha  occ. eigenvalues --   -0.85955  -0.82561  -0.78552  -0.77616  -0.77110
 Alpha  occ. eigenvalues --   -0.72212  -0.71329  -0.70586  -0.65134  -0.64876
 Alpha  occ. eigenvalues --   -0.64053  -0.62221  -0.59830  -0.58339  -0.56459
 Alpha  occ. eigenvalues --   -0.55374  -0.54250  -0.53204  -0.52965  -0.51601
 Alpha  occ. eigenvalues --   -0.51345  -0.48974  -0.48960  -0.48911  -0.46846
 Alpha  occ. eigenvalues --   -0.45624  -0.45062  -0.44635  -0.44469  -0.42683
 Alpha  occ. eigenvalues --   -0.37454  -0.36474
 Alpha virt. eigenvalues --    0.04910   0.11181   0.16400   0.21302   0.23770
 Alpha virt. eigenvalues --    0.25421   0.27225   0.27591   0.28100   0.28625
 Alpha virt. eigenvalues --    0.29029   0.30867   0.32249   0.32476   0.32781

 Mulliken charges:
               1
     1  C   -0.296605
     2  C   -0.298601
     3  C   -0.474899
     4  H    0.147264
     5  H    0.148846
     6  H    0.150174
     7  H    0.151079
     8  H    0.154453
     9  H    0.153077
    10  H    0.157940
    11  C   -0.298567
    12  C   -0.297836
    13  C   -0.477395
    14  H    0.145000
    15  H    0.145604
    16  H    0.165845
    17  H    0.152241
    18  H    0.147041
    19  H    0.147232
    20  H    0.174177
    21  C   -0.170585
    22  C   -0.218559
    23  C   -0.170584
    24  C    0.157766
    25  C   -0.170639
    26  C   -0.218505
    27  H    0.226049
    28  H    0.223871
    29  H    0.275897
    30  H    0.275359
    31  H    0.223835
    32  N    0.491627
    33  O   -0.462349
    34  O   -0.459251
 Sum of Mulliken charges =  -0.00000

 Dipole moment (field-independent basis, Debye):
    X=             -4.3692    Y=             -3.2469    Z=              0.7600  Tot=              5.4964
 Quadrupole moment (field-independent basis, Debye-Ang):
   XX=            -71.8976   YY=            -96.7749   ZZ=            -91.2897
   XY=              8.9687   XZ=             -0.1711   YZ=             -2.3011

 Normal termination of Gaussian 16 at Thu May  6 02:44:13 2021.
