 Gaussian 16, Revision A.03,
 Gaussian 16:  EM64L-G16RevA.03 25-Dec-2016

 -------------
 #p 6-31g* mp2
 -------------

 ------------------------------------------------------
 Input file generated by CHIRIPA (05-May-2021 14:55:24)
 ------------------------------------------------------
 Symbolic Z-matrix:
 Charge =  0 Multiplicity = 1

                         Standard orientation:
 ---------------------------------------------------------------------
 Center     Atomic      Atomic             Coordinates (Angstroms)
 Number     Number       Type             X           Y           Z
 ---------------------------------------------------------------------
      1          6           0       -4.159851    1.298568    1.102469
      2          6           0       -4.691829    0.207813    0.406929
      3          6           0       -3.848564   -0.711703   -0.223897
      4          6           0       -2.472005   -0.508966   -0.138614
      5          6           0       -1.911614    0.567815    0.546803
      6          6           0       -2.773885    1.474776    1.170067
      7          1           0       -4.822302    2.007993    1.589572
      8          1           0       -5.767790    0.068454    0.352773
      9          1           0       -4.233608   -1.564920   -0.769038
     10          1           0       -0.834840    0.680251    0.583310
     11          1           0       -2.357935    2.320949    1.709532
     12          7           0       -1.569217   -1.475771   -0.802438
     13          8           0       -0.360016   -1.274800   -0.712548
     14          8           0       -2.087908   -2.416217   -1.400065
     15          6           0        2.787216    0.957338   -0.002272
     16          6           0        3.120048    2.168402   -0.874357
     17          6           0        1.975112    3.179384   -0.943853
     18          1           0        1.886343    0.466753   -0.395594
     19          1           0        2.538557    1.301337    1.011250
     20          1           0        3.369350    1.822112   -1.885568
     21          1           0        4.020343    2.656049   -0.479027
     22          1           0        1.729826    3.552924    0.055599
     23          1           0        1.075135    2.714250   -1.358934
     24          1           0        2.234441    4.037035   -1.572379
     25          6           0        3.922020   -0.062298    0.077044
     26          6           0        3.589187   -1.273363    0.949128
     27          6           0        4.734123   -2.284345    1.018624
     28          1           0        4.170678   -0.406298   -0.936479
     29          1           0        4.822891    0.428287    0.470365
     30          1           0        2.688893   -1.761010    0.553799
     31          1           0        3.339885   -0.927073    1.960340
     32          1           0        5.634100   -1.819210    1.433705
     33          1           0        4.979409   -2.657885    0.019172
     34          1           0        4.474794   -3.141995    1.647150
 ---------------------------------------------------------------------

 SCF Done:  E(RHF) =  -669.536558176     A.U. after   15 cycles
 E2 =    -0.2091841320D+01 EUMP2 =    -0.67162839949634D+03

 The electronic state is 1-A.
 Alpha  occ. eigenvalues --  -20.60965 -20.60948 -15.85997 -11.31263 -11.27829
 Alpha  occ. eigenvalues --  -11.27800 -11.27559 -11.26828 -11.26809 -11.21254
 Alpha  occ. eigenvalues --  -11.21015 -11.20786 -11.20755 -11.20690 -11.20378
 Alpha  occ. eigenvalues --   -1.60021  -1.39579  -1.19430  -1.08846  -1.07846
 Alpha  occ. eigenvalues --   -1.04818  -1.03014  -0.95697  -0.95493  -0.86520
 Alpha  occ. eigenvalues --   -0.86222  -0.82533  -0.79084  -0.77757  -0.77469
 Alpha  occ. eigenvalues --   -0.72224  -0.71331  -0.70540  -0.65095  -0.64824
 Alpha  occ. eigenvalues --   -0.64440  -0.62164  -0.60400  -0.58882  -0.57095
 Alpha  occ. eigenvalues --   -0.55329  -0.54784  -0.53156  -0.52911  -0.52211
 Alpha  occ. eigenvalues --   -0.51936  -0.49460  -0.48979  -0.48966  -0.47406
 Alpha  occ. eigenvalues --   -0.46088  -0.45206  -0.45021  -0.44960  -0.43242
 Alpha  occ. eigenvalues --   -0.37412  -0.36417
 Alpha virt. eigenvalues --    0.04920   0.11223   0.16425   0.20755   0.23293
 Alpha virt. eigenvalues --    0.24419   0.26255   0.27188   0.27650   0.28422
 Alpha virt. eigenvalues --    0.29387   0.30976   0.31648   0.32121   0.32250

 Mulliken charges:
               1
     1  C   -0.170313
     2  C   -0.218807
     3  C   -0.170599
     4  C    0.156728
     5  C   -0.172744
     6  C   -0.219740
     7  H    0.225946
     8  H    0.223665
     9  H    0.275570
    10  H    0.281229
    11  H    0.224549
    12  N    0.494500
    13  O   -0.468663
    14  O   -0.458860
    15  C   -0.314802
    16  C   -0.297841
    17  C   -0.477102
    18  H    0.176352
    19  H    0.139711
    20  H    0.154686
    21  H    0.150013
    22  H    0.148417
    23  H    0.154892
    24  H    0.160411
    25  C   -0.296037
    26  C   -0.305521
    27  C   -0.475328
    28  H    0.151701
    29  H    0.145196
    30  H    0.170719
    31  H    0.145514
    32  H    0.151230
    33  H    0.156166
    34  H    0.159161
 Sum of Mulliken charges =  -0.00000

 Dipole moment (field-independent basis, Debye):
    X=             -3.3572    Y=              3.2395    Z=              2.2158  Tot=              5.1648
 Quadrupole moment (field-independent basis, Debye-Ang):
   XX=            -77.0023   YY=            -98.1706   ZZ=            -95.1263
   XY=             -4.0709   XZ=             -4.3208   YZ=             -0.0484

 Normal termination of Gaussian 16 at Wed May  5 22:22:03 2021.
