 Gaussian 16, Revision A.03,
 Gaussian 16:  EM64L-G16RevA.03 25-Dec-2016

 -------------
 #p 6-31g* mp2
 -------------

 ------------------------------------------------------
 Input file generated by CHIRIPA (05-May-2021 14:57:24)
 ------------------------------------------------------
 Symbolic Z-matrix:
 Charge =  0 Multiplicity = 1

                         Standard orientation:
 ---------------------------------------------------------------------
 Center     Atomic      Atomic             Coordinates (Angstroms)
 Number     Number       Type             X           Y           Z
 ---------------------------------------------------------------------
      1          6           0       -4.404189    1.341895    0.106539
      2          6           0       -3.951414    0.798385   -1.100156
      3          6           0       -2.972531   -0.199761   -1.106302
      4          6           0       -2.465991   -0.632831    0.118099
      5          6           0       -2.896679   -0.111010    1.336910
      6          6           0       -3.876307    0.886266    1.319084
      7          1           0       -5.164898    2.116941    0.102002
      8          1           0       -4.359580    1.150301   -2.043343
      9          1           0       -2.603988   -0.637903   -2.025881
     10          1           0       -2.470890   -0.482171    2.261227
     11          1           0       -4.226048    1.306541    2.257750
     12          7           0       -1.429297   -1.689064    0.124282
     13          8           0       -0.998999   -2.053415    1.216403
     14          8           0       -1.066664   -2.132588   -0.963110
     15          6           0        1.864666    2.858753   -0.215297
     16          6           0        2.846409    2.476377    0.704752
     17          6           0        3.281871    1.149380    0.768020
     18          6           0        2.711503    0.226729   -0.107585
     19          6           0        1.731642    0.576808   -1.035274
     20          6           0        1.311392    1.909422   -1.080848
     21          1           0        1.532298    3.891778   -0.257572
     22          1           0        3.277858    3.211495    1.378175
     23          1           0        4.040380    0.826100    1.470566
     24          1           0        1.320192   -0.178595   -1.693677
     25          1           0        0.548798    2.203523   -1.796389
     26          7           0        3.164454   -1.181077   -0.049972
     27          8           0        2.646223   -1.974854   -0.832271
     28          8           0        4.029133   -1.464080    0.776392
 ---------------------------------------------------------------------

 SCF Done:  E(RHF) =  -868.336379117     A.U. after   16 cycles
 E2 =    -0.2601285033D+01 EUMP2 =    -0.87093766415041D+03

 The electronic state is 1-A.
 Alpha  occ. eigenvalues --  -20.60815 -20.60803 -20.59818 -20.59721 -15.85861
 Alpha  occ. eigenvalues --  -15.84835 -11.31435 -11.30556 -11.28048 -11.27991
 Alpha  occ. eigenvalues --  -11.27790 -11.27198 -11.27106 -11.27097 -11.27054
 Alpha  occ. eigenvalues --  -11.27049 -11.26315 -11.26304  -1.59871  -1.58838
 Alpha  occ. eigenvalues --   -1.39425  -1.38379  -1.19622  -1.18780  -1.08974
 Alpha  occ. eigenvalues --   -1.08119  -1.05054  -1.04241  -0.95772  -0.94886
 Alpha  occ. eigenvalues --   -0.86440  -0.85619  -0.82601  -0.81719  -0.77624
 Alpha  occ. eigenvalues --   -0.76685  -0.72055  -0.71248  -0.71039  -0.70721
 Alpha  occ. eigenvalues --   -0.70150  -0.69885  -0.65267  -0.65050  -0.64429
 Alpha  occ. eigenvalues --   -0.64258  -0.62396  -0.61564  -0.55537  -0.54759
 Alpha  occ. eigenvalues --   -0.53380  -0.53142  -0.52555  -0.52336  -0.48818
 Alpha  occ. eigenvalues --   -0.48811  -0.47854  -0.47773  -0.44778  -0.43695
 Alpha  occ. eigenvalues --   -0.37618  -0.36797  -0.36676  -0.35863
 Alpha virt. eigenvalues --    0.04886   0.05856   0.10966   0.11771   0.16327
 Alpha virt. eigenvalues --    0.17265   0.21082   0.21868   0.26942   0.27562
 Alpha virt. eigenvalues --    0.28115   0.28852   0.30659   0.31383   0.32207

 Mulliken charges:
               1
     1  C   -0.171958
     2  C   -0.219564
     3  C   -0.175626
     4  C    0.159690
     5  C   -0.170474
     6  C   -0.218646
     7  H    0.225447
     8  H    0.222775
     9  H    0.274327
    10  H    0.277425
    11  H    0.223967
    12  N    0.486679
    13  O   -0.454889
    14  O   -0.456900
    15  C   -0.172134
    16  C   -0.219200
    17  C   -0.170797
    18  C    0.160778
    19  C   -0.177730
    20  C   -0.219640
    21  H    0.221165
    22  H    0.220606
    23  H    0.275092
    24  H    0.286022
    25  H    0.218189
    26  N    0.488524
    27  O   -0.447983
    28  O   -0.465144
 Sum of Mulliken charges =  -0.00000

 Dipole moment (field-independent basis, Debye):
    X=             -5.2864    Y=              8.3191    Z=             -0.1863  Tot=              9.8584
 Quadrupole moment (field-independent basis, Debye-Ang):
   XX=            -95.0538   YY=           -108.4987   ZZ=            -97.4172
   XY=              6.6013   XZ=              1.8082   YZ=              1.2522

 Normal termination of Gaussian 16 at Wed May  5 16:22:42 2021.
