 Gaussian 16, Revision A.03,
 Gaussian 16:  EM64L-G16RevA.03 25-Dec-2016

 -------------
 #p 6-31g* mp2
 -------------

 ------------------------------------------------------
 Input file generated by CHIRIPA (05-May-2021 14:53:16)
 ------------------------------------------------------
 Symbolic Z-matrix:
 Charge =  0 Multiplicity = 1

                         Standard orientation:
 ---------------------------------------------------------------------
 Center     Atomic      Atomic             Coordinates (Angstroms)
 Number     Number       Type             X           Y           Z
 ---------------------------------------------------------------------
      1          6           0        3.692901   -0.375419   -0.132689
      2          6           0        4.454075   -1.239268    0.873473
      3          6           0        4.442363   -2.723491    0.506405
      4          1           0        2.655197   -0.729881   -0.199566
      5          1           0        4.134382   -0.510995   -1.129739
      6          1           0        4.012167   -1.101042    1.868574
      7          1           0        5.490037   -0.882587    0.938104
      8          1           0        4.901984   -2.881349   -0.474631
      9          1           0        3.415716   -3.101045    0.461126
     10          1           0        4.992155   -3.322580    1.238989
     11          6           0        3.695648    1.110818    0.220611
     12          6           0        2.934474    1.974667   -0.785551
     13          6           0        2.946186    3.458890   -0.418483
     14          1           0        3.254167    1.246394    1.217661
     15          1           0        4.733352    1.465280    0.287488
     16          1           0        1.898512    1.617986   -0.850182
     17          1           0        3.376383    1.836442   -1.780653
     18          1           0        3.972833    3.836445   -0.373204
     19          1           0        2.486565    3.616748    0.562552
     20          1           0        2.396394    4.057980   -1.151067
     21          6           0       -0.918640   -1.726277   -0.685545
     22          6           0       -2.219019   -2.231882   -0.785033
     23          6           0       -3.316665   -1.443513   -0.426988
     24          6           0       -3.076364   -0.148147    0.028611
     25          6           0       -1.792682    0.384105    0.138876
     26          6           0       -0.709989   -0.422196   -0.224721
     27          1           0       -0.071770   -2.345667   -0.965840
     28          1           0       -2.384058   -3.244286   -1.142589
     29          1           0       -4.333891   -1.809784   -0.494176
     30          1           0       -1.659756    1.397141    0.498747
     31          1           0        0.298800   -0.026900   -0.146427
     32          7           0       -4.230477    0.695955    0.410596
     33          8           0       -3.992099    1.833948    0.809074
     34          8           0       -5.351596    0.203587    0.304285
 ---------------------------------------------------------------------

 SCF Done:  E(RHF) =  -669.535114320     A.U. after   15 cycles
 E2 =    -0.2092084982D+01 EUMP2 =    -0.67162719930219D+03

 The electronic state is 1-A.
 Alpha  occ. eigenvalues --  -20.60743 -20.60738 -15.85796 -11.31160 -11.27733
 Alpha  occ. eigenvalues --  -11.27726 -11.27469 -11.26746 -11.26702 -11.22565
 Alpha  occ. eigenvalues --  -11.22523 -11.22459 -11.22310 -11.21935 -11.21755
 Alpha  occ. eigenvalues --   -1.59819  -1.39372  -1.19333  -1.09409  -1.08727
 Alpha  occ. eigenvalues --   -1.04738  -1.04411  -0.96851  -0.95563  -0.87860
 Alpha  occ. eigenvalues --   -0.86143  -0.82400  -0.80479  -0.79246  -0.77443
 Alpha  occ. eigenvalues --   -0.72015  -0.71142  -0.70443  -0.66168  -0.64985
 Alpha  occ. eigenvalues --   -0.64677  -0.62126  -0.61772  -0.60210  -0.58461
 Alpha  occ. eigenvalues --   -0.56149  -0.55236  -0.53511  -0.53268  -0.53064
 Alpha  occ. eigenvalues --   -0.52848  -0.50799  -0.48804  -0.48771  -0.48764
 Alpha  occ. eigenvalues --   -0.47532  -0.46734  -0.46661  -0.44778  -0.44687
 Alpha  occ. eigenvalues --   -0.37313  -0.36338
 Alpha virt. eigenvalues --    0.05088   0.11282   0.16545   0.18506   0.22651
 Alpha virt. eigenvalues --    0.23053   0.24959   0.26312   0.26609   0.27474
 Alpha virt. eigenvalues --    0.29577   0.30680   0.30958   0.31395   0.32018

 Mulliken charges:
               1
     1  C   -0.300905
     2  C   -0.300140
     3  C   -0.475542
     4  H    0.138456
     5  H    0.153245
     6  H    0.154220
     7  H    0.156042
     8  H    0.156630
     9  H    0.150055
    10  H    0.164399
    11  C   -0.300158
    12  C   -0.304214
    13  C   -0.476285
    14  H    0.150564
    15  H    0.154918
    16  H    0.144594
    17  H    0.155935
    18  H    0.158389
    19  H    0.156435
    20  H    0.164167
    21  C   -0.173826
    22  C   -0.218493
    23  C   -0.171161
    24  C    0.158980
    25  C   -0.173233
    26  C   -0.229016
    27  H    0.226027
    28  H    0.223389
    29  H    0.275557
    30  H    0.275582
    31  H    0.238417
    32  N    0.487966
    33  O   -0.460439
    34  O   -0.460553
 Sum of Mulliken charges =  -0.00000

 Dipole moment (field-independent basis, Debye):
    X=              4.3297    Y=             -2.8967    Z=             -1.3285  Tot=              5.3760
 Quadrupole moment (field-independent basis, Debye-Ang):
   XX=           -116.2593   YY=            -92.1082   ZZ=            -95.0541
   XY=             11.7226   XZ=              4.7548   YZ=              0.8574

 Normal termination of Gaussian 16 at Thu May  6 09:03:34 2021.
