 Gaussian 16, Revision A.03,
 Gaussian 16:  EM64L-G16RevA.03 25-Dec-2016

 -------------
 #p 6-31g* mp2
 -------------

 ------------------------------------------------------
 Input file generated by CHIRIPA (05-May-2021 14:53:17)
 ------------------------------------------------------
 Symbolic Z-matrix:
 Charge =  0 Multiplicity = 1

                         Standard orientation:
 ---------------------------------------------------------------------
 Center     Atomic      Atomic             Coordinates (Angstroms)
 Number     Number       Type             X           Y           Z
 ---------------------------------------------------------------------
      1          6           0        3.962866    1.074258    0.000399
      2          6           0        2.563086    1.612247    0.299014
      3          6           0        2.555504    3.114386    0.584169
      4          1           0        4.621396    1.290441    0.852777
      5          1           0        4.379472    1.614088   -0.861238
      6          1           0        2.148695    1.070609    1.158970
      7          1           0        1.907764    1.394588   -0.554094
      8          1           0        2.944264    3.671454   -0.274401
      9          1           0        3.186563    3.345634    1.448397
     10          1           0        1.544933    3.477893    0.795046
     11          6           0        3.986778   -0.425986   -0.286694
     12          6           0        5.386557   -0.963975   -0.585309
     13          6           0        5.394140   -2.466114   -0.870464
     14          1           0        3.570171   -0.965816    0.574943
     15          1           0        3.328248   -0.642169   -1.139072
     16          1           0        6.041879   -0.746317    0.267799
     17          1           0        5.800949   -0.422337   -1.445265
     18          1           0        4.763080   -2.697362   -1.734692
     19          1           0        5.005380   -3.023182   -0.011894
     20          1           0        6.404710   -2.829622   -1.081341
     21          6           0       -1.028340   -0.841728    1.417861
     22          6           0       -1.081981    0.350297    0.687984
     23          6           0       -2.227631    0.686568   -0.039308
     24          6           0       -3.306125   -0.196338   -0.014428
     25          6           0       -3.283182   -1.391326    0.703044
     26          6           0       -2.127173   -1.707209    1.423053
     27          1           0       -0.134348   -1.095032    1.980011
     28          1           0       -0.230119    1.024347    0.682130
     29          1           0       -2.296071    1.602913   -0.612934
     30          1           0       -4.148246   -2.043170    0.689675
     31          1           0       -2.088336   -2.633630    1.988986
     32          7           0       -4.524456    0.148866   -0.780524
     33          8           0       -5.461198   -0.645929   -0.742389
     34          8           0       -4.519575    1.207695   -1.404619
 ---------------------------------------------------------------------

 SCF Done:  E(RHF) =  -669.535121516     A.U. after   15 cycles
 E2 =    -0.2091773948D+01 EUMP2 =    -0.67162689546380D+03

 The electronic state is 1-A.
 Alpha  occ. eigenvalues --  -20.60698 -20.60693 -15.85749 -11.31093 -11.27660
 Alpha  occ. eigenvalues --  -11.27635 -11.27386 -11.26681 -11.26562 -11.22849
 Alpha  occ. eigenvalues --  -11.22312 -11.22258 -11.22182 -11.22108 -11.21632
 Alpha  occ. eigenvalues --   -1.59774  -1.39328  -1.19256  -1.09336  -1.08656
 Alpha  occ. eigenvalues --   -1.04664  -1.04413  -0.96826  -0.95498  -0.87840
 Alpha  occ. eigenvalues --   -0.86061  -0.82335  -0.80547  -0.79144  -0.77369
 Alpha  occ. eigenvalues --   -0.71969  -0.71097  -0.70373  -0.65957  -0.64905
 Alpha  occ. eigenvalues --   -0.64689  -0.62060  -0.61802  -0.60186  -0.58445
 Alpha  occ. eigenvalues --   -0.56082  -0.55154  -0.53538  -0.53248  -0.52987
 Alpha  occ. eigenvalues --   -0.52742  -0.50757  -0.48861  -0.48726  -0.48647
 Alpha  occ. eigenvalues --   -0.47564  -0.46644  -0.46567  -0.44739  -0.44658
 Alpha  occ. eigenvalues --   -0.37238  -0.36253
 Alpha virt. eigenvalues --    0.05144   0.11365   0.16624   0.19836   0.22350
 Alpha virt. eigenvalues --    0.23533   0.24832   0.25807   0.26382   0.28467
 Alpha virt. eigenvalues --    0.29078   0.30058   0.30760   0.31448   0.31931

 Mulliken charges:
               1
     1  C   -0.296934
     2  C   -0.308685
     3  C   -0.477776
     4  H    0.152228
     5  H    0.153991
     6  H    0.143258
     7  H    0.153340
     8  H    0.161320
     9  H    0.159644
    10  H    0.158267
    11  C   -0.298668
    12  C   -0.300398
    13  C   -0.476138
    14  H    0.144863
    15  H    0.152108
    16  H    0.152887
    17  H    0.154243
    18  H    0.156700
    19  H    0.154140
    20  H    0.162640
    21  C   -0.174640
    22  C   -0.226792
    23  C   -0.174392
    24  C    0.159079
    25  C   -0.171640
    26  C   -0.218357
    27  H    0.224902
    28  H    0.241021
    29  H    0.275262
    30  H    0.275149
    31  H    0.222865
    32  N    0.488006
    33  O   -0.460784
    34  O   -0.460706
 Sum of Mulliken charges =  -0.00000

 Dipole moment (field-independent basis, Debye):
    X=              4.5868    Y=             -1.1610    Z=              2.6264  Tot=              5.4115
 Quadrupole moment (field-independent basis, Debye-Ang):
   XX=           -121.9596   YY=            -91.6819   ZZ=            -94.1750
   XY=              5.7000   XZ=             -9.8298   YZ=             -2.4738

 Normal termination of Gaussian 16 at Thu May  6 13:56:06 2021.
