 Gaussian 16, Revision A.03,
 Gaussian 16:  EM64L-G16RevA.03 25-Dec-2016

 -------------
 #p 6-31g* mp2
 -------------

 ------------------------------------------------------
 Input file generated by CHIRIPA (05-May-2021 14:53:14)
 ------------------------------------------------------
 Symbolic Z-matrix:
 Charge =  0 Multiplicity = 1

                         Standard orientation:
 ---------------------------------------------------------------------
 Center     Atomic      Atomic             Coordinates (Angstroms)
 Number     Number       Type             X           Y           Z
 ---------------------------------------------------------------------
      1          6           0        3.726396   -0.454051   -0.083868
      2          6           0        2.748927   -0.407349   -1.258755
      3          6           0        1.322557   -0.783295   -0.856353
      4          1           0        3.720256   -1.463312    0.350069
      5          1           0        3.375052    0.226932    0.703668
      6          1           0        3.102749   -1.087178   -2.044412
      7          1           0        2.757537    0.601865   -1.690065
      8          1           0        0.945668   -0.099070   -0.089286
      9          1           0        1.292842   -1.797710   -0.445646
     10          1           0        0.640469   -0.743332   -1.711349
     11          6           0        5.156424   -0.080700   -0.470336
     12          6           0        6.133893   -0.127403    0.704550
     13          6           0        7.560263    0.248544    0.302148
     14          1           0        5.507769   -0.761683   -1.257873
     15          1           0        5.162564    0.928560   -0.904273
     16          1           0        6.125283   -1.136617    1.135861
     17          1           0        5.780071    0.552426    1.490208
     18          1           0        7.589979    1.262959   -0.108559
     19          1           0        7.937152   -0.435681   -0.464919
     20          1           0        8.242352    0.208580    1.157145
     21          6           0       -1.282414    1.308149    0.826947
     22          6           0       -2.100174    1.874769   -0.156278
     23          6           0       -3.314291    1.274322   -0.502590
     24          6           0       -3.681325    0.102615    0.157469
     25          6           0       -2.888352   -0.486149    1.141259
     26          6           0       -1.678415    0.131573    1.471441
     27          1           0       -0.340883    1.781301    1.089706
     28          1           0       -1.795178    2.788464   -0.658459
     29          1           0       -3.966591    1.691604   -1.260084
     30          1           0       -3.219197   -1.397496    1.624380
     31          1           0       -1.045347   -0.310712    2.235413
     32          7           0       -4.964443   -0.542196   -0.200618
     33          8           0       -5.265167   -1.574022    0.395651
     34          8           0       -5.645132   -0.003562   -1.070775
 ---------------------------------------------------------------------

 SCF Done:  E(RHF) =  -669.534377644     A.U. after   15 cycles
 E2 =    -0.2092220331D+01 EUMP2 =    -0.67162659797491D+03

 The electronic state is 1-A.
 Alpha  occ. eigenvalues --  -20.60751 -20.60745 -15.85805 -11.31171 -11.27754
 Alpha  occ. eigenvalues --  -11.27741 -11.27505 -11.26764 -11.26751 -11.22148
 Alpha  occ. eigenvalues --  -11.22069 -11.21999 -11.21876 -11.21567 -11.21466
 Alpha  occ. eigenvalues --   -1.59827  -1.39380  -1.19356  -1.08972  -1.08759
 Alpha  occ. eigenvalues --   -1.04758  -1.04035  -0.96489  -0.95590  -0.87500
 Alpha  occ. eigenvalues --   -0.86160  -0.82421  -0.80100  -0.78788  -0.77456
 Alpha  occ. eigenvalues --   -0.72025  -0.71150  -0.70506  -0.65609  -0.65014
 Alpha  occ. eigenvalues --   -0.64765  -0.62105  -0.61449  -0.59842  -0.58100
 Alpha  occ. eigenvalues --   -0.55879  -0.55245  -0.53384  -0.53049  -0.52854
 Alpha  occ. eigenvalues --   -0.52722  -0.50406  -0.48783  -0.48778  -0.48414
 Alpha  occ. eigenvalues --   -0.47145  -0.46325  -0.46260  -0.44786  -0.44289
 Alpha  occ. eigenvalues --   -0.37244  -0.36349
 Alpha virt. eigenvalues --    0.05051   0.11247   0.16472   0.20585   0.22539
 Alpha virt. eigenvalues --    0.23957   0.25902   0.26695   0.27209   0.27640
 Alpha virt. eigenvalues --    0.28713   0.30581   0.31231   0.31520   0.32146

 Mulliken charges:
               1
     1  C   -0.297245
     2  C   -0.300665
     3  C   -0.475193
     4  H    0.150902
     5  H    0.142942
     6  H    0.154775
     7  H    0.149776
     8  H    0.148761
     9  H    0.155410
    10  H    0.164244
    11  C   -0.298324
    12  C   -0.299767
    13  C   -0.475928
    14  H    0.151611
    15  H    0.149331
    16  H    0.152696
    17  H    0.150436
    18  H    0.155279
    19  H    0.156354
    20  H    0.161220
    21  C   -0.169351
    22  C   -0.219194
    23  C   -0.171131
    24  C    0.158457
    25  C   -0.171143
    26  C   -0.214749
    27  H    0.224923
    28  H    0.223303
    29  H    0.275577
    30  H    0.275651
    31  H    0.223985
    32  N    0.488089
    33  O   -0.460445
    34  O   -0.460582
 Sum of Mulliken charges =  -0.00000

 Dipole moment (field-independent basis, Debye):
    X=              4.5622    Y=              2.2358    Z=              1.2257  Tot=              5.2264
 Quadrupole moment (field-independent basis, Debye-Ang):
   XX=           -129.5318   YY=            -91.1227   ZZ=            -92.5062
   XY=             -9.2395   XZ=             -3.2684   YZ=             -2.0679

 Normal termination of Gaussian 16 at Wed May  5 15:35:06 2021.
