 Gaussian 16, Revision A.03,
 Gaussian 16:  EM64L-G16RevA.03 25-Dec-2016

 -------------
 #p 6-31g* mp2
 -------------

 ------------------------------------------------------
 Input file generated by CHIRIPA (05-May-2021 14:53:17)
 ------------------------------------------------------
 Symbolic Z-matrix:
 Charge =  0 Multiplicity = 1

                         Standard orientation:
 ---------------------------------------------------------------------
 Center     Atomic      Atomic             Coordinates (Angstroms)
 Number     Number       Type             X           Y           Z
 ---------------------------------------------------------------------
      1          6           0        3.137522   -0.056156    0.344692
      2          6           0        3.877450   -1.196889   -0.354751
      3          6           0        3.930421   -2.471601    0.487922
      4          1           0        3.628442    0.156983    1.304127
      5          1           0        2.115532   -0.382523    0.582212
      6          1           0        4.897302   -0.867990   -0.592120
      7          1           0        3.384827   -1.407208   -1.312720
      8          1           0        2.919620   -2.826526    0.713556
      9          1           0        4.440689   -2.284244    1.438251
     10          1           0        4.463799   -3.274090   -0.031096
     11          6           0        3.076186    1.224950   -0.485207
     12          6           0        2.336259    2.365683    0.214236
     13          6           0        2.283287    3.640395   -0.628437
     14          1           0        4.098176    1.551317   -0.722727
     15          1           0        2.585267    1.011811   -1.444642
     16          1           0        2.828881    2.576002    1.172205
     17          1           0        1.316407    2.036785    0.451605
     18          1           0        1.773020    3.453038   -1.578766
     19          1           0        3.294088    3.995320   -0.854071
     20          1           0        1.749910    4.442884   -0.109419
     21          6           0       -0.577453   -2.164422   -0.110812
     22          6           0       -1.587321   -2.130231   -1.078034
     23          6           0       -2.617176   -1.188287   -0.996262
     24          6           0       -2.606059   -0.291450    0.070908
     25          6           0       -1.613997   -0.300301    1.050206
     26          6           0       -0.593985   -1.250959    0.948353
     27          1           0        0.218740   -2.899531   -0.182135
     28          1           0       -1.577034   -2.838412   -1.901697
     29          1           0       -3.411419   -1.139569   -1.731261
     30          1           0       -1.651139    0.418580    1.859680
     31          1           0        0.188987   -1.275180    1.700957
     32          7           0       -3.691111    0.710356    0.168106
     33          8           0       -3.658618    1.489551    1.118072
     34          8           0       -4.553522    0.697408   -0.707518
 ---------------------------------------------------------------------

 SCF Done:  E(RHF) =  -669.535109727     A.U. after   15 cycles
 E2 =    -0.2093158831D+01 EUMP2 =    -0.67162826855802D+03

 The electronic state is 1-A.
 Alpha  occ. eigenvalues --  -20.60824 -20.60819 -15.85878 -11.31277 -11.27845
 Alpha  occ. eigenvalues --  -11.27841 -11.27585 -11.26862 -11.26843 -11.22387
 Alpha  occ. eigenvalues --  -11.22092 -11.22033 -11.21924 -11.21816 -11.21234
 Alpha  occ. eigenvalues --   -1.59899  -1.39451  -1.19454  -1.09022  -1.08831
 Alpha  occ. eigenvalues --   -1.04860  -1.04099  -0.96554  -0.95668  -0.87572
 Alpha  occ. eigenvalues --   -0.86259  -0.82499  -0.80182  -0.78817  -0.77535
 Alpha  occ. eigenvalues --   -0.72096  -0.71222  -0.70555  -0.65731  -0.65098
 Alpha  occ. eigenvalues --   -0.64807  -0.62207  -0.61490  -0.59943  -0.58154
 Alpha  occ. eigenvalues --   -0.55929  -0.55297  -0.53269  -0.53178  -0.53031
 Alpha  occ. eigenvalues --   -0.52878  -0.50507  -0.48862  -0.48849  -0.48485
 Alpha  occ. eigenvalues --   -0.47218  -0.46337  -0.46235  -0.44849  -0.44333
 Alpha  occ. eigenvalues --   -0.37403  -0.36421
 Alpha virt. eigenvalues --    0.04968   0.11033   0.16392   0.19011   0.22878
 Alpha virt. eigenvalues --    0.23615   0.25529   0.26315   0.26631   0.28235
 Alpha virt. eigenvalues --    0.29204   0.29919   0.31144   0.31413   0.31816

 Mulliken charges:
               1
     1  C   -0.305375
     2  C   -0.300184
     3  C   -0.476097
     4  H    0.149726
     5  H    0.148628
     6  H    0.156183
     7  H    0.151225
     8  H    0.142703
     9  H    0.159171
    10  H    0.163736
    11  C   -0.297344
    12  C   -0.301126
    13  C   -0.476122
    14  H    0.150833
    15  H    0.151178
    16  H    0.151391
    17  H    0.151695
    18  H    0.156784
    19  H    0.155042
    20  H    0.163603
    21  C   -0.173215
    22  C   -0.218674
    23  C   -0.170485
    24  C    0.158369
    25  C   -0.173150
    26  C   -0.218309
    27  H    0.229228
    28  H    0.224087
    29  H    0.275987
    30  H    0.276484
    31  H    0.226111
    32  N    0.488075
    33  O   -0.460014
    34  O   -0.460147
 Sum of Mulliken charges =  -0.00000

 Dipole moment (field-independent basis, Debye):
    X=              3.8464    Y=             -3.4502    Z=             -0.3961  Tot=              5.1823
 Quadrupole moment (field-independent basis, Debye-Ang):
   XX=           -113.3317   YY=            -93.3975   ZZ=            -91.5887
   XY=              9.4797   XZ=              3.3791   YZ=              2.2713

 Normal termination of Gaussian 16 at Thu May  6 13:55:44 2021.
