 Gaussian 16, Revision A.03,
 Gaussian 16:  EM64L-G16RevA.03 25-Dec-2016

 -------------
 #p 6-31g* mp2
 -------------

 ------------------------------------------------------
 Input file generated by CHIRIPA (05-May-2021 14:57:24)
 ------------------------------------------------------
 Symbolic Z-matrix:
 Charge =  0 Multiplicity = 1

                         Standard orientation:
 ---------------------------------------------------------------------
 Center     Atomic      Atomic             Coordinates (Angstroms)
 Number     Number       Type             X           Y           Z
 ---------------------------------------------------------------------
      1          6           0       -2.757439   -2.010752    1.418294
      2          6           0       -2.132756   -0.866927    1.926187
      3          6           0       -2.222097    0.351741    1.246911
      4          6           0       -2.947464    0.390785    0.057117
      5          6           0       -3.580943   -0.731449   -0.474471
      6          6           0       -3.478268   -1.939488    0.221695
      7          1           0       -2.682858   -2.953314    1.952532
      8          1           0       -1.572286   -0.919315    2.855259
      9          1           0       -1.748275    1.252594    1.617550
     10          1           0       -4.132643   -0.648080   -1.402962
     11          1           0       -3.964431   -2.826190   -0.175106
     12          7           0       -3.049103    1.675307   -0.670943
     13          8           0       -3.694065    1.683411   -1.717172
     14          8           0       -2.481882    2.649690   -0.181581
     15          6           0        4.817832    1.233122    0.723106
     16          6           0        3.499559    1.498760    1.107959
     17          6           0        2.446059    0.722795    0.615451
     18          6           0        2.748273   -0.315606   -0.264140
     19          6           0        4.051235   -0.605111   -0.666342
     20          6           0        5.088985    0.183884   -0.161257
     21          1           0        5.630099    1.840971    1.110582
     22          1           0        3.286013    2.312966    1.794626
     23          1           0        1.416261    0.906524    0.896835
     24          1           0        4.232865   -1.423555   -1.352329
     25          1           0        6.111806   -0.024712   -0.461875
     26          7           0        1.641316   -1.143982   -0.792193
     27          8           0        1.933943   -2.053072   -1.565861
     28          8           0        0.502016   -0.868489   -0.422414
 ---------------------------------------------------------------------

 SCF Done:  E(RHF) =  -868.337764907     A.U. after   16 cycles
 E2 =    -0.2600750004D+01 EUMP2 =    -0.87093851491091D+03

 The electronic state is 1-A.
 Alpha  occ. eigenvalues --  -20.60950 -20.60944 -20.60040 -20.60010 -15.85987
 Alpha  occ. eigenvalues --  -15.85073 -11.31321 -11.30171 -11.27898 -11.27876
 Alpha  occ. eigenvalues --  -11.27607 -11.26885 -11.26875 -11.26828 -11.26722
 Alpha  occ. eigenvalues --  -11.26474 -11.25786 -11.25711  -1.60025  -1.59099
 Alpha  occ. eigenvalues --   -1.39581  -1.38667  -1.19486  -1.18318  -1.08887
 Alpha  occ. eigenvalues --   -1.07781  -1.04884  -1.03741  -0.95732  -0.94673
 Alpha  occ. eigenvalues --   -0.86284  -0.85177  -0.82567  -0.81547  -0.77625
 Alpha  occ. eigenvalues --   -0.76618  -0.72233  -0.71344  -0.71319  -0.70598
 Alpha  occ. eigenvalues --   -0.70389  -0.69534  -0.65142  -0.64887  -0.64038
 Alpha  occ. eigenvalues --   -0.63822  -0.62240  -0.61159  -0.55383  -0.54299
 Alpha  occ. eigenvalues --   -0.53212  -0.52977  -0.51956  -0.51909  -0.48984
 Alpha  occ. eigenvalues --   -0.48953  -0.48080  -0.48042  -0.45003  -0.44137
 Alpha  occ. eigenvalues --   -0.37463  -0.36484  -0.36229  -0.35236
 Alpha virt. eigenvalues --    0.04900   0.05941   0.11171   0.12330   0.16405
 Alpha virt. eigenvalues --    0.17503   0.20928   0.22236   0.26203   0.27639
 Alpha virt. eigenvalues --    0.28549   0.29321   0.30907   0.31573   0.32314

 Mulliken charges:
               1
     1  C   -0.165267
     2  C   -0.209339
     3  C   -0.162767
     4  C    0.165734
     5  C   -0.166953
     6  C   -0.213966
     7  H    0.221940
     8  H    0.215240
     9  H    0.263476
    10  H    0.272914
    11  H    0.220749
    12  N    0.488492
    13  O   -0.461501
    14  O   -0.468246
    15  C   -0.170490
    16  C   -0.218374
    17  C   -0.169745
    18  C    0.158015
    19  C   -0.170834
    20  C   -0.218464
    21  H    0.226383
    22  H    0.224558
    23  H    0.272602
    24  H    0.275576
    25  H    0.223900
    26  N    0.490998
    27  O   -0.460911
    28  O   -0.463719
 Sum of Mulliken charges =  -0.00000

 Dipole moment (field-independent basis, Debye):
    X=              4.3853    Y=             -1.7639    Z=              4.3204  Tot=              6.4038
 Quadrupole moment (field-independent basis, Debye-Ang):
   XX=            -82.7201   YY=           -109.0363   ZZ=           -102.9259
   XY=             20.4506   XZ=             -2.9167   YZ=              2.8649

 Normal termination of Gaussian 16 at Thu May  6 19:39:10 2021.
