 Gaussian 16, Revision A.03,
 Gaussian 16:  EM64L-G16RevA.03 25-Dec-2016

 -------------
 #p 6-31g* mp2
 -------------

 ------------------------------------------------------
 Input file generated by CHIRIPA (05-May-2021 14:51:14)
 ------------------------------------------------------
 Symbolic Z-matrix:
 Charge =  0 Multiplicity = 1

                         Standard orientation:
 ---------------------------------------------------------------------
 Center     Atomic      Atomic             Coordinates (Angstroms)
 Number     Number       Type             X           Y           Z
 ---------------------------------------------------------------------
      1          6           0       -2.121985    1.044056    0.519024
      2          6           0       -1.589466    2.457428    0.280716
      3          6           0       -0.823211    3.010894    1.482515
      4          1           0       -2.775935    1.049469    1.401784
      5          1           0       -1.280975    0.378171    0.757131
      6          1           0       -2.431076    3.120161    0.041770
      7          1           0       -0.936860    2.448688   -0.601693
      8          1           0        0.034640    2.373235    1.719334
      9          1           0       -1.468065    3.048522    2.366454
     10          1           0       -0.451434    4.022214    1.290491
     11          6           0       -2.890292    0.477077   -0.673438
     12          6           0       -3.422811   -0.936294   -0.435129
     13          6           0       -4.189066   -1.489760   -1.636928
     14          1           0       -3.731302    1.142962   -0.911545
     15          1           0       -2.236342    0.471664   -1.556198
     16          1           0       -4.075417   -0.927554    0.447280
     17          1           0       -2.581201   -1.599027   -0.196184
     18          1           0       -3.544212   -1.527389   -2.520867
     19          1           0       -5.046917   -0.852101   -1.873748
     20          1           0       -4.560843   -2.501081   -1.444905
     21          6           0        1.796315   -1.032789    0.151215
     22          6           0        1.630611   -1.978604    1.341157
     23          6           0        0.205133   -2.514909    1.475993
     24          1           0        1.095745   -0.193287    0.257915
     25          1           0        1.513520   -1.560734   -0.770032
     26          1           0        1.914954   -1.449461    2.259729
     27          1           0        2.331790   -2.815852    1.231710
     28          1           0       -0.085657   -3.066534    0.576131
     29          1           0       -0.504861   -1.692379    1.609990
     30          1           0        0.109157   -3.188920    2.332940
     31          6           0        3.215962   -0.488345    0.003198
     32          6           0        3.381666    0.457470   -1.186744
     33          6           0        4.807144    0.993776   -1.321580
     34          1           0        3.498757    0.039600    0.924445
     35          1           0        3.916530   -1.327847   -0.103501
     36          1           0        2.680486    1.294719   -1.077297
     37          1           0        3.097322   -0.071673   -2.105315
     38          1           0        5.517138    0.171245   -1.455577
     39          1           0        5.097933    1.545401   -0.421717
     40          1           0        4.903120    1.667787   -2.178527
 ---------------------------------------------------------------------

 SCF Done:  E(RHF) =  -470.732723345     A.U. after   11 cycles
 E2 =    -0.1584534710D+01 EUMP2 =    -0.47231725805570D+03

 The electronic state is 1-A.
 Alpha  occ. eigenvalues --  -11.21664 -11.21653 -11.21631 -11.21520 -11.21478
 Alpha  occ. eigenvalues --  -11.21415 -11.21383 -11.21320 -11.21131 -11.21105
 Alpha  occ. eigenvalues --  -11.21100 -11.21027  -1.08514  -1.08408  -1.03588
 Alpha  occ. eigenvalues --   -1.03522  -0.96039  -0.95976  -0.87056  -0.86992
 Alpha  occ. eigenvalues --   -0.79666  -0.79584  -0.78415  -0.78142  -0.65320
 Alpha  occ. eigenvalues --   -0.64895  -0.61024  -0.60889  -0.59407  -0.59346
 Alpha  occ. eigenvalues --   -0.57668  -0.57572  -0.55381  -0.55220  -0.52723
 Alpha  occ. eigenvalues --   -0.52688  -0.52462  -0.52404  -0.50003  -0.49915
 Alpha  occ. eigenvalues --   -0.48062  -0.47911  -0.46879  -0.46555  -0.46204
 Alpha  occ. eigenvalues --   -0.45787  -0.45743  -0.45038  -0.43841  -0.43771
 Alpha virt. eigenvalues --    0.19734   0.22693   0.23767   0.24105   0.25869
 Alpha virt. eigenvalues --    0.26593   0.26817   0.27800   0.28290   0.30017
 Alpha virt. eigenvalues --    0.30752   0.31597   0.31701   0.31916   0.32057

 Mulliken charges:
               1
     1  C   -0.310157
     2  C   -0.299304
     3  C   -0.476652
     4  H    0.149422
     5  H    0.160294
     6  H    0.152434
     7  H    0.152000
     8  H    0.154295
     9  H    0.155623
    10  H    0.160577
    11  C   -0.297439
    12  C   -0.304573
    13  C   -0.475625
    14  H    0.149317
    15  H    0.149728
    16  H    0.151358
    17  H    0.157974
    18  H    0.154878
    19  H    0.154919
    20  H    0.160154
    21  C   -0.305211
    22  C   -0.299681
    23  C   -0.483788
    24  H    0.154939
    25  H    0.149425
    26  H    0.151997
    27  H    0.152348
    28  H    0.155299
    29  H    0.163201
    30  H    0.160965
    31  C   -0.297816
    32  C   -0.299927
    33  C   -0.475751
    34  H    0.149721
    35  H    0.150079
    36  H    0.151910
    37  H    0.151897
    38  H    0.155295
    39  H    0.155448
    40  H    0.160428
 Sum of Mulliken charges =  -0.00000

 Dipole moment (field-independent basis, Debye):
    X=              0.0226    Y=             -0.0165    Z=              0.0114  Tot=              0.0302
 Quadrupole moment (field-independent basis, Debye-Ang):
   XX=            -85.3019   YY=            -84.5014   ZZ=            -84.9479
   XY=             -1.3136   XZ=             -0.7452   YZ=              0.2889

 Normal termination of Gaussian 16 at Wed May  5 20:02:20 2021.
