 Gaussian 16, Revision A.03,
 Gaussian 16:  EM64L-G16RevA.03 25-Dec-2016

 -------------
 #p 6-31g* mp2
 -------------

 ------------------------------------------------------
 Input file generated by CHIRIPA (05-May-2021 14:53:15)
 ------------------------------------------------------
 Symbolic Z-matrix:
 Charge =  0 Multiplicity = 1

                         Standard orientation:
 ---------------------------------------------------------------------
 Center     Atomic      Atomic             Coordinates (Angstroms)
 Number     Number       Type             X           Y           Z
 ---------------------------------------------------------------------
      1          6           0       -3.300130    0.857486   -0.261764
      2          6           0       -3.297225    2.275643    0.309906
      3          6           0       -2.183817    3.145997   -0.273705
      4          1           0       -2.325940    0.388478   -0.067006
      5          1           0       -3.408942    0.910112   -1.353912
      6          1           0       -3.189840    2.220305    1.400788
      7          1           0       -4.271601    2.741262    0.113933
      8          1           0       -2.290568    3.230923   -1.359980
      9          1           0       -1.202661    2.707005   -0.065813
     10          1           0       -2.200207    4.155511    0.148755
     11          6           0       -4.407503   -0.024710    0.311980
     12          6           0       -4.410408   -1.442866   -0.259691
     13          6           0       -5.523815   -2.313220    0.323921
     14          1           0       -4.298690   -0.077335    1.404127
     15          1           0       -5.381692    0.444299    0.117222
     16          1           0       -3.436031   -1.908486   -0.063717
     17          1           0       -4.517793   -1.387528   -1.350572
     18          1           0       -6.504971   -1.874228    0.116029
     19          1           0       -5.417064   -2.398146    1.410195
     20          1           0       -5.507425   -3.322735   -0.098539
     21          6           0        5.404109    0.435524    0.223502
     22          6           0        4.371357    1.377742    0.176953
     23          6           0        3.041602    0.967607    0.042451
     24          6           0        2.779417   -0.398858   -0.043119
     25          6           0        3.786418   -1.361853    0.000237
     26          6           0        5.108865   -0.928861    0.135152
     27          1           0        6.434257    0.763004    0.328147
     28          1           0        4.597690    2.437997    0.245339
     29          1           0        2.222707    1.675654    0.003746
     30          1           0        3.529636   -2.411853   -0.070328
     31          1           0        5.908883   -1.662843    0.171024
     32          7           0        1.375534   -0.845147   -0.185729
     33          8           0        1.170857   -2.054842   -0.259097
     34          8           0        0.506430    0.023196   -0.221437
 ---------------------------------------------------------------------

 SCF Done:  E(RHF) =  -669.536494548     A.U. after   15 cycles
 E2 =    -0.2091444654D+01 EUMP2 =    -0.67162793920176D+03

 The electronic state is 1-A.
 Alpha  occ. eigenvalues --  -20.61068 -20.61053 -15.86088 -11.31357 -11.27913
 Alpha  occ. eigenvalues --  -11.27910 -11.27642 -11.26910 -11.26900 -11.20488
 Alpha  occ. eigenvalues --  -11.20377 -11.20159 -11.20102 -11.20076 -11.19788
 Alpha  occ. eigenvalues --   -1.60117  -1.39675  -1.19520  -1.08934  -1.07163
 Alpha  occ. eigenvalues --   -1.04908  -1.02400  -0.95784  -0.94853  -0.86312
 Alpha  occ. eigenvalues --   -0.85881  -0.82622  -0.78460  -0.77680  -0.76931
 Alpha  occ. eigenvalues --   -0.72311  -0.71425  -0.70629  -0.65179  -0.64911
 Alpha  occ. eigenvalues --   -0.63784  -0.62256  -0.59801  -0.58224  -0.56462
 Alpha  occ. eigenvalues --   -0.55415  -0.54142  -0.53243  -0.52999  -0.51615
 Alpha  occ. eigenvalues --   -0.51290  -0.49153  -0.49064  -0.48716  -0.46776
 Alpha  occ. eigenvalues --   -0.45470  -0.45100  -0.44517  -0.44286  -0.42609
 Alpha  occ. eigenvalues --   -0.37497  -0.36507
 Alpha virt. eigenvalues --    0.04851   0.11149   0.16360   0.21065   0.24037
 Alpha virt. eigenvalues --    0.25005   0.26691   0.27488   0.28099   0.29111
 Alpha virt. eigenvalues --    0.29165   0.30592   0.31639   0.32631   0.32881

 Mulliken charges:
               1
     1  C   -0.311573
     2  C   -0.297014
     3  C   -0.478528
     4  H    0.182284
     5  H    0.144630
     6  H    0.148388
     7  H    0.146271
     8  H    0.152550
     9  H    0.163713
    10  H    0.152019
    11  C   -0.296982
    12  C   -0.300820
    13  C   -0.474955
    14  H    0.146392
    15  H    0.143560
    16  H    0.162233
    17  H    0.149646
    18  H    0.151565
    19  H    0.153224
    20  H    0.158103
    21  C   -0.170389
    22  C   -0.218688
    23  C   -0.170897
    24  C    0.157316
    25  C   -0.170331
    26  C   -0.218651
    27  H    0.226262
    28  H    0.224299
    29  H    0.276371
    30  H    0.275947
    31  H    0.224023
    32  N    0.493895
    33  O   -0.458535
    34  O   -0.465328
 Sum of Mulliken charges =  -0.00000

 Dipole moment (field-independent basis, Debye):
    X=              5.3806    Y=              1.3977    Z=              0.4835  Tot=              5.5802
 Quadrupole moment (field-independent basis, Debye-Ang):
   XX=            -69.0428   YY=            -92.7664   ZZ=            -95.4099
   XY=              0.4310   XZ=              2.0117   YZ=             -0.1300

 Normal termination of Gaussian 16 at Wed May  5 21:53:59 2021.
