 Gaussian 16, Revision A.03,
 Gaussian 16:  EM64L-G16RevA.03 25-Dec-2016

 -------------
 #p 6-31g* mp2
 -------------

 ------------------------------------------------------
 Input file generated by CHIRIPA (05-May-2021 14:51:10)
 ------------------------------------------------------
 Symbolic Z-matrix:
 Charge =  0 Multiplicity = 1

                         Standard orientation:
 ---------------------------------------------------------------------
 Center     Atomic      Atomic             Coordinates (Angstroms)
 Number     Number       Type             X           Y           Z
 ---------------------------------------------------------------------
      1          6           0       -4.141303    0.645748   -0.493141
      2          6           0       -2.798404    1.006425    0.142878
      3          6           0       -2.072137    2.125556   -0.604032
      4          1           0       -3.976497    0.345095   -1.536881
      5          1           0       -4.777471    1.541193   -0.522527
      6          1           0       -2.165469    0.110243    0.172316
      7          1           0       -2.966404    1.306070    1.185282
      8          1           0       -2.681053    3.035231   -0.621719
      9          1           0       -1.875568    1.832609   -1.640441
     10          1           0       -1.114569    2.367397   -0.132398
     11          6           0       -4.879318   -0.471502    0.242260
     12          6           0       -6.222216   -0.832179   -0.393760
     13          6           0       -6.948484   -1.951310    0.353150
     14          1           0       -4.243149   -1.366947    0.271645
     15          1           0       -5.044123   -0.170849    1.285999
     16          1           0       -6.054216   -1.131825   -1.436164
     17          1           0       -6.855151    0.064003   -0.423198
     18          1           0       -7.145052   -1.658363    1.389559
     19          1           0       -6.339567   -2.860985    0.370838
     20          1           0       -7.906051   -2.193151   -0.118483
     21          6           0        4.968698   -0.651924   -0.107610
     22          6           0        6.453417   -0.291139   -0.049051
     23          6           0        7.357756   -1.431173   -0.518396
     24          1           0        4.789568   -1.542221    0.510636
     25          1           0        4.706192   -0.928947   -1.138020
     26          1           0        6.712730   -0.013545    0.980664
     27          1           0        6.628999    0.598516   -0.667355
     28          1           0        7.127609   -1.704348   -1.553292
     29          1           0        7.211815   -2.319886    0.104093
     30          1           0        8.414767   -1.151743   -0.468321
     31          6           0        4.051922    0.477678    0.358492
     32          6           0        2.567204    0.116893    0.299932
     33          6           0        1.662863    1.256927    0.769278
     34          1           0        4.314428    0.754701    1.388901
     35          1           0        4.231053    1.367975   -0.259755
     36          1           0        2.391620   -0.772762    0.918237
     37          1           0        2.307891   -0.160701   -0.729783
     38          1           0        1.808805    2.145640    0.146789
     39          1           0        1.893010    1.530102    1.804174
     40          1           0        0.605853    0.977497    0.719203
 ---------------------------------------------------------------------

 SCF Done:  E(RHF) =  -470.733039071     A.U. after   11 cycles
 E2 =    -0.1582483946D+01 EUMP2 =    -0.47231552301704D+03

 The electronic state is 1-A.
 Alpha  occ. eigenvalues --  -11.21608 -11.21603 -11.21594 -11.21594 -11.21407
 Alpha  occ. eigenvalues --  -11.21395 -11.21348 -11.21336 -11.21073 -11.21065
 Alpha  occ. eigenvalues --  -11.21057 -11.20966  -1.08436  -1.08415  -1.03555
 Alpha  occ. eigenvalues --   -1.03492  -0.96035  -0.95909  -0.87067  -0.86912
 Alpha  occ. eigenvalues --   -0.79618  -0.79558  -0.78246  -0.78233  -0.65065
 Alpha  occ. eigenvalues --   -0.65048  -0.60947  -0.60905  -0.59681  -0.59094
 Alpha  occ. eigenvalues --   -0.57746  -0.57394  -0.55286  -0.55225  -0.52980
 Alpha  occ. eigenvalues --   -0.52507  -0.52426  -0.52152  -0.49932  -0.49881
 Alpha  occ. eigenvalues --   -0.47922  -0.47879  -0.46631  -0.46608  -0.45791
 Alpha  occ. eigenvalues --   -0.45770  -0.45712  -0.45699  -0.43905  -0.43615
 Alpha virt. eigenvalues --    0.21905   0.23021   0.23436   0.25040   0.26534
 Alpha virt. eigenvalues --    0.26620   0.26953   0.27362   0.27680   0.28869
 Alpha virt. eigenvalues --    0.30494   0.30878   0.31416   0.31641   0.32280

 Mulliken charges:
               1
     1  C   -0.298192
     2  C   -0.301046
     3  C   -0.481575
     4  H    0.149650
     5  H    0.149730
     6  H    0.151760
     7  H    0.152119
     8  H    0.154818
     9  H    0.154497
    10  H    0.167407
    11  C   -0.298323
    12  C   -0.299648
    13  C   -0.475699
    14  H    0.149458
    15  H    0.149644
    16  H    0.151923
    17  H    0.151940
    18  H    0.155173
    19  H    0.155161
    20  H    0.160232
    21  C   -0.298276
    22  C   -0.299639
    23  C   -0.475703
    24  H    0.149615
    25  H    0.149501
    26  H    0.151939
    27  H    0.151977
    28  H    0.155172
    29  H    0.155165
    30  H    0.160269
    31  C   -0.298590
    32  C   -0.299415
    33  C   -0.482204
    34  H    0.149545
    35  H    0.149768
    36  H    0.151816
    37  H    0.152031
    38  H    0.155343
    39  H    0.155132
    40  H    0.167524
 Sum of Mulliken charges =  -0.00000

 Dipole moment (field-independent basis, Debye):
    X=              0.0145    Y=              0.0049    Z=              0.0080  Tot=              0.0173
 Quadrupole moment (field-independent basis, Debye-Ang):
   XX=            -85.6903   YY=            -85.3499   ZZ=            -83.7966
   XY=             -0.2783   XZ=              0.2603   YZ=              0.2064

 Normal termination of Gaussian 16 at Thu May  6 02:12:05 2021.
