 Gaussian 16, Revision A.03,
 Gaussian 16:  EM64L-G16RevA.03 25-Dec-2016

 -------------
 #p 6-31g* mp2
 -------------

 ------------------------------------------------------
 Input file generated by CHIRIPA (05-May-2021 14:55:25)
 ------------------------------------------------------
 Symbolic Z-matrix:
 Charge =  0 Multiplicity = 1

                         Standard orientation:
 ---------------------------------------------------------------------
 Center     Atomic      Atomic             Coordinates (Angstroms)
 Number     Number       Type             X           Y           Z
 ---------------------------------------------------------------------
      1          6           0        1.114937   -1.826661    0.326585
      2          6           0        0.856680   -0.705739   -0.469253
      3          6           0        1.837201    0.273012   -0.656798
      4          6           0        3.070407    0.098103   -0.030780
      5          6           0        3.358034   -1.007538    0.768044
      6          6           0        2.362591   -1.973724    0.941609
      7          1           0        0.347449   -2.582098    0.466845
      8          1           0       -0.111352   -0.588903   -0.948114
      9          1           0        1.664018    1.150641   -1.267693
     10          1           0        4.332627   -1.096341    1.232480
     11          1           0        2.565961   -2.843214    1.560214
     12          7           0        4.116340    1.127612   -0.221926
     13          8           0        5.194682    0.950160    0.340502
     14          8           0        3.837994    2.092498   -0.930555
     15          6           0       -4.212380    0.662709    0.065142
     16          6           0       -3.561931    2.009933    0.381192
     17          6           0       -4.580909    3.142541    0.510336
     18          1           0       -4.786280    0.749649   -0.867609
     19          1           0       -4.935570    0.418194    0.855462
     20          1           0       -2.839177    2.251178   -0.408772
     21          1           0       -2.989356    1.919721    1.313199
     22          1           0       -5.295854    2.928058    1.311243
     23          1           0       -5.144821    3.261398   -0.420511
     24          1           0       -4.094339    4.096484    0.736393
     25          6           0       -3.206564   -0.479483   -0.066993
     26          6           0       -3.857013   -1.826707   -0.383044
     27          6           0       -2.838035   -2.959315   -0.512187
     28          1           0       -2.483373   -0.234968   -0.857312
     29          1           0       -2.632663   -0.566424    0.865758
     30          1           0       -4.429587   -1.736496   -1.315050
     31          1           0       -4.579767   -2.067952    0.406921
     32          1           0       -2.274123   -3.078172    0.418661
     33          1           0       -2.123091   -2.744832   -1.313094
     34          1           0       -3.324605   -3.913258   -0.738243
 ---------------------------------------------------------------------

 SCF Done:  E(RHF) =  -669.535370495     A.U. after   15 cycles
 E2 =    -0.2092188155D+01 EUMP2 =    -0.67162755864964D+03

 The electronic state is 1-A.
 Alpha  occ. eigenvalues --  -20.60682 -20.60677 -15.85734 -11.31072 -11.27640
 Alpha  occ. eigenvalues --  -11.27625 -11.27327 -11.26646 -11.26579 -11.22679
 Alpha  occ. eigenvalues --  -11.22505 -11.22421 -11.22234 -11.22154 -11.21530
 Alpha  occ. eigenvalues --   -1.59759  -1.39313  -1.19235  -1.09364  -1.08629
 Alpha  occ. eigenvalues --   -1.04637  -1.04414  -0.96895  -0.95472  -0.87911
 Alpha  occ. eigenvalues --   -0.86036  -0.82309  -0.80512  -0.79167  -0.77358
 Alpha  occ. eigenvalues --   -0.71953  -0.71082  -0.70338  -0.66007  -0.64883
 Alpha  occ. eigenvalues --   -0.64638  -0.62020  -0.61782  -0.60264  -0.58503
 Alpha  occ. eigenvalues --   -0.56204  -0.55145  -0.53550  -0.53312  -0.52960
 Alpha  occ. eigenvalues --   -0.52727  -0.50839  -0.48811  -0.48711  -0.48700
 Alpha  occ. eigenvalues --   -0.47526  -0.46663  -0.46576  -0.44725  -0.44669
 Alpha  occ. eigenvalues --   -0.37206  -0.36238
 Alpha virt. eigenvalues --    0.05164   0.11371   0.16652   0.19237   0.22479
 Alpha virt. eigenvalues --    0.23660   0.23970   0.25770   0.26600   0.28486
 Alpha virt. eigenvalues --    0.29273   0.30196   0.30897   0.31382   0.31863

 Mulliken charges:
               1
     1  C   -0.177304
     2  C   -0.224014
     3  C   -0.173098
     4  C    0.158639
     5  C   -0.171216
     6  C   -0.219244
     7  H    0.231362
     8  H    0.232141
     9  H    0.275117
    10  H    0.275014
    11  H    0.222980
    12  N    0.488051
    13  O   -0.460856
    14  O   -0.460811
    15  C   -0.298203
    16  C   -0.300360
    17  C   -0.476418
    18  H    0.151898
    19  H    0.152470
    20  H    0.150426
    21  H    0.154005
    22  H    0.156236
    23  H    0.156152
    24  H    0.163544
    25  C   -0.303834
    26  C   -0.299431
    27  C   -0.482034
    28  H    0.143504
    29  H    0.151436
    30  H    0.156325
    31  H    0.156613
    32  H    0.150951
    33  H    0.152365
    34  H    0.167594
 Sum of Mulliken charges =  -0.00000

 Dipole moment (field-independent basis, Debye):
    X=             -4.0089    Y=             -3.5970    Z=              0.7082  Tot=              5.4324
 Quadrupole moment (field-independent basis, Debye-Ang):
   XX=           -115.2497   YY=            -95.0761   ZZ=            -92.6910
   XY=            -12.8275   XZ=              4.2351   YZ=             -1.8379

 Normal termination of Gaussian 16 at Thu May  6 00:03:23 2021.
