 Gaussian 16, Revision A.03,
 Gaussian 16:  EM64L-G16RevA.03 25-Dec-2016

 -------------
 #p 6-31g* mp2
 -------------

 ------------------------------------------------------
 Input file generated by CHIRIPA (05-May-2021 14:55:25)
 ------------------------------------------------------
 Symbolic Z-matrix:
 Charge =  0 Multiplicity = 1

                         Standard orientation:
 ---------------------------------------------------------------------
 Center     Atomic      Atomic             Coordinates (Angstroms)
 Number     Number       Type             X           Y           Z
 ---------------------------------------------------------------------
      1          6           0        1.575336   -0.597002    2.081294
      2          6           0        1.652778    0.652147    1.456674
      3          6           0        2.523119    0.855699    0.381676
      4          6           0        3.305027   -0.216733   -0.044702
      5          6           0        3.250532   -1.473048    0.556959
      6          6           0        2.373054   -1.653750    1.630237
      7          1           0        0.896463   -0.746251    2.915710
      8          1           0        1.034451    1.474641    1.804842
      9          1           0        2.603068    1.812376   -0.120116
     10          1           0        3.879462   -2.273879    0.187453
     11          1           0        2.315008   -2.624943    2.113414
     12          7           0        4.230195   -0.013337   -1.181844
     13          8           0        4.908461   -0.974253   -1.538542
     14          8           0        4.259558    1.103149   -1.694907
     15          6           0       -3.356504    0.616730   -0.369402
     16          6           0       -2.843109    1.641342    0.642813
     17          6           0       -1.484195    2.225346    0.255406
     18          1           0       -2.621429   -0.194012   -0.465872
     19          1           0       -3.428903    1.092200   -1.357370
     20          1           0       -2.773016    1.164461    1.628860
     21          1           0       -3.579582    2.449641    0.737029
     22          1           0       -1.542977    2.726039   -0.716424
     23          1           0       -0.731830    1.433556    0.180475
     24          1           0       -1.136066    2.955461    0.992698
     25          6           0       -4.714018    0.023925    0.004056
     26          6           0       -5.227413   -1.000688   -1.008159
     27          6           0       -6.586327   -1.584692   -0.620752
     28          1           0       -4.641619   -0.451545    0.992025
     29          1           0       -5.449094    0.834666    0.100528
     30          1           0       -4.490940   -1.808987   -1.102374
     31          1           0       -5.297506   -0.523807   -1.994205
     32          1           0       -7.338692   -0.792901   -0.545820
     33          1           0       -6.527545   -2.085384    0.351078
     34          1           0       -6.934455   -2.314806   -1.358044
 ---------------------------------------------------------------------

 SCF Done:  E(RHF) =  -669.534645496     A.U. after   15 cycles
 E2 =    -0.2092057629D+01 EUMP2 =    -0.67162670312529D+03

 The electronic state is 1-A.
 Alpha  occ. eigenvalues --  -20.60763 -20.60758 -15.85816 -11.31197 -11.27760
 Alpha  occ. eigenvalues --  -11.27742 -11.27499 -11.26790 -11.26708 -11.22258
 Alpha  occ. eigenvalues --  -11.21940 -11.21873 -11.21787 -11.21776 -11.21369
 Alpha  occ. eigenvalues --   -1.59838  -1.39391  -1.19371  -1.08913  -1.08761
 Alpha  occ. eigenvalues --   -1.04780  -1.04032  -0.96498  -0.95593  -0.87535
 Alpha  occ. eigenvalues --   -0.86159  -0.82427  -0.80109  -0.78701  -0.77465
 Alpha  occ. eigenvalues --   -0.72034  -0.71161  -0.70470  -0.65573  -0.65016
 Alpha  occ. eigenvalues --   -0.64779  -0.62187  -0.61374  -0.59876  -0.58093
 Alpha  occ. eigenvalues --   -0.55828  -0.55252  -0.53316  -0.53173  -0.52848
 Alpha  occ. eigenvalues --   -0.52738  -0.50371  -0.48791  -0.48788  -0.48412
 Alpha  occ. eigenvalues --   -0.47118  -0.46245  -0.46161  -0.44793  -0.44289
 Alpha  occ. eigenvalues --   -0.37347  -0.36321
 Alpha virt. eigenvalues --    0.05050   0.11224   0.16471   0.20785   0.22583
 Alpha virt. eigenvalues --    0.23895   0.26218   0.26303   0.27050   0.28297
 Alpha virt. eigenvalues --    0.28738   0.29993   0.31065   0.31536   0.32110

 Mulliken charges:
               1
     1  C   -0.173915
     2  C   -0.220334
     3  C   -0.172736
     4  C    0.158938
     5  C   -0.171179
     6  C   -0.218332
     7  H    0.225614
     8  H    0.231670
     9  H    0.276594
    10  H    0.275606
    11  H    0.223355
    12  N    0.488072
    13  O   -0.460495
    14  O   -0.460083
    15  C   -0.299233
    16  C   -0.298151
    17  C   -0.487508
    18  H    0.150780
    19  H    0.152418
    20  H    0.146921
    21  H    0.154621
    22  H    0.161213
    23  H    0.161171
    24  H    0.153281
    25  C   -0.298427
    26  C   -0.300045
    27  C   -0.475893
    28  H    0.147836
    29  H    0.150639
    30  H    0.152170
    31  H    0.153556
    32  H    0.155772
    33  H    0.154518
    34  H    0.161587
 Sum of Mulliken charges =  -0.00000

 Dipole moment (field-independent basis, Debye):
    X=             -3.3364    Y=             -0.7371    Z=              3.9387  Tot=              5.2142
 Quadrupole moment (field-independent basis, Debye-Ang):
   XX=           -117.0082   YY=            -89.7481   ZZ=            -95.5971
   XY=             -4.1220   XZ=             14.2026   YZ=             -1.7047

 Normal termination of Gaussian 16 at Thu May  6 17:43:47 2021.
