 Gaussian 16, Revision A.03,
 Gaussian 16:  EM64L-G16RevA.03 25-Dec-2016

 -------------
 #p 6-31g* mp2
 -------------

 ------------------------------------------------------
 Input file generated by CHIRIPA (05-May-2021 14:55:20)
 ------------------------------------------------------
 Symbolic Z-matrix:
 Charge =  0 Multiplicity = 1

                         Standard orientation:
 ---------------------------------------------------------------------
 Center     Atomic      Atomic             Coordinates (Angstroms)
 Number     Number       Type             X           Y           Z
 ---------------------------------------------------------------------
      1          6           0        4.233574   -1.815430    0.148682
      2          6           0        3.339734   -1.558798    1.193532
      3          6           0        2.600201   -0.372655    1.220048
      4          6           0        2.780167    0.538899    0.180832
      5          6           0        3.662938    0.312003   -0.873931
      6          6           0        4.392044   -0.880858   -0.879901
      7          1           0        4.804011   -2.739464    0.136064
      8          1           0        3.214622   -2.282788    1.993676
      9          1           0        1.901351   -0.148574    2.016801
     10          1           0        3.766138    1.052797   -1.657507
     11          1           0        5.085492   -1.077498   -1.692617
     12          7           0        2.002776    1.798172    0.198028
     13          8           0        2.179494    2.585139   -0.729382
     14          8           0        1.231459    1.974377    1.138591
     15          6           0       -3.055535   -0.273530   -0.568068
     16          6           0       -1.977310   -1.318095   -0.277726
     17          6           0       -0.648523   -1.002949   -0.965331
     18          1           0       -3.209611   -0.206895   -1.653778
     19          1           0       -2.697796    0.712931   -0.242011
     20          1           0       -2.337531   -2.302511   -0.602970
     21          1           0       -1.825918   -1.382387    0.807430
     22          1           0       -0.263290   -0.033483   -0.633168
     23          1           0       -0.777809   -0.958834   -2.051582
     24          1           0        0.107935   -1.762400   -0.744275
     25          6           0       -4.389690   -0.574741    0.112393
     26          6           0       -5.467914    0.469824   -0.177949
     27          6           0       -6.796702    0.154678    0.509657
     28          1           0       -4.747429   -1.561202   -0.213664
     29          1           0       -4.235613   -0.641376    1.198103
     30          1           0       -5.619306    0.534117   -1.263103
     31          1           0       -5.107694    1.454240    0.147295
     32          1           0       -6.667415    0.110563    1.595907
     33          1           0       -7.181935   -0.814788    0.177494
     34          1           0       -7.553159    0.914130    0.288601
 ---------------------------------------------------------------------

 SCF Done:  E(RHF) =  -669.535726770     A.U. after   15 cycles
 E2 =    -0.2092159476D+01 EUMP2 =    -0.67162788624549D+03

 The electronic state is 1-A.
 Alpha  occ. eigenvalues --  -20.60856 -20.60851 -15.85884 -11.31184 -11.27767
 Alpha  occ. eigenvalues --  -11.27763 -11.27516 -11.26782 -11.26768 -11.21338
 Alpha  occ. eigenvalues --  -11.21232 -11.21033 -11.20928 -11.20804 -11.20770
 Alpha  occ. eigenvalues --   -1.59925  -1.39479  -1.19371  -1.08782  -1.08072
 Alpha  occ. eigenvalues --   -1.04770  -1.03215  -0.95670  -0.95621  -0.86692
 Alpha  occ. eigenvalues --   -0.86170  -0.82459  -0.79287  -0.77877  -0.77511
 Alpha  occ. eigenvalues --   -0.72114  -0.71259  -0.70489  -0.65031  -0.64779
 Alpha  occ. eigenvalues --   -0.64693  -0.62121  -0.60610  -0.59044  -0.57279
 Alpha  occ. eigenvalues --   -0.55285  -0.54958  -0.53177  -0.52866  -0.52287
 Alpha  occ. eigenvalues --   -0.52093  -0.49606  -0.48875  -0.48866  -0.47604
 Alpha  occ. eigenvalues --   -0.46321  -0.45434  -0.45340  -0.44844  -0.43458
 Alpha  occ. eigenvalues --   -0.37327  -0.36355
 Alpha virt. eigenvalues --    0.05012   0.11267   0.16506   0.21369   0.23208
 Alpha virt. eigenvalues --    0.24511   0.26917   0.27341   0.27801   0.28083
 Alpha virt. eigenvalues --    0.28421   0.30725   0.31668   0.31946   0.32108

 Mulliken charges:
               1
     1  C   -0.170663
     2  C   -0.219432
     3  C   -0.169397
     4  C    0.158875
     5  C   -0.170445
     6  C   -0.218622
     7  H    0.225648
     8  H    0.223476
     9  H    0.275272
    10  H    0.275681
    11  H    0.223465
    12  N    0.489053
    13  O   -0.458748
    14  O   -0.460669
    15  C   -0.300445
    16  C   -0.297864
    17  C   -0.480911
    18  H    0.148766
    19  H    0.159087
    20  H    0.148943
    21  H    0.149741
    22  H    0.160152
    23  H    0.154864
    24  H    0.156356
    25  C   -0.298092
    26  C   -0.299972
    27  C   -0.475559
    28  H    0.147056
    29  H    0.149291
    30  H    0.151451
    31  H    0.155042
    32  H    0.154892
    33  H    0.153707
    34  H    0.160003
 Sum of Mulliken charges =  -0.00000

 Dipole moment (field-independent basis, Debye):
    X=              2.8184    Y=             -4.3342    Z=             -0.0583  Tot=              5.1703
 Quadrupole moment (field-independent basis, Debye-Ang):
   XX=            -80.2941   YY=            -99.6668   ZZ=            -90.8756
   XY=            -10.5865   XZ=             -1.2251   YZ=             -1.8400

 Normal termination of Gaussian 16 at Wed May  5 15:52:05 2021.
