 Gaussian 16, Revision A.03,
 Gaussian 16:  EM64L-G16RevA.03 25-Dec-2016

 -------------
 #p 6-31g* mp2
 -------------

 ------------------------------------------------------
 Input file generated by CHIRIPA (05-May-2021 14:53:16)
 ------------------------------------------------------
 Symbolic Z-matrix:
 Charge =  0 Multiplicity = 1

                         Standard orientation:
 ---------------------------------------------------------------------
 Center     Atomic      Atomic             Coordinates (Angstroms)
 Number     Number       Type             X           Y           Z
 ---------------------------------------------------------------------
      1          6           0        2.877533    0.625438   -0.313452
      2          6           0        2.528335    2.113202   -0.262427
      3          6           0        1.040718    2.379552   -0.494480
      4          1           0        2.578515    0.218387   -1.289077
      5          1           0        2.286061    0.090970    0.442789
      6          1           0        3.121306    2.644909   -1.017601
      7          1           0        2.828393    2.516801    0.713118
      8          1           0        0.435814    1.874844    0.265758
      9          1           0        0.730391    2.003680   -1.474796
     10          1           0        0.813284    3.449355   -0.453785
     11          6           0        4.361126    0.343139   -0.083260
     12          6           0        4.710324   -1.144625   -0.134285
     13          6           0        6.197940   -1.410976    0.097768
     14          1           0        4.952598    0.877606   -0.839501
     15          1           0        4.660144    0.750189    0.892364
     16          1           0        4.410265   -1.548224   -1.109831
     17          1           0        4.117353   -1.676333    0.620889
     18          1           0        6.508268   -1.035104    1.078083
     19          1           0        6.802844   -0.906267   -0.662470
     20          1           0        6.425375   -2.480778    0.057073
     21          6           0       -5.203629    0.005071   -0.602268
     22          6           0       -4.309478   -0.686812   -1.425866
     23          6           0       -2.990628   -0.905061   -1.016536
     24          6           0       -2.597896   -0.415418    0.228172
     25          6           0       -3.465181    0.277556    1.071317
     26          6           0       -4.779374    0.484202    0.641501
     27          1           0       -6.226334    0.170106   -0.928202
     28          1           0       -4.636187   -1.060046   -2.392303
     29          1           0       -2.277601   -1.437488   -1.634220
     30          1           0       -3.110301    0.637653    2.029339
     31          1           0       -5.471604    1.021863    1.283205
     32          7           0       -1.204153   -0.640327    0.672355
     33          8           0       -0.882808   -0.198851    1.773478
     34          8           0       -0.459473   -1.253828   -0.089030
 ---------------------------------------------------------------------

 SCF Done:  E(RHF) =  -669.536663422     A.U. after   15 cycles
 E2 =    -0.2092352401D+01 EUMP2 =    -0.67162901582240D+03

 The electronic state is 1-A.
 Alpha  occ. eigenvalues --  -20.61064 -20.61034 -15.86029 -11.31313 -11.27870
 Alpha  occ. eigenvalues --  -11.27867 -11.27603 -11.26868 -11.26858 -11.20493
 Alpha  occ. eigenvalues --  -11.20453 -11.20204 -11.20196 -11.20026 -11.19799
 Alpha  occ. eigenvalues --   -1.60084  -1.39642  -1.19476  -1.08891  -1.07192
 Alpha  occ. eigenvalues --   -1.04866  -1.02431  -0.95740  -0.94884  -0.86269
 Alpha  occ. eigenvalues --   -0.85914  -0.82580  -0.78504  -0.77639  -0.76952
 Alpha  occ. eigenvalues --   -0.72257  -0.71395  -0.70589  -0.65133  -0.64872
 Alpha  occ. eigenvalues --   -0.63821  -0.62214  -0.59833  -0.58252  -0.56491
 Alpha  occ. eigenvalues --   -0.55376  -0.54170  -0.53196  -0.52959  -0.51644
 Alpha  occ. eigenvalues --   -0.51318  -0.49073  -0.49034  -0.48831  -0.46806
 Alpha  occ. eigenvalues --   -0.45562  -0.45014  -0.44489  -0.44322  -0.42638
 Alpha  occ. eigenvalues --   -0.37449  -0.36462
 Alpha virt. eigenvalues --    0.04852   0.11192   0.16337   0.21315   0.24083
 Alpha virt. eigenvalues --    0.25347   0.27242   0.27877   0.28127   0.28759
 Alpha virt. eigenvalues --    0.29046   0.30913   0.32166   0.32602   0.32777

 Mulliken charges:
               1
     1  C   -0.303422
     2  C   -0.297167
     3  C   -0.481658
     4  H    0.147637
     5  H    0.173750
     6  H    0.145484
     7  H    0.150093
     8  H    0.165052
     9  H    0.150291
    10  H    0.152780
    11  C   -0.298175
    12  C   -0.298843
    13  C   -0.475071
    14  H    0.143623
    15  H    0.147038
    16  H    0.150564
    17  H    0.157406
    18  H    0.153635
    19  H    0.152126
    20  H    0.157575
    21  C   -0.170338
    22  C   -0.218629
    23  C   -0.170410
    24  C    0.159171
    25  C   -0.170562
    26  C   -0.218594
    27  H    0.226096
    28  H    0.223883
    29  H    0.275826
    30  H    0.275856
    31  H    0.223922
    32  N    0.488002
    33  O   -0.460491
    34  O   -0.456451
 Sum of Mulliken charges =  -0.00000

 Dipole moment (field-independent basis, Debye):
    X=             -5.2396    Y=              0.5845    Z=             -1.4587  Tot=              5.4702
 Quadrupole moment (field-independent basis, Debye-Ang):
   XX=            -71.8544   YY=            -95.7072   ZZ=            -91.1259
   XY=             -0.5215   XZ=              2.0885   YZ=              3.4555

 Normal termination of Gaussian 16 at Wed May  5 18:42:44 2021.
