 Gaussian 16, Revision A.03,
 Gaussian 16:  EM64L-G16RevA.03 25-Dec-2016

 -------------
 #p 6-31g* mp2
 -------------

 ------------------------------------------------------
 Input file generated by CHIRIPA (05-May-2021 14:51:08)
 ------------------------------------------------------
 Symbolic Z-matrix:
 Charge =  0 Multiplicity = 1

                         Standard orientation:
 ---------------------------------------------------------------------
 Center     Atomic      Atomic             Coordinates (Angstroms)
 Number     Number       Type             X           Y           Z
 ---------------------------------------------------------------------
      1          6           0       -3.349786   -0.060158   -0.050697
      2          6           0       -2.493128    0.662328    0.989560
      3          6           0       -1.026931    0.777079    0.571359
      4          1           0       -2.936765   -1.063367   -0.223705
      5          1           0       -3.281342    0.475360   -1.007740
      6          1           0       -2.564267    0.126390    1.944717
      7          1           0       -2.908348    1.663863    1.160253
      8          1           0       -0.936703    1.330626   -0.368878
      9          1           0       -0.590667   -0.215583    0.420043
     10          1           0       -0.432734    1.296838    1.329410
     11          6           0       -4.818011   -0.182734    0.353059
     12          6           0       -5.674669   -0.905220   -0.687199
     13          6           0       -7.140866   -1.019972   -0.268997
     14          1           0       -4.886455   -0.718252    1.310101
     15          1           0       -5.231032    0.820475    0.526067
     16          1           0       -5.259448   -1.906755   -0.857892
     17          1           0       -5.603529   -0.369282   -1.642355
     18          1           0       -7.577130   -0.027309   -0.117681
     19          1           0       -7.231094   -1.573518    0.671240
     20          1           0       -7.735062   -1.539730   -1.027048
     21          6           0        4.290894   -0.603055   -0.276409
     22          6           0        5.652746   -0.956702    0.322153
     23          6           0        6.052991   -2.409488    0.063285
     24          1           0        3.528416   -1.274889    0.140978
     25          1           0        4.314038   -0.790675   -1.358841
     26          1           0        5.627475   -0.767162    1.402917
     27          1           0        6.412041   -0.283824   -0.096563
     28          1           0        6.106053   -2.608721   -1.011932
     29          1           0        5.317029   -3.094805    0.496069
     30          1           0        7.029657   -2.640712    0.499769
     31          6           0        3.876903    0.845948   -0.025952
     32          6           0        2.515050    1.199594   -0.624515
     33          6           0        2.114805    2.652380   -0.365647
     34          1           0        3.853759    1.033567    1.056479
     35          1           0        4.639382    1.517781   -0.443339
     36          1           0        1.755756    0.526716   -0.205798
     37          1           0        2.540321    1.010054   -1.705279
     38          1           0        2.850767    3.337697   -0.798430
     39          1           0        2.061744    2.851613    0.709570
     40          1           0        1.138139    2.883604   -0.802130
 ---------------------------------------------------------------------

 SCF Done:  E(RHF) =  -470.732487441     A.U. after   11 cycles
 E2 =    -0.1583278019D+01 EUMP2 =    -0.47231576545954D+03

 The electronic state is 1-A.
 Alpha  occ. eigenvalues --  -11.21610 -11.21605 -11.21559 -11.21418 -11.21409
 Alpha  occ. eigenvalues --  -11.21359 -11.21333 -11.21261 -11.21085 -11.21078
 Alpha  occ. eigenvalues --  -11.21042 -11.20946  -1.08448  -1.08344  -1.03578
 Alpha  occ. eigenvalues --   -1.03415  -0.96057  -0.95849  -0.87042  -0.86904
 Alpha  occ. eigenvalues --   -0.79669  -0.79468  -0.78275  -0.78135  -0.65076
 Alpha  occ. eigenvalues --   -0.64983  -0.60957  -0.60876  -0.59399  -0.59233
 Alpha  occ. eigenvalues --   -0.57674  -0.57464  -0.55310  -0.55197  -0.52733
 Alpha  occ. eigenvalues --   -0.52556  -0.52420  -0.52293  -0.50004  -0.49785
 Alpha  occ. eigenvalues --   -0.47987  -0.47791  -0.46682  -0.46474  -0.45863
 Alpha  occ. eigenvalues --   -0.45724  -0.45675  -0.45518  -0.43775  -0.43695
 Alpha virt. eigenvalues --    0.21850   0.22991   0.23545   0.24957   0.26006
 Alpha virt. eigenvalues --    0.26475   0.26871   0.27515   0.27706   0.29081
 Alpha virt. eigenvalues --    0.29408   0.30887   0.31601   0.32188   0.32380

 Mulliken charges:
               1
     1  C   -0.298490
     2  C   -0.301015
     3  C   -0.477098
     4  H    0.149627
     5  H    0.149513
     6  H    0.151650
     7  H    0.151999
     8  H    0.157772
     9  H    0.154286
    10  H    0.162164
    11  C   -0.298262
    12  C   -0.299628
    13  C   -0.475712
    14  H    0.149513
    15  H    0.149696
    16  H    0.151944
    17  H    0.151945
    18  H    0.155200
    19  H    0.155179
    20  H    0.160289
    21  C   -0.298102
    22  C   -0.299545
    23  C   -0.475647
    24  H    0.149109
    25  H    0.149373
    26  H    0.151776
    27  H    0.151901
    28  H    0.155106
    29  H    0.154979
    30  H    0.160097
    31  C   -0.297572
    32  C   -0.307266
    33  C   -0.475072
    34  H    0.148815
    35  H    0.149045
    36  H    0.162995
    37  H    0.150529
    38  H    0.153896
    39  H    0.153842
    40  H    0.161167
 Sum of Mulliken charges =  -0.00000

 Dipole moment (field-independent basis, Debye):
    X=             -0.0499    Y=             -0.0057    Z=              0.0054  Tot=              0.0505
 Quadrupole moment (field-independent basis, Debye-Ang):
   XX=            -86.2076   YY=            -85.0579   ZZ=            -83.8804
   XY=              0.1392   XZ=             -0.0526   YZ=             -0.7344

 Normal termination of Gaussian 16 at Thu May  6 02:07:08 2021.
