 Gaussian 16, Revision A.03,
 Gaussian 16:  EM64L-G16RevA.03 25-Dec-2016

 -------------
 #p 6-31g* mp2
 -------------

 ------------------------------------------------------
 Input file generated by CHIRIPA (05-May-2021 14:51:11)
 ------------------------------------------------------
 Symbolic Z-matrix:
 Charge =  0 Multiplicity = 1

                         Standard orientation:
 ---------------------------------------------------------------------
 Center     Atomic      Atomic             Coordinates (Angstroms)
 Number     Number       Type             X           Y           Z
 ---------------------------------------------------------------------
      1          6           0       -3.029404   -0.106998   -0.256809
      2          6           0       -3.997463   -1.091617    0.399982
      3          6           0       -3.835085   -2.518806   -0.124001
      4          1           0       -3.185042   -0.119798   -1.344264
      5          1           0       -1.998744   -0.446790   -0.084544
      6          1           0       -5.025945   -0.749325    0.227711
      7          1           0       -3.839633   -1.076330    1.486017
      8          1           0       -2.819935   -2.884243    0.061818
      9          1           0       -4.012987   -2.555379   -1.203637
     10          1           0       -4.536758   -3.206043    0.358928
     11          6           0       -3.179576    1.323928    0.256637
     12          6           0       -2.211517    2.308547   -0.400154
     13          6           0       -2.373895    3.735736    0.123829
     14          1           0       -4.210236    1.663720    0.084372
     15          1           0       -3.023937    1.336728    1.344091
     16          1           0       -2.369347    2.293261   -1.486189
     17          1           0       -1.183035    1.966255   -0.227883
     18          1           0       -2.195993    3.772310    1.203465
     19          1           0       -3.389045    4.101173   -0.061990
     20          1           0       -1.672222    4.422973   -0.359100
     21          6           0        2.517515   -0.932988   -0.365396
     22          6           0        1.755371   -1.945365    0.490299
     23          6           0        0.583950   -2.586063   -0.254733
     24          1           0        1.823411   -0.150814   -0.702096
     25          1           0        2.887428   -1.433551   -1.270933
     26          1           0        1.388190   -1.443369    1.394619
     27          1           0        2.451411   -2.725117    0.825161
     28          1           0        0.936736   -3.111830   -1.147881
     29          1           0       -0.132525   -1.822799   -0.575186
     30          1           0        0.053102   -3.306401    0.375484
     31          6           0        3.691465   -0.283942    0.365568
     32          6           0        4.453609    0.728434   -0.490127
     33          6           0        5.625030    1.369133    0.254905
     34          1           0        3.321552    0.216621    1.271105
     35          1           0        4.385569   -1.066117    0.702269
     36          1           0        3.757569    1.508186   -0.824988
     37          1           0        4.820790    0.226438   -1.394447
     38          1           0        6.341506    0.605868    0.575358
     39          1           0        5.272243    1.894899    1.148053
     40          1           0        6.155879    2.089471   -0.375312
 ---------------------------------------------------------------------

 SCF Done:  E(RHF) =  -470.733190565     A.U. after   11 cycles
 E2 =    -0.1583153718D+01 EUMP2 =    -0.47231634428247D+03

 The electronic state is 1-A.
 Alpha  occ. eigenvalues --  -11.21649 -11.21646 -11.21620 -11.21580 -11.21439
 Alpha  occ. eigenvalues --  -11.21415 -11.21379 -11.21350 -11.21105 -11.21094
 Alpha  occ. eigenvalues --  -11.21086 -11.20996  -1.08469  -1.08436  -1.03572
 Alpha  occ. eigenvalues --   -1.03522  -0.96014  -0.95976  -0.87032  -0.86993
 Alpha  occ. eigenvalues --   -0.79667  -0.79559  -0.78313  -0.78221  -0.65182
 Alpha  occ. eigenvalues --   -0.64999  -0.61042  -0.60858  -0.59393  -0.59339
 Alpha  occ. eigenvalues --   -0.57659  -0.57555  -0.55353  -0.55226  -0.52728
 Alpha  occ. eigenvalues --   -0.52671  -0.52480  -0.52341  -0.50030  -0.49880
 Alpha  occ. eigenvalues --   -0.47985  -0.47875  -0.46789  -0.46568  -0.45938
 Alpha  occ. eigenvalues --   -0.45770  -0.45763  -0.45429  -0.43812  -0.43786
 Alpha virt. eigenvalues --    0.20740   0.23156   0.23591   0.24434   0.25811
 Alpha virt. eigenvalues --    0.26723   0.27101   0.27168   0.28006   0.29383
 Alpha virt. eigenvalues --    0.30317   0.31095   0.31722   0.31839   0.31992

 Mulliken charges:
               1
     1  C   -0.305906
     2  C   -0.298981
     3  C   -0.479597
     4  H    0.149517
     5  H    0.156577
     6  H    0.151786
     7  H    0.151535
     8  H    0.160103
     9  H    0.154936
    10  H    0.159731
    11  C   -0.297627
    12  C   -0.299674
    13  C   -0.475699
    14  H    0.149796
    15  H    0.149495
    16  H    0.152226
    17  H    0.150657
    18  H    0.155174
    19  H    0.155477
    20  H    0.160249
    21  C   -0.298744
    22  C   -0.299843
    23  C   -0.484066
    24  H    0.149646
    25  H    0.149921
    26  H    0.151337
    27  H    0.152309
    28  H    0.156039
    29  H    0.162703
    30  H    0.160623
    31  C   -0.298303
    32  C   -0.299701
    33  C   -0.475728
    34  H    0.149385
    35  H    0.149792
    36  H    0.152061
    37  H    0.152038
    38  H    0.155204
    39  H    0.155188
    40  H    0.160363
 Sum of Mulliken charges =  -0.00000

 Dipole moment (field-independent basis, Debye):
    X=              0.0167    Y=             -0.0076    Z=             -0.0127  Tot=              0.0224
 Quadrupole moment (field-independent basis, Debye-Ang):
   XX=            -84.7233   YY=            -85.6466   ZZ=            -84.3781
   XY=             -1.1329   XZ=             -0.0598   YZ=             -0.3943

 Normal termination of Gaussian 16 at Thu May  6 00:40:23 2021.
