 Gaussian 16, Revision A.03,
 Gaussian 16:  EM64L-G16RevA.03 25-Dec-2016

 -------------
 #p 6-31g* mp2
 -------------

 ------------------------------------------------------
 Input file generated by CHIRIPA (05-May-2021 14:57:25)
 ------------------------------------------------------
 Symbolic Z-matrix:
 Charge =  0 Multiplicity = 1

                         Standard orientation:
 ---------------------------------------------------------------------
 Center     Atomic      Atomic             Coordinates (Angstroms)
 Number     Number       Type             X           Y           Z
 ---------------------------------------------------------------------
      1          6           0        5.084172    0.758370   -1.063098
      2          6           0        3.925231    1.520432   -0.882436
      3          6           0        2.840586    1.004506   -0.166955
      4          6           0        2.949520   -0.282892    0.356523
      5          6           0        4.090678   -1.066782    0.193534
      6          6           0        5.163057   -0.530533   -0.525484
      7          1           0        5.921986    1.167047   -1.620275
      8          1           0        3.861162    2.521710   -1.298829
      9          1           0        1.931440    1.572738   -0.012084
     10          1           0        4.124978   -2.061755    0.620466
     11          1           0        6.061855   -1.124638   -0.664216
     12          7           0        1.807747   -0.839838    1.115843
     13          8           0        1.928680   -1.976698    1.567022
     14          8           0        0.813512   -0.128966    1.245441
     15          6           0       -2.414253    2.515693    0.431059
     16          6           0       -3.653574    2.021829    0.851417
     17          6           0       -4.064717    0.735303    0.490357
     18          6           0       -3.207638   -0.033632   -0.295419
     19          6           0       -1.966913    0.430174   -0.729902
     20          6           0       -1.576354    1.719693   -0.356869
     21          1           0       -2.102862    3.516259    0.716190
     22          1           0       -4.306356    2.637780    1.463401
     23          1           0       -5.018900    0.328050    0.801956
     24          1           0       -1.337881   -0.207361   -1.339234
     25          1           0       -0.613330    2.100622   -0.684773
     26          7           0       -3.632000   -1.397203   -0.683995
     27          8           0       -2.858597   -2.054775   -1.376876
     28          8           0       -4.729982   -1.782578   -0.288322
 ---------------------------------------------------------------------

 SCF Done:  E(RHF) =  -868.336613911     A.U. after   16 cycles
 E2 =    -0.2601170848D+01 EUMP2 =    -0.87093778475844D+03

 The electronic state is 1-A.
 Alpha  occ. eigenvalues --  -20.61218 -20.61180 -20.59961 -20.59951 -15.86235
 Alpha  occ. eigenvalues --  -15.85014 -11.31694 -11.30298 -11.28359 -11.28191
 Alpha  occ. eigenvalues --  -11.27963 -11.27320 -11.27221 -11.26913 -11.26904
 Alpha  occ. eigenvalues --  -11.26717 -11.25999 -11.25946  -1.60268  -1.59030
 Alpha  occ. eigenvalues --   -1.39825  -1.38588  -1.19856  -1.18493  -1.09225
 Alpha  occ. eigenvalues --   -1.07927  -1.05276  -1.03912  -0.96055  -0.94767
 Alpha  occ. eigenvalues --   -0.86668  -0.85345  -0.82893  -0.81619  -0.77952
 Alpha  occ. eigenvalues --   -0.76653  -0.72460  -0.71596  -0.71246  -0.70963
 Alpha  occ. eigenvalues --   -0.70335  -0.69674  -0.65507  -0.65287  -0.64186
 Alpha  occ. eigenvalues --   -0.64010  -0.62639  -0.61293  -0.55745  -0.54495
 Alpha  occ. eigenvalues --   -0.53587  -0.53378  -0.52189  -0.52067  -0.49233
 Alpha  occ. eigenvalues --   -0.49200  -0.48000  -0.47993  -0.45213  -0.44010
 Alpha  occ. eigenvalues --   -0.37816  -0.36879  -0.36485  -0.35395
 Alpha virt. eigenvalues --    0.04550   0.05963   0.10749   0.12140   0.16073
 Alpha virt. eigenvalues --    0.17382   0.19737   0.22120   0.25309   0.27313
 Alpha virt. eigenvalues --    0.28885   0.29031   0.30436   0.31212   0.32848

 Mulliken charges:
               1
     1  C   -0.170463
     2  C   -0.218465
     3  C   -0.175739
     4  C    0.158838
     5  C   -0.169480
     6  C   -0.217808
     7  H    0.227356
     8  H    0.222480
     9  H    0.269949
    10  H    0.278527
    11  H    0.226039
    12  N    0.489340
    13  O   -0.453914
    14  O   -0.465571
    15  C   -0.171114
    16  C   -0.218431
    17  C   -0.170444
    18  C    0.157857
    19  C   -0.154530
    20  C   -0.203576
    21  H    0.220058
    22  H    0.220049
    23  H    0.273372
    24  H    0.271495
    25  H    0.209475
    26  N    0.488922
    27  O   -0.461204
    28  O   -0.463019
 Sum of Mulliken charges =  -0.00000

 Dipole moment (field-independent basis, Debye):
    X=              5.7991    Y=              6.5098    Z=             -1.2205  Tot=              8.8032
 Quadrupole moment (field-independent basis, Debye-Ang):
   XX=            -85.9876   YY=           -103.8149   ZZ=           -107.6694
   XY=            -14.1074   XZ=            -13.6676   YZ=             -0.4630

 Normal termination of Gaussian 16 at Fri May  7 00:23:54 2021.
