 Gaussian 16, Revision A.03,
 Gaussian 16:  EM64L-G16RevA.03 25-Dec-2016

 -------------
 #p 6-31g* mp2
 -------------

 ------------------------------------------------------
 Input file generated by CHIRIPA (05-May-2021 14:55:22)
 ------------------------------------------------------
 Symbolic Z-matrix:
 Charge =  0 Multiplicity = 1

                         Standard orientation:
 ---------------------------------------------------------------------
 Center     Atomic      Atomic             Coordinates (Angstroms)
 Number     Number       Type             X           Y           Z
 ---------------------------------------------------------------------
      1          6           0        1.742324    2.504306    0.461477
      2          6           0        1.273444    1.279919    0.948869
      3          6           0        2.002790    0.105845    0.738745
      4          6           0        3.202327    0.193058    0.033909
      5          6           0        3.695870    1.397889   -0.464175
      6          6           0        2.949912    2.559286   -0.242249
      7          1           0        1.169298    3.411431    0.629290
      8          1           0        0.335949    1.234221    1.495734
      9          1           0        1.663081   -0.855318    1.105053
     10          1           0        4.633932    1.411833   -1.005713
     11          1           0        3.316491    3.508768   -0.621918
     12          7           0        3.983246   -1.043171   -0.194787
     13          8           0        5.037067   -0.939650   -0.818792
     14          8           0        3.526723   -2.092241    0.254296
     15          6           0       -3.212632   -0.642789   -0.302660
     16          6           0       -2.594520   -1.856586    0.392047
     17          6           0       -1.150671   -2.113553   -0.040458
     18          1           0       -3.175300   -0.792420   -1.390394
     19          1           0       -2.601151    0.244582   -0.088048
     20          1           0       -3.207759   -2.741148    0.177324
     21          1           0       -2.633502   -1.704134    1.478259
     22          1           0       -0.520056   -1.248500    0.188910
     23          1           0       -1.097576   -2.291407   -1.119417
     24          1           0       -0.728343   -2.985696    0.468329
     25          6           0       -4.655841   -0.373028    0.119363
     26          6           0       -5.273952    0.840770   -0.575344
     27          6           0       -6.717801    1.097736   -0.142838
     28          1           0       -5.267321   -1.260399   -0.095249
     29          1           0       -4.693173   -0.223397    1.207096
     30          1           0       -5.234970    0.688317   -1.661556
     31          1           0       -4.660713    1.725331   -0.360621
     32          1           0       -6.770897    1.275589    0.936120
     33          1           0       -7.348416    0.232684   -0.372207
     34          1           0       -7.140128    1.969879   -0.651626
 ---------------------------------------------------------------------

 SCF Done:  E(RHF) =  -669.534975421     A.U. after   15 cycles
 E2 =    -0.2091963449D+01 EUMP2 =    -0.67162693886993D+03

 The electronic state is 1-A.
 Alpha  occ. eigenvalues --  -20.60742 -20.60736 -15.85797 -11.31176 -11.27770
 Alpha  occ. eigenvalues --  -11.27730 -11.27520 -11.26789 -11.26777 -11.21998
 Alpha  occ. eigenvalues --  -11.21993 -11.21843 -11.21764 -11.21411 -11.21391
 Alpha  occ. eigenvalues --   -1.59817  -1.39369  -1.19368  -1.08842  -1.08756
 Alpha  occ. eigenvalues --   -1.04784  -1.03913  -0.96362  -0.95586  -0.87378
 Alpha  occ. eigenvalues --   -0.86168  -0.82425  -0.79979  -0.78657  -0.77460
 Alpha  occ. eigenvalues --   -0.72017  -0.71140  -0.70483  -0.65492  -0.65022
 Alpha  occ. eigenvalues --   -0.64784  -0.62207  -0.61267  -0.59713  -0.57961
 Alpha  occ. eigenvalues --   -0.55696  -0.55254  -0.53169  -0.53052  -0.52872
 Alpha  occ. eigenvalues --   -0.52671  -0.50293  -0.48777  -0.48767  -0.48280
 Alpha  occ. eigenvalues --   -0.47019  -0.46191  -0.46133  -0.44770  -0.44164
 Alpha  occ. eigenvalues --   -0.37349  -0.36342
 Alpha virt. eigenvalues --    0.05034   0.11245   0.16401   0.20302   0.22676
 Alpha virt. eigenvalues --    0.23910   0.25781   0.26701   0.26921   0.28193
 Alpha virt. eigenvalues --    0.29264   0.30049   0.31375   0.31582   0.32136

 Mulliken charges:
               1
     1  C   -0.170635
     2  C   -0.219845
     3  C   -0.169926
     4  C    0.156543
     5  C   -0.170844
     6  C   -0.218648
     7  H    0.225611
     8  H    0.223615
     9  H    0.279450
    10  H    0.275719
    11  H    0.223515
    12  N    0.488133
    13  O   -0.460682
    14  O   -0.459892
    15  C   -0.297229
    16  C   -0.300741
    17  C   -0.480217
    18  H    0.152503
    19  H    0.142823
    20  H    0.155414
    21  H    0.148995
    22  H    0.147497
    23  H    0.160831
    24  H    0.166692
    25  C   -0.298476
    26  C   -0.299321
    27  C   -0.475852
    28  H    0.151805
    29  H    0.148561
    30  H    0.153312
    31  H    0.149011
    32  H    0.154899
    33  H    0.156625
    34  H    0.160754
 Sum of Mulliken charges =  -0.00000

 Dipole moment (field-independent basis, Debye):
    X=             -2.7910    Y=              4.2769    Z=              0.7395  Tot=              5.1603
 Quadrupole moment (field-independent basis, Debye-Ang):
   XX=           -111.0606   YY=            -91.5493   ZZ=            -93.6345
   XY=             16.3521   XZ=              1.1503   YZ=             -0.7186

 Normal termination of Gaussian 16 at Thu May  6 06:14:55 2021.
