 Gaussian 16, Revision A.03,
 Gaussian 16:  EM64L-G16RevA.03 25-Dec-2016

 -------------
 #p 6-31g* mp2
 -------------

 ------------------------------------------------------
 Input file generated by CHIRIPA (05-May-2021 14:51:13)
 ------------------------------------------------------
 Symbolic Z-matrix:
 Charge =  0 Multiplicity = 1

                         Standard orientation:
 ---------------------------------------------------------------------
 Center     Atomic      Atomic             Coordinates (Angstroms)
 Number     Number       Type             X           Y           Z
 ---------------------------------------------------------------------
      1          6           0        3.286966   -0.504163   -0.677601
      2          6           0        2.256127   -1.583737   -0.346129
      3          6           0        2.307286   -2.766828   -1.313327
      4          1           0        3.119122   -0.148510   -1.703409
      5          1           0        4.291589   -0.948986   -0.661450
      6          1           0        1.253861   -1.136701   -0.361542
      7          1           0        2.426324   -1.936727    0.679077
      8          1           0        3.294697   -3.239243   -1.292231
      9          1           0        2.115571   -2.434672   -2.338763
     10          1           0        1.562129   -3.526680   -1.057932
     11          6           0        3.248142    0.685106    0.280450
     12          6           0        4.278982    1.764680   -0.051022
     13          6           0        4.227823    2.947771    0.916176
     14          1           0        2.243519    1.129928    0.264299
     15          1           0        3.415987    0.329452    1.306258
     16          1           0        4.108784    2.117669   -1.076228
     17          1           0        5.281248    1.317644   -0.035609
     18          1           0        4.419537    2.615614    1.941612
     19          1           0        3.240412    3.420185    0.895080
     20          1           0        4.972980    3.707622    0.660781
     21          6           0       -3.434980    0.423047   -0.341516
     22          6           0       -4.623478    1.315421    0.017827
     23          6           0       -4.946189    2.337593   -1.072502
     24          1           0       -2.554499    1.053202   -0.527532
     25          1           0       -3.649742   -0.099939   -1.283725
     26          1           0       -4.407112    1.835517    0.959795
     27          1           0       -5.501185    0.683057    0.203196
     28          1           0       -5.187884    1.833469   -2.013800
     29          1           0       -4.087593    2.992476   -1.252903
     30          1           0       -5.798973    2.964951   -0.794937
     31          6           0       -3.100128   -0.603989    0.738667
     32          6           0       -1.911632   -1.496364    0.379324
     33          6           0       -1.588919   -2.518536    1.469653
     34          1           0       -2.885366   -0.081003    1.680876
     35          1           0       -3.980610   -1.234144    0.924682
     36          1           0       -1.033923   -0.863999    0.193955
     37          1           0       -2.127997   -2.016459   -0.562644
     38          1           0       -2.447515   -3.173418    1.650053
     39          1           0       -1.347225   -2.014411    2.410951
     40          1           0       -0.736135   -3.145893    1.192088
 ---------------------------------------------------------------------

 SCF Done:  E(RHF) =  -470.733250710     A.U. after   11 cycles
 E2 =    -0.1583002735D+01 EUMP2 =    -0.47231625344564D+03

 The electronic state is 1-A.
 Alpha  occ. eigenvalues --  -11.21617 -11.21616 -11.21594 -11.21564 -11.21419
 Alpha  occ. eigenvalues --  -11.21417 -11.21358 -11.21353 -11.21089 -11.21087
 Alpha  occ. eigenvalues --  -11.21070 -11.21061  -1.08456  -1.08423  -1.03570
 Alpha  occ. eigenvalues --   -1.03500  -0.96006  -0.95963  -0.87008  -0.86993
 Alpha  occ. eigenvalues --   -0.79674  -0.79537  -0.78321  -0.78187  -0.65144
 Alpha  occ. eigenvalues --   -0.65007  -0.61049  -0.60835  -0.59501  -0.59222
 Alpha  occ. eigenvalues --   -0.57725  -0.57446  -0.55290  -0.55253  -0.52718
 Alpha  occ. eigenvalues --   -0.52639  -0.52441  -0.52372  -0.49980  -0.49887
 Alpha  occ. eigenvalues --   -0.48066  -0.47828  -0.46862  -0.46468  -0.45962
 Alpha  occ. eigenvalues --   -0.45768  -0.45747  -0.45391  -0.43803  -0.43773
 Alpha virt. eigenvalues --    0.21060   0.23160   0.23258   0.24978   0.25320
 Alpha virt. eigenvalues --    0.26695   0.26862   0.27260   0.28377   0.28952
 Alpha virt. eigenvalues --    0.30341   0.30716   0.31578   0.31704   0.32375

 Mulliken charges:
               1
     1  C   -0.297810
     2  C   -0.307775
     3  C   -0.476117
     4  H    0.149536
     5  H    0.149523
     6  H    0.160524
     7  H    0.151893
     8  H    0.155167
     9  H    0.155250
    10  H    0.160414
    11  C   -0.298134
    12  C   -0.299644
    13  C   -0.475695
    14  H    0.148421
    15  H    0.149776
    16  H    0.151993
    17  H    0.152107
    18  H    0.155206
    19  H    0.154971
    20  H    0.160351
    21  C   -0.298233
    22  C   -0.299653
    23  C   -0.475709
    24  H    0.148989
    25  H    0.149576
    26  H    0.151999
    27  H    0.152068
    28  H    0.155199
    29  H    0.155041
    30  H    0.160347
    31  C   -0.297633
    32  C   -0.304966
    33  C   -0.476852
    34  H    0.149579
    35  H    0.149697
    36  H    0.156549
    37  H    0.151782
    38  H    0.155026
    39  H    0.155298
    40  H    0.161937
 Sum of Mulliken charges =  -0.00000

 Dipole moment (field-independent basis, Debye):
    X=             -0.0034    Y=             -0.0047    Z=              0.0027  Tot=              0.0064
 Quadrupole moment (field-independent basis, Debye-Ang):
   XX=            -84.0623   YY=            -85.6322   ZZ=            -85.0836
   XY=              0.3279   XZ=              0.4065   YZ=             -0.0104

 Normal termination of Gaussian 16 at Thu May  6 02:22:07 2021.
