 Gaussian 16, Revision A.03,
 Gaussian 16:  EM64L-G16RevA.03 25-Dec-2016

 -------------
 #p 6-31g* mp2
 -------------

 ------------------------------------------------------
 Input file generated by CHIRIPA (05-May-2021 14:51:14)
 ------------------------------------------------------
 Symbolic Z-matrix:
 Charge =  0 Multiplicity = 1

                         Standard orientation:
 ---------------------------------------------------------------------
 Center     Atomic      Atomic             Coordinates (Angstroms)
 Number     Number       Type             X           Y           Z
 ---------------------------------------------------------------------
      1          6           0       -4.220863   -0.582782   -0.322903
      2          6           0       -5.476918    0.214447    0.030276
      3          6           0       -6.642641   -0.068359   -0.917831
      4          1           0       -3.922498   -0.347170   -1.353636
      5          1           0       -4.458388   -1.655446   -0.303703
      6          1           0       -5.236746    1.285237    0.011768
      7          1           0       -5.772217   -0.022944    1.060354
      8          1           0       -6.910524   -1.129599   -0.893168
      9          1           0       -6.372011    0.186015   -1.947711
     10          1           0       -7.530207    0.511968   -0.647078
     11          6           0       -3.046804   -0.310841    0.615906
     12          6           0       -1.790749   -1.108070    0.262726
     13          6           0       -0.625026   -0.825264    1.210833
     14          1           0       -2.809279    0.761823    0.596706
     15          1           0       -3.345168   -0.546452    1.646639
     16          1           0       -1.495450   -0.870678   -0.767351
     17          1           0       -2.030921   -2.178860    0.281235
     18          1           0       -0.895656   -1.079638    2.240714
     19          1           0       -0.357142    0.235976    1.186170
     20          1           0        0.262540   -1.405591    0.940081
     21          6           0        4.211144    0.058958    0.169273
     22          6           0        4.999795   -0.780244   -0.836588
     23          6           0        6.151471   -1.550332   -0.189748
     24          1           0        4.893396    0.763857    0.663840
     25          1           0        3.817209   -0.599031    0.956204
     26          1           0        5.390962   -0.121062   -1.622134
     27          1           0        4.315551   -1.483095   -1.328954
     28          1           0        5.775071   -2.230853    0.580846
     29          1           0        6.856593   -0.861080    0.286000
     30          1           0        6.701784   -2.143483   -0.926761
     31          6           0        3.056522    0.834664   -0.462276
     32          6           0        2.267872    1.673867    0.543585
     33          6           0        1.116197    2.443955   -0.103254
     34          1           0        3.450458    1.492654   -1.249206
     35          1           0        2.374271    0.129765   -0.956842
     36          1           0        2.952117    2.376719    1.035951
     37          1           0        1.876705    1.014685    1.329131
     38          1           0        0.411075    1.754704   -0.579002
     39          1           0        1.492596    3.124476   -0.873849
     40          1           0        0.565882    3.037105    0.633758
 ---------------------------------------------------------------------

 SCF Done:  E(RHF) =  -470.732397968     A.U. after   11 cycles
 E2 =    -0.1583751655D+01 EUMP2 =    -0.47231614962252D+03

 The electronic state is 1-A.
 Alpha  occ. eigenvalues --  -11.21637 -11.21605 -11.21588 -11.21526 -11.21417
 Alpha  occ. eigenvalues --  -11.21379 -11.21357 -11.21319 -11.21095 -11.21072
 Alpha  occ. eigenvalues --  -11.21060 -11.21047  -1.08460  -1.08395  -1.03608
 Alpha  occ. eigenvalues --   -1.03465  -0.96059  -0.95922  -0.87023  -0.86991
 Alpha  occ. eigenvalues --   -0.79651  -0.79548  -0.78268  -0.78207  -0.65237
 Alpha  occ. eigenvalues --   -0.64932  -0.61339  -0.60590  -0.59373  -0.59336
 Alpha  occ. eigenvalues --   -0.57643  -0.57555  -0.55594  -0.54935  -0.52701
 Alpha  occ. eigenvalues --   -0.52668  -0.52422  -0.52378  -0.49974  -0.49857
 Alpha  occ. eigenvalues --   -0.47987  -0.47820  -0.46718  -0.46530  -0.45839
 Alpha  occ. eigenvalues --   -0.45750  -0.45727  -0.45597  -0.43794  -0.43764
 Alpha virt. eigenvalues --    0.20479   0.22882   0.23735   0.25141   0.25971
 Alpha virt. eigenvalues --    0.26401   0.26996   0.27788   0.28052   0.29418
 Alpha virt. eigenvalues --    0.30980   0.31164   0.31750   0.31993   0.32194

 Mulliken charges:
               1
     1  C   -0.298301
     2  C   -0.299707
     3  C   -0.475724
     4  H    0.149699
     5  H    0.149505
     6  H    0.152135
     7  H    0.151916
     8  H    0.155147
     9  H    0.155241
    10  H    0.160294
    11  C   -0.298894
    12  C   -0.300163
    13  C   -0.484034
    14  H    0.150280
    15  H    0.149748
    16  H    0.151364
    17  H    0.152031
    18  H    0.155035
    19  H    0.166144
    20  H    0.159369
    21  C   -0.298723
    22  C   -0.299611
    23  C   -0.475687
    24  H    0.149663
    25  H    0.149874
    26  H    0.151880
    27  H    0.151748
    28  H    0.155176
    29  H    0.155186
    30  H    0.160185
    31  C   -0.298474
    32  C   -0.303949
    33  C   -0.480302
    34  H    0.149262
    35  H    0.150078
    36  H    0.151870
    37  H    0.158015
    38  H    0.156555
    39  H    0.156405
    40  H    0.159764
 Sum of Mulliken charges =  -0.00000

 Dipole moment (field-independent basis, Debye):
    X=             -0.0093    Y=              0.0116    Z=              0.0174  Tot=              0.0229
 Quadrupole moment (field-independent basis, Debye-Ang):
   XX=            -85.9647   YY=            -84.0450   ZZ=            -84.8477
   XY=              1.1575   XZ=             -1.1193   YZ=             -0.4535

 Normal termination of Gaussian 16 at Wed May  5 21:39:18 2021.
