 Gaussian 16, Revision A.03,
 Gaussian 16:  EM64L-G16RevA.03 25-Dec-2016

 -------------
 #p 6-31g* mp2
 -------------

 ------------------------------------------------------
 Input file generated by CHIRIPA (05-May-2021 14:51:11)
 ------------------------------------------------------
 Symbolic Z-matrix:
 Charge =  0 Multiplicity = 1

                         Standard orientation:
 ---------------------------------------------------------------------
 Center     Atomic      Atomic             Coordinates (Angstroms)
 Number     Number       Type             X           Y           Z
 ---------------------------------------------------------------------
      1          6           0       -4.301166    0.097303   -0.334193
      2          6           0       -5.054725    1.256177    0.319370
      3          6           0       -6.243866    1.733409   -0.514888
      4          1           0       -3.951994    0.409389   -1.327987
      5          1           0       -4.996177   -0.738402   -0.495291
      6          1           0       -4.358180    2.088941    0.480451
      7          1           0       -5.401978    0.941360    1.311802
      8          1           0       -6.960696    0.919585   -0.664710
      9          1           0       -5.910968    2.073687   -1.500784
     10          1           0       -6.768221    2.562239   -0.029138
     11          6           0       -3.109693   -0.390881    0.487875
     12          6           0       -2.356134   -1.549756   -0.165688
     13          6           0       -1.166993   -2.026987    0.668571
     14          1           0       -2.414682    0.444823    0.648974
     15          1           0       -3.458865   -0.702967    1.481669
     16          1           0       -2.008881   -1.234938   -1.158119
     17          1           0       -3.052679   -2.382519   -0.326769
     18          1           0       -1.499891   -2.367265    1.654467
     19          1           0       -0.450163   -1.213163    0.818392
     20          1           0       -0.642638   -2.855817    0.182820
     21          6           0        4.015960    0.774709   -0.381340
     22          6           0        4.025501    1.969990    0.572179
     23          6           0        4.649853    3.218656   -0.051368
     24          1           0        5.046033    0.554522   -0.693449
     25          1           0        3.464489    1.045653   -1.292309
     26          1           0        4.575603    1.696414    1.481661
     27          1           0        2.995304    2.187237    0.882205
     28          1           0        4.097479    3.519006   -0.947624
     29          1           0        5.686757    3.025395   -0.344762
     30          1           0        4.646374    4.060963    0.647463
     31          6           0        3.394899   -0.481131    0.227658
     32          6           0        3.385358   -1.676412   -0.725861
     33          6           0        2.761007   -2.925078   -0.102314
     34          1           0        3.946370   -0.752075    1.138627
     35          1           0        2.364826   -0.260944    0.539767
     36          1           0        4.415554   -1.893658   -1.035888
     37          1           0        2.835255   -1.402836   -1.635344
     38          1           0        1.724101   -2.731816    0.191080
     39          1           0        3.313379   -3.225428    0.793942
     40          1           0        2.764484   -3.767384   -0.801146
 ---------------------------------------------------------------------

 SCF Done:  E(RHF) =  -470.732963402     A.U. after   11 cycles
 E2 =    -0.1582812370D+01 EUMP2 =    -0.47231577577197D+03

 The electronic state is 1-A.
 Alpha  occ. eigenvalues --  -11.21663 -11.21632 -11.21599 -11.21541 -11.21451
 Alpha  occ. eigenvalues --  -11.21390 -11.21387 -11.21326 -11.21147 -11.21095
 Alpha  occ. eigenvalues --  -11.21072 -11.20907  -1.08478  -1.08401  -1.03590
 Alpha  occ. eigenvalues --   -1.03481  -0.96057  -0.95918  -0.87095  -0.86920
 Alpha  occ. eigenvalues --   -0.79688  -0.79517  -0.78293  -0.78210  -0.65129
 Alpha  occ. eigenvalues --   -0.65019  -0.61054  -0.60844  -0.59425  -0.59301
 Alpha  occ. eigenvalues --   -0.57674  -0.57524  -0.55381  -0.55185  -0.52836
 Alpha  occ. eigenvalues --   -0.52626  -0.52462  -0.52262  -0.50025  -0.49810
 Alpha  occ. eigenvalues --   -0.47959  -0.47862  -0.46748  -0.46522  -0.45857
 Alpha  occ. eigenvalues --   -0.45785  -0.45725  -0.45622  -0.43789  -0.43749
 Alpha virt. eigenvalues --    0.21312   0.23079   0.23665   0.24988   0.25730
 Alpha virt. eigenvalues --    0.26745   0.27088   0.27195   0.27806   0.29147
 Alpha virt. eigenvalues --    0.30359   0.30844   0.31703   0.31795   0.31978

 Mulliken charges:
               1
     1  C   -0.298341
     2  C   -0.299669
     3  C   -0.475730
     4  H    0.149646
     5  H    0.149698
     6  H    0.151916
     7  H    0.152048
     8  H    0.155256
     9  H    0.155196
    10  H    0.160368
    11  C   -0.298679
    12  C   -0.299471
    13  C   -0.482028
    14  H    0.149342
    15  H    0.149920
    16  H    0.152038
    17  H    0.152382
    18  H    0.156240
    19  H    0.156664
    20  H    0.164603
    21  C   -0.298230
    22  C   -0.299553
    23  C   -0.475677
    24  H    0.149796
    25  H    0.149236
    26  H    0.152060
    27  H    0.151503
    28  H    0.155041
    29  H    0.155254
    30  H    0.160215
    31  C   -0.300372
    32  C   -0.298676
    33  C   -0.485038
    34  H    0.149722
    35  H    0.150816
    36  H    0.151575
    37  H    0.151208
    38  H    0.166375
    39  H    0.154506
    40  H    0.158841
 Sum of Mulliken charges =  -0.00000

 Dipole moment (field-independent basis, Debye):
    X=             -0.0576    Y=             -0.0096    Z=              0.0168  Tot=              0.0607
 Quadrupole moment (field-independent basis, Debye-Ang):
   XX=            -84.6063   YY=            -85.4597   ZZ=            -84.7787
   XY=              0.2620   XZ=             -0.2514   YZ=              0.0517

 Normal termination of Gaussian 16 at Thu May  6 02:17:06 2021.
