 Gaussian 16, Revision A.03,
 Gaussian 16:  EM64L-G16RevA.03 25-Dec-2016

 -------------
 #p 6-31g* mp2
 -------------

 ------------------------------------------------------
 Input file generated by CHIRIPA (05-May-2021 14:55:19)
 ------------------------------------------------------
 Symbolic Z-matrix:
 Charge =  0 Multiplicity = 1

                         Standard orientation:
 ---------------------------------------------------------------------
 Center     Atomic      Atomic             Coordinates (Angstroms)
 Number     Number       Type             X           Y           Z
 ---------------------------------------------------------------------
      1          6           0       -1.521898    1.850957    1.276635
      2          6           0       -2.643452    2.392617    0.640049
      3          6           0       -3.535845    1.567017   -0.050290
      4          6           0       -3.274873    0.198059   -0.083988
      5          6           0       -2.166239   -0.371631    0.540252
      6          6           0       -1.287285    0.472991    1.224797
      7          1           0       -0.833886    2.499692    1.810657
      8          1           0       -2.828174    3.462399    0.678648
      9          1           0       -4.411878    1.959864   -0.551943
     10          1           0       -2.008628   -1.441885    0.484281
     11          1           0       -0.417085    0.049554    1.718252
     12          7           0       -4.212496   -0.686036   -0.811752
     13          8           0       -3.960182   -1.888846   -0.826670
     14          8           0       -5.181964   -0.159439   -1.353474
     15          6           0        4.639071   -0.048758    0.073452
     16          6           0        5.160289    0.657946   -1.178303
     17          6           0        6.451297    1.436455   -0.923323
     18          1           0        4.470060    0.695676    0.863513
     19          1           0        5.412760   -0.732779    0.448839
     20          1           0        4.385325    1.339406   -1.552013
     21          1           0        5.327897   -0.088234   -1.965538
     22          1           0        7.242458    0.766078   -0.572237
     23          1           0        6.294529    2.201828   -0.156361
     24          1           0        6.806201    1.933796   -1.831372
     25          6           0        3.349003   -0.831288   -0.165500
     26          6           0        2.827785   -1.537992    1.086254
     27          6           0        1.536776   -2.316501    0.831274
     28          1           0        2.575314   -0.147268   -0.540888
     29          1           0        3.518014   -1.575723   -0.955562
     30          1           0        2.660176   -0.791813    1.873490
     31          1           0        3.602749   -2.219452    1.459964
     32          1           0        1.693545   -3.081873    0.064313
     33          1           0        0.745616   -1.646123    0.480188
     34          1           0        1.181873   -2.813843    1.739323
 ---------------------------------------------------------------------

 SCF Done:  E(RHF) =  -669.535239700     A.U. after   15 cycles
 E2 =    -0.2091762990D+01 EUMP2 =    -0.67162700268995D+03

 The electronic state is 1-A.
 Alpha  occ. eigenvalues --  -20.60749 -20.60743 -15.85802 -11.31180 -11.27761
 Alpha  occ. eigenvalues --  -11.27734 -11.27500 -11.26777 -11.26729 -11.22394
 Alpha  occ. eigenvalues --  -11.22038 -11.21993 -11.21915 -11.21897 -11.21454
 Alpha  occ. eigenvalues --   -1.59824  -1.39376  -1.19358  -1.09031  -1.08750
 Alpha  occ. eigenvalues --   -1.04770  -1.04144  -0.96597  -0.95582  -0.87617
 Alpha  occ. eigenvalues --   -0.86157  -0.82420  -0.80211  -0.78814  -0.77460
 Alpha  occ. eigenvalues --   -0.72020  -0.71147  -0.70467  -0.65706  -0.65011
 Alpha  occ. eigenvalues --   -0.64759  -0.62257  -0.61421  -0.59963  -0.58184
 Alpha  occ. eigenvalues --   -0.55910  -0.55242  -0.53289  -0.53138  -0.52962
 Alpha  occ. eigenvalues --   -0.52832  -0.50526  -0.48780  -0.48774  -0.48512
 Alpha  occ. eigenvalues --   -0.47249  -0.46358  -0.46277  -0.44779  -0.44384
 Alpha  occ. eigenvalues --   -0.37342  -0.36350
 Alpha virt. eigenvalues --    0.05044   0.11269   0.16414   0.19891   0.22608
 Alpha virt. eigenvalues --    0.23715   0.25861   0.26223   0.26960   0.28104
 Alpha virt. eigenvalues --    0.28967   0.30115   0.31081   0.31274   0.32163

 Mulliken charges:
               1
     1  C   -0.171799
     2  C   -0.218565
     3  C   -0.170935
     4  C    0.158366
     5  C   -0.172732
     6  C   -0.222819
     7  H    0.225486
     8  H    0.223393
     9  H    0.275663
    10  H    0.277765
    11  H    0.229778
    12  N    0.488207
    13  O   -0.460082
    14  O   -0.460595
    15  C   -0.298328
    16  C   -0.300081
    17  C   -0.475914
    18  H    0.147300
    19  H    0.151175
    20  H    0.151853
    21  H    0.153925
    22  H    0.156140
    23  H    0.154325
    24  H    0.161770
    25  C   -0.299083
    26  C   -0.300684
    27  C   -0.484822
    28  H    0.149372
    29  H    0.153436
    30  H    0.145698
    31  H    0.156614
    32  H    0.163756
    33  H    0.151447
    34  H    0.160971
 Sum of Mulliken charges =  -0.00000

 Dipole moment (field-independent basis, Debye):
    X=              3.4391    Y=              3.0642    Z=              2.4971  Tot=              5.2395
 Quadrupole moment (field-independent basis, Debye-Ang):
   XX=           -115.3431   YY=            -90.0124   ZZ=            -95.6821
   XY=            -13.4240   XZ=             -8.2876   YZ=             -0.5759

 Normal termination of Gaussian 16 at Thu May  6 02:52:33 2021.
