 Gaussian 16, Revision A.03,
 Gaussian 16:  EM64L-G16RevA.03 25-Dec-2016

 -------------
 #p 6-31g* mp2
 -------------

 ------------------------------------------------------
 Input file generated by CHIRIPA (05-May-2021 14:51:14)
 ------------------------------------------------------
 Symbolic Z-matrix:
 Charge =  0 Multiplicity = 1

                         Standard orientation:
 ---------------------------------------------------------------------
 Center     Atomic      Atomic             Coordinates (Angstroms)
 Number     Number       Type             X           Y           Z
 ---------------------------------------------------------------------
      1          6           0       -3.426769   -0.133396    0.685921
      2          6           0       -2.073895   -0.809847    0.462019
      3          6           0       -1.026374   -0.392936    1.494820
      4          1           0       -3.293890    0.956739    0.656022
      5          1           0       -3.788027   -0.376692    1.694729
      6          1           0       -1.715946   -0.566477   -0.546573
      7          1           0       -2.210043   -1.898500    0.492264
      8          1           0       -1.358201   -0.650766    2.505768
      9          1           0       -0.861297    0.688826    1.461028
     10          1           0       -0.066938   -0.888283    1.316005
     11          6           0       -4.484404   -0.540123   -0.338633
     12          6           0       -5.837278    0.136328   -0.114731
     13          6           0       -6.884799   -0.280583   -1.147532
     14          1           0       -4.123146   -0.296827   -1.347441
     15          1           0       -4.617283   -1.630258   -0.308734
     16          1           0       -5.701130    1.224980   -0.144975
     17          1           0       -6.195227   -0.107043    0.893862
     18          1           0       -7.049876   -1.362345   -1.113740
     19          1           0       -6.552972   -0.022754   -2.158480
     20          1           0       -7.844235    0.214764   -0.968717
     21          6           0        3.231475    0.461614    0.034939
     22          6           0        2.740196    1.871701   -0.294128
     23          6           0        1.289815    2.106195    0.129194
     24          1           0        2.580319   -0.271577   -0.460411
     25          1           0        3.131400    0.288834    1.115460
     26          1           0        2.842460    2.042263   -1.373510
     27          1           0        3.392712    2.601623    0.201906
     28          1           0        1.175606    1.963096    1.208582
     29          1           0        0.622227    1.400558   -0.375786
     30          1           0        0.959174    3.120440   -0.115435
     31          6           0        4.679697    0.211906   -0.382227
     32          6           0        5.170977   -1.198181   -0.053160
     33          6           0        6.621358   -1.432676   -0.476481
     34          1           0        4.779773    0.384685   -1.462749
     35          1           0        5.330853    0.945097    0.113122
     36          1           0        4.518461   -1.928104   -0.549195
     37          1           0        5.068712   -1.368745    1.026222
     38          1           0        7.288945   -0.727039    0.028498
     39          1           0        6.735567   -1.289577   -1.555870
     40          1           0        6.951998   -2.446921   -0.231853
 ---------------------------------------------------------------------

 SCF Done:  E(RHF) =  -470.732029645     A.U. after   11 cycles
 E2 =    -0.1583292356D+01 EUMP2 =    -0.47231532200105D+03

 The electronic state is 1-A.
 Alpha  occ. eigenvalues --  -11.21603 -11.21590 -11.21576 -11.21546 -11.21406
 Alpha  occ. eigenvalues --  -11.21366 -11.21347 -11.21305 -11.21071 -11.21053
 Alpha  occ. eigenvalues --  -11.21009 -11.20856  -1.08434  -1.08380  -1.03562
 Alpha  occ. eigenvalues --   -1.03439  -0.96052  -0.95850  -0.87103  -0.86840
 Alpha  occ. eigenvalues --   -0.79697  -0.79449  -0.78254  -0.78185  -0.65071
 Alpha  occ. eigenvalues --   -0.65012  -0.60981  -0.60863  -0.59413  -0.59219
 Alpha  occ. eigenvalues --   -0.57644  -0.57513  -0.55297  -0.55206  -0.52690
 Alpha  occ. eigenvalues --   -0.52680  -0.52477  -0.52178  -0.49921  -0.49852
 Alpha  occ. eigenvalues --   -0.47973  -0.47724  -0.46646  -0.46518  -0.45812
 Alpha  occ. eigenvalues --   -0.45716  -0.45699  -0.45587  -0.43788  -0.43711
 Alpha virt. eigenvalues --    0.21599   0.22992   0.23592   0.24897   0.26283
 Alpha virt. eigenvalues --    0.26456   0.26892   0.27475   0.27748   0.29484
 Alpha virt. eigenvalues --    0.30129   0.30312   0.31415   0.31910   0.32296

 Mulliken charges:
               1
     1  C   -0.298205
     2  C   -0.301182
     3  C   -0.480746
     4  H    0.149938
     5  H    0.149532
     6  H    0.150905
     7  H    0.151622
     8  H    0.153430
     9  H    0.163059
    10  H    0.160832
    11  C   -0.298218
    12  C   -0.299629
    13  C   -0.475674
    14  H    0.149276
    15  H    0.149527
    16  H    0.151950
    17  H    0.151893
    18  H    0.155119
    19  H    0.155101
    20  H    0.160175
    21  C   -0.298957
    22  C   -0.299997
    23  C   -0.478875
    24  H    0.149722
    25  H    0.150131
    26  H    0.151530
    27  H    0.151763
    28  H    0.157490
    29  H    0.159503
    30  H    0.158919
    31  C   -0.298273
    32  C   -0.299687
    33  C   -0.475699
    34  H    0.149495
    35  H    0.149734
    36  H    0.151860
    37  H    0.151994
    38  H    0.155203
    39  H    0.155173
    40  H    0.160268
 Sum of Mulliken charges =  -0.00000

 Dipole moment (field-independent basis, Debye):
    X=              0.0252    Y=              0.0275    Z=              0.0109  Tot=              0.0388
 Quadrupole moment (field-independent basis, Debye-Ang):
   XX=            -86.5507   YY=            -84.2855   ZZ=            -84.1210
   XY=              0.4383   XZ=             -0.1670   YZ=             -0.3240

 Normal termination of Gaussian 16 at Thu May  6 02:26:31 2021.
