 Gaussian 16, Revision A.03,
 Gaussian 16:  EM64L-G16RevA.03 25-Dec-2016

 -------------
 #p 6-31g* mp2
 -------------

 ------------------------------------------------------
 Input file generated by CHIRIPA (05-May-2021 14:51:09)
 ------------------------------------------------------
 Symbolic Z-matrix:
 Charge =  0 Multiplicity = 1

                         Standard orientation:
 ---------------------------------------------------------------------
 Center     Atomic      Atomic             Coordinates (Angstroms)
 Number     Number       Type             X           Y           Z
 ---------------------------------------------------------------------
      1          6           0        4.133053   -0.671924    0.253608
      2          6           0        4.904122   -0.367712   -1.031262
      3          6           0        5.958602   -1.427186   -1.352794
      4          1           0        4.841997   -0.751094    1.089117
      5          1           0        3.650143   -1.654418    0.159272
      6          1           0        5.384297    0.614527   -0.935067
      7          1           0        4.193241   -0.289068   -1.863776
      8          1           0        5.492234   -2.410054   -1.475560
      9          1           0        6.690057   -1.501325   -0.541574
     10          1           0        6.497836   -1.189941   -2.275183
     11          6           0        3.075302    0.378217    0.588414
     12          6           0        2.304233    0.074005    1.873285
     13          6           0        1.249753    1.133479    2.194816
     14          1           0        3.558212    1.360711    0.682750
     15          1           0        2.366358    0.457387   -0.247095
     16          1           0        3.015114   -0.004639    2.705798
     17          1           0        1.824058   -0.908234    1.777089
     18          1           0        0.518298    1.207618    1.383596
     19          1           0        1.716121    2.116347    2.317582
     20          1           0        0.710519    0.896234    3.117205
     21          6           0       -4.000006   -0.484774   -0.587739
     22          6           0       -4.913646   -0.945420    0.548506
     23          6           0       -5.698898   -2.210181    0.199862
     24          1           0       -4.605359   -0.306045   -1.486932
     25          1           0       -3.300559   -1.294525   -0.837683
     26          1           0       -5.610251   -0.134540    0.797166
     27          1           0       -4.306073   -1.122889    1.445153
     28          1           0       -5.017432   -3.036221   -0.027871
     29          1           0       -6.329020   -2.042258   -0.679540
     30          1           0       -6.345544   -2.521785    1.026065
     31          6           0       -3.208349    0.778481   -0.254284
     32          6           0       -2.294708    1.239127   -1.390529
     33          6           0       -1.509457    2.503888   -1.041884
     34          1           0       -3.907796    1.588232   -0.004339
     35          1           0       -2.602996    0.599752    0.644910
     36          1           0       -2.902282    1.416596   -2.287175
     37          1           0       -1.598103    0.428247   -1.639189
     38          1           0       -0.879335    2.335964   -0.162482
     39          1           0       -2.190923    3.329928   -0.814151
     40          1           0       -0.862811    2.815492   -1.868087
 ---------------------------------------------------------------------

 SCF Done:  E(RHF) =  -470.733338034     A.U. after   11 cycles
 E2 =    -0.1582541447D+01 EUMP2 =    -0.47231587948087D+03

 The electronic state is 1-A.
 Alpha  occ. eigenvalues --  -11.21643 -11.21615 -11.21614 -11.21603 -11.21426
 Alpha  occ. eigenvalues --  -11.21410 -11.21367 -11.21351 -11.21121 -11.21082
 Alpha  occ. eigenvalues --  -11.21075 -11.21048  -1.08457  -1.08435  -1.03568
 Alpha  occ. eigenvalues --   -1.03527  -0.96025  -0.95968  -0.87049  -0.86977
 Alpha  occ. eigenvalues --   -0.79654  -0.79565  -0.78274  -0.78238  -0.65133
 Alpha  occ. eigenvalues --   -0.65029  -0.61082  -0.60831  -0.59377  -0.59349
 Alpha  occ. eigenvalues --   -0.57678  -0.57544  -0.55432  -0.55154  -0.52704
 Alpha  occ. eigenvalues --   -0.52673  -0.52530  -0.52319  -0.50093  -0.49801
 Alpha  occ. eigenvalues --   -0.48034  -0.47819  -0.46763  -0.46510  -0.45858
 Alpha  occ. eigenvalues --   -0.45762  -0.45737  -0.45624  -0.43812  -0.43788
 Alpha virt. eigenvalues --    0.20817   0.23141   0.23573   0.24933   0.26007
 Alpha virt. eigenvalues --    0.26822   0.27141   0.27435   0.28009   0.28920
 Alpha virt. eigenvalues --    0.30449   0.31665   0.31756   0.31846   0.32010

 Mulliken charges:
               1
     1  C   -0.298329
     2  C   -0.299685
     3  C   -0.475721
     4  H    0.149730
     5  H    0.149394
     6  H    0.152049
     7  H    0.152013
     8  H    0.155151
     9  H    0.155201
    10  H    0.160331
    11  C   -0.298482
    12  C   -0.299279
    13  C   -0.483276
    14  H    0.149816
    15  H    0.149832
    16  H    0.152247
    17  H    0.151582
    18  H    0.161395
    19  H    0.155973
    20  H    0.160543
    21  C   -0.298220
    22  C   -0.299688
    23  C   -0.475703
    24  H    0.149701
    25  H    0.149262
    26  H    0.152013
    27  H    0.152070
    28  H    0.155095
    29  H    0.155178
    30  H    0.160292
    31  C   -0.299396
    32  C   -0.299280
    33  C   -0.482961
    34  H    0.149813
    35  H    0.150426
    36  H    0.152152
    37  H    0.150903
    38  H    0.161959
    39  H    0.155613
    40  H    0.160288
 Sum of Mulliken charges =  -0.00000

 Dipole moment (field-independent basis, Debye):
    X=              0.0109    Y=              0.0117    Z=              0.0118  Tot=              0.0199
 Quadrupole moment (field-independent basis, Debye-Ang):
   XX=            -84.7077   YY=            -85.4582   ZZ=            -84.5122
   XY=             -0.1017   XZ=              0.8970   YZ=             -0.2538

 Normal termination of Gaussian 16 at Wed May  5 19:42:43 2021.
