 Gaussian 16, Revision A.03,
 Gaussian 16:  EM64L-G16RevA.03 25-Dec-2016

 -------------
 #p 6-31g* mp2
 -------------

 ------------------------------------------------------
 Input file generated by CHIRIPA (05-May-2021 14:55:22)
 ------------------------------------------------------
 Symbolic Z-matrix:
 Charge =  0 Multiplicity = 1

                         Standard orientation:
 ---------------------------------------------------------------------
 Center     Atomic      Atomic             Coordinates (Angstroms)
 Number     Number       Type             X           Y           Z
 ---------------------------------------------------------------------
      1          6           0       -1.258707    0.394462    2.332556
      2          6           0       -2.559122    0.873738    2.143519
      3          6           0       -3.253554    0.595826    0.962385
      4          6           0       -2.614388   -0.167788   -0.013141
      5          6           0       -1.319673   -0.659522    0.145610
      6          6           0       -0.644216   -0.369292    1.334758
      7          1           0       -0.726626    0.615135    3.253202
      8          1           0       -3.038835    1.467126    2.916701
      9          1           0       -4.261105    0.954319    0.789927
     10          1           0       -0.867721   -1.248442   -0.643269
     11          1           0        0.365618   -0.742820    1.478830
     12          7           0       -3.339508   -0.468521   -1.267796
     13          8           0       -2.754240   -1.143460   -2.111927
     14          8           0       -4.479394   -0.023603   -1.383308
     15          6           0        3.438941    0.819140   -0.525689
     16          6           0        2.426855    1.953361   -0.360740
     17          6           0        2.932440    3.282970   -0.921381
     18          1           0        4.376439    1.097098   -0.024908
     19          1           0        3.677035    0.701717   -1.591953
     20          1           0        2.189695    2.067693    0.704763
     21          1           0        1.491593    1.672589   -0.861809
     22          1           0        3.151256    3.192075   -1.990240
     23          1           0        3.853325    3.589423   -0.414766
     24          1           0        2.193278    4.079846   -0.792973
     25          6           0        2.947949   -0.516488    0.029967
     26          6           0        3.960035   -1.650710   -0.134982
     27          6           0        3.454451   -2.980318    0.425658
     28          1           0        2.709856   -0.399065    1.096230
     29          1           0        2.010451   -0.794446   -0.470814
     30          1           0        4.895297   -1.369938    0.366086
     31          1           0        4.197195   -1.765042   -1.200486
     32          1           0        2.533566   -3.286772   -0.080956
     33          1           0        3.235633   -2.889423    1.494517
     34          1           0        4.193612   -3.777194    0.297250
 ---------------------------------------------------------------------

 SCF Done:  E(RHF) =  -669.535078636     A.U. after   15 cycles
 E2 =    -0.2092846753D+01 EUMP2 =    -0.67162792538866D+03

 The electronic state is 1-A.
 Alpha  occ. eigenvalues --  -20.60727 -20.60722 -15.85777 -11.31122 -11.27672
 Alpha  occ. eigenvalues --  -11.27660 -11.27389 -11.26700 -11.26581 -11.22398
 Alpha  occ. eigenvalues --  -11.22313 -11.22116 -11.22017 -11.21812 -11.21449
 Alpha  occ. eigenvalues --   -1.59802  -1.39357  -1.19276  -1.09175  -1.08674
 Alpha  occ. eigenvalues --   -1.04670  -1.04157  -0.96632  -0.95520  -0.87642
 Alpha  occ. eigenvalues --   -0.86074  -0.82364  -0.80240  -0.79060  -0.77369
 Alpha  occ. eigenvalues --   -0.71997  -0.71125  -0.70393  -0.65806  -0.64921
 Alpha  occ. eigenvalues --   -0.64670  -0.62046  -0.61538  -0.59997  -0.58237
 Alpha  occ. eigenvalues --   -0.55925  -0.55181  -0.53302  -0.53129  -0.52991
 Alpha  occ. eigenvalues --   -0.52680  -0.50565  -0.48766  -0.48755  -0.48526
 Alpha  occ. eigenvalues --   -0.47275  -0.46474  -0.46454  -0.44767  -0.44452
 Alpha  occ. eigenvalues --   -0.37252  -0.36242
 Alpha virt. eigenvalues --    0.05097   0.11336   0.16545   0.19992   0.22728
 Alpha virt. eigenvalues --    0.23597   0.24291   0.25704   0.27380   0.28615
 Alpha virt. eigenvalues --    0.29690   0.30208   0.31105   0.31309   0.31775

 Mulliken charges:
               1
     1  C   -0.173374
     2  C   -0.218131
     3  C   -0.171671
     4  C    0.159013
     5  C   -0.176519
     6  C   -0.218875
     7  H    0.224877
     8  H    0.222953
     9  H    0.275167
    10  H    0.274685
    11  H    0.233520
    12  N    0.488246
    13  O   -0.461065
    14  O   -0.460569
    15  C   -0.298010
    16  C   -0.300719
    17  C   -0.476345
    18  H    0.151272
    19  H    0.154105
    20  H    0.147328
    21  H    0.156138
    22  H    0.157879
    23  H    0.154942
    24  H    0.162156
    25  C   -0.303916
    26  C   -0.299303
    27  C   -0.478001
    28  H    0.142513
    29  H    0.147882
    30  H    0.154462
    31  H    0.156909
    32  H    0.155007
    33  H    0.151867
    34  H    0.165576
 Sum of Mulliken charges =  -0.00000

 Dipole moment (field-independent basis, Debye):
    X=              2.7566    Y=              1.0873    Z=              4.3258  Tot=              5.2434
 Quadrupole moment (field-independent basis, Debye-Ang):
   XX=           -104.5649   YY=            -95.1372   ZZ=            -94.2111
   XY=             -5.8494   XZ=            -13.0726   YZ=              0.8032

 Normal termination of Gaussian 16 at Thu May  6 19:13:55 2021.
