 Gaussian 16, Revision A.03,
 Gaussian 16:  EM64L-G16RevA.03 25-Dec-2016

 -------------
 #p 6-31g* mp2
 -------------

 ------------------------------------------------------
 Input file generated by CHIRIPA (05-May-2021 14:55:22)
 ------------------------------------------------------
 Symbolic Z-matrix:
 Charge =  0 Multiplicity = 1

                         Standard orientation:
 ---------------------------------------------------------------------
 Center     Atomic      Atomic             Coordinates (Angstroms)
 Number     Number       Type             X           Y           Z
 ---------------------------------------------------------------------
      1          6           0        5.107889   -1.741590   -0.597147
      2          6           0        3.931376   -1.962983    0.126264
      3          6           0        3.062465   -0.905066    0.409730
      4          6           0        3.402705    0.367103   -0.047556
      5          6           0        4.567497    0.619602   -0.770600
      6          6           0        5.421641   -0.453275   -1.042485
      7          1           0        5.777144   -2.569215   -0.812853
      8          1           0        3.685155   -2.962450    0.473376
      9          1           0        2.145121   -1.048298    0.967749
     10          1           0        4.786005    1.627039   -1.103379
     11          1           0        6.334652   -0.278386   -1.604508
     12          7           0        2.490644    1.494991    0.246407
     13          8           0        2.813139    2.606386   -0.167640
     14          8           0        1.470546    1.246278    0.885296
     15          6           0       -3.983382    0.042351    0.558250
     16          6           0       -2.807672   -0.923938    0.706498
     17          6           0       -1.686336   -0.360959    1.580255
     18          1           0       -3.621612    0.986927    0.129482
     19          1           0       -4.379279    0.282745    1.554679
     20          1           0       -2.414990   -1.163520   -0.290005
     21          1           0       -3.172318   -1.866392    1.134785
     22          1           0       -2.056556   -0.138730    2.586313
     23          1           0       -1.294925    0.568135    1.153428
     24          1           0       -0.856044   -1.068006    1.672788
     25          6           0       -5.112358   -0.506258   -0.312479
     26          6           0       -6.288068    0.460031   -0.460726
     27          6           0       -7.409405   -0.102949   -1.334485
     28          1           0       -4.716460   -0.746652   -1.308908
     29          1           0       -5.474128   -1.450835    0.116289
     30          1           0       -5.923422    1.402485   -0.889014
     31          1           0       -6.680751    0.699613    0.535776
     32          1           0       -7.800816   -1.032043   -0.907657
     33          1           0       -7.039185   -0.325178   -2.340542
     34          1           0       -8.239695    0.604099   -1.427017
 ---------------------------------------------------------------------

 SCF Done:  E(RHF) =  -669.535753934     A.U. after   15 cycles
 E2 =    -0.2090969375D+01 EUMP2 =    -0.67162672330807D+03

 The electronic state is 1-A.
 Alpha  occ. eigenvalues --  -20.60845 -20.60840 -15.85886 -11.31232 -11.27802
 Alpha  occ. eigenvalues --  -11.27794 -11.27544 -11.26814 -11.26804 -11.21203
 Alpha  occ. eigenvalues --  -11.20959 -11.20935 -11.20779 -11.20754 -11.20079
 Alpha  occ. eigenvalues --   -1.59916  -1.39469  -1.19405  -1.08806  -1.07901
 Alpha  occ. eigenvalues --   -1.04805  -1.02964  -0.95651  -0.95383  -0.86400
 Alpha  occ. eigenvalues --   -0.86204  -0.82476  -0.79036  -0.77717  -0.77510
 Alpha  occ. eigenvalues --   -0.72114  -0.71234  -0.70514  -0.65062  -0.64809
 Alpha  occ. eigenvalues --   -0.64530  -0.62154  -0.60349  -0.58801  -0.57020
 Alpha  occ. eigenvalues --   -0.55309  -0.54650  -0.53136  -0.52902  -0.52095
 Alpha  occ. eigenvalues --   -0.51805  -0.49325  -0.48867  -0.48837  -0.47341
 Alpha  occ. eigenvalues --   -0.46071  -0.45246  -0.45184  -0.44834  -0.43234
 Alpha  occ. eigenvalues --   -0.37387  -0.36408
 Alpha virt. eigenvalues --    0.04995   0.11246   0.16477   0.20941   0.23333
 Alpha virt. eigenvalues --    0.24258   0.26415   0.27182   0.27660   0.28043
 Alpha virt. eigenvalues --    0.29232   0.30370   0.31540   0.32053   0.32339

 Mulliken charges:
               1
     1  C   -0.170521
     2  C   -0.219274
     3  C   -0.172330
     4  C    0.157230
     5  C   -0.170535
     6  C   -0.218743
     7  H    0.225763
     8  H    0.223806
     9  H    0.278868
    10  H    0.275653
    11  H    0.223564
    12  N    0.491643
    13  O   -0.460069
    14  O   -0.463189
    15  C   -0.298506
    16  C   -0.300035
    17  C   -0.477188
    18  H    0.153328
    19  H    0.148891
    20  H    0.148696
    21  H    0.146496
    22  H    0.151601
    23  H    0.180428
    24  H    0.148370
    25  C   -0.297699
    26  C   -0.299473
    27  C   -0.475401
    28  H    0.148338
    29  H    0.147652
    30  H    0.152936
    31  H    0.151630
    32  H    0.154076
    33  H    0.154482
    34  H    0.159510
 Sum of Mulliken charges =  -0.00000

 Dipole moment (field-independent basis, Debye):
    X=              3.3797    Y=             -3.8253    Z=             -1.0417  Tot=              5.2097
 Quadrupole moment (field-independent basis, Debye-Ang):
   XX=            -72.6485   YY=            -96.1587   ZZ=            -94.0019
   XY=            -10.8070   XZ=             -6.4666   YZ=             -2.2830

 Normal termination of Gaussian 16 at Thu May  6 17:34:30 2021.
