 Gaussian 16, Revision A.03,
 Gaussian 16:  EM64L-G16RevA.03 25-Dec-2016

 -------------
 #p 6-31g* mp2
 -------------

 ------------------------------------------------------
 Input file generated by CHIRIPA (05-May-2021 14:55:24)
 ------------------------------------------------------
 Symbolic Z-matrix:
 Charge =  0 Multiplicity = 1

                         Standard orientation:
 ---------------------------------------------------------------------
 Center     Atomic      Atomic             Coordinates (Angstroms)
 Number     Number       Type             X           Y           Z
 ---------------------------------------------------------------------
      1          6           0       -2.187881   -2.776972    0.548982
      2          6           0       -3.447755   -2.303866    0.167656
      3          6           0       -3.633780   -0.954754   -0.148320
      4          6           0       -2.533076   -0.102745   -0.072016
      5          6           0       -1.265451   -0.543876    0.304575
      6          6           0       -1.102664   -1.897019    0.616106
      7          1           0       -2.052398   -3.826561    0.792713
      8          1           0       -4.292350   -2.984964    0.114654
      9          1           0       -4.598207   -0.561810   -0.446472
     10          1           0       -0.442496    0.159159    0.348223
     11          1           0       -0.123084   -2.261643    0.911941
     12          7           0       -2.717713    1.327633   -0.404173
     13          8           0       -1.731968    2.057922   -0.329194
     14          8           0       -3.844680    1.691390   -0.733207
     15          6           0        3.465252   -0.081993   -0.477258
     16          6           0        4.324285   -1.169849    0.168201
     17          6           0        4.840783   -2.193222   -0.843596
     18          1           0        2.615916   -0.551647   -0.992037
     19          1           0        4.054655    0.430450   -1.250174
     20          1           0        3.733883   -1.679169    0.940622
     21          1           0        5.171569   -0.697537    0.681665
     22          1           0        5.452259   -1.703842   -1.608583
     23          1           0        4.006404   -2.691051   -1.348155
     24          1           0        5.452463   -2.961706   -0.360750
     25          6           0        2.941523    0.948525    0.521475
     26          6           0        2.082489    2.036381   -0.123982
     27          6           0        1.565991    3.059753    0.887815
     28          1           0        2.352118    0.436081    1.294392
     29          1           0        3.790858    1.418178    1.036256
     30          1           0        1.235204    1.564070   -0.637447
     31          1           0        2.672891    2.545701   -0.896404
     32          1           0        2.400370    3.557582    1.392374
     33          1           0        0.954515    2.570374    1.652802
     34          1           0        0.954311    3.828237    0.404968
 ---------------------------------------------------------------------

 SCF Done:  E(RHF) =  -669.535537211     A.U. after   15 cycles
 E2 =    -0.2092828920D+01 EUMP2 =    -0.67162836613153D+03

 The electronic state is 1-A.
 Alpha  occ. eigenvalues --  -20.60866 -20.60861 -15.85903 -11.31244 -11.27811
 Alpha  occ. eigenvalues --  -11.27791 -11.27552 -11.26827 -11.26817 -11.21975
 Alpha  occ. eigenvalues --  -11.21669 -11.21540 -11.21419 -11.21307 -11.20446
 Alpha  occ. eigenvalues --   -1.59932  -1.39487  -1.19417  -1.08817  -1.08589
 Alpha  occ. eigenvalues --   -1.04818  -1.03536  -0.95973  -0.95650  -0.86989
 Alpha  occ. eigenvalues --   -0.86218  -0.82487  -0.79629  -0.78365  -0.77541
 Alpha  occ. eigenvalues --   -0.72133  -0.71247  -0.70537  -0.65332  -0.65072
 Alpha  occ. eigenvalues --   -0.64786  -0.62208  -0.60876  -0.59368  -0.57540
 Alpha  occ. eigenvalues --   -0.55327  -0.55273  -0.53147  -0.52908  -0.52594
 Alpha  occ. eigenvalues --   -0.52385  -0.49956  -0.48895  -0.48872  -0.47903
 Alpha  occ. eigenvalues --   -0.46709  -0.45884  -0.45846  -0.44859  -0.43801
 Alpha  occ. eigenvalues --   -0.37397  -0.36418
 Alpha virt. eigenvalues --    0.04961   0.11202   0.16469   0.18914   0.23091
 Alpha virt. eigenvalues --    0.23564   0.25672   0.27010   0.27702   0.28279
 Alpha virt. eigenvalues --    0.30156   0.30731   0.31548   0.31784   0.32109

 Mulliken charges:
               1
     1  C   -0.170234
     2  C   -0.218971
     3  C   -0.169781
     4  C    0.155656
     5  C   -0.177838
     6  C   -0.222656
     7  H    0.225935
     8  H    0.223711
     9  H    0.275758
    10  H    0.290299
    11  H    0.224319
    12  N    0.489681
    13  O   -0.463809
    14  O   -0.459517
    15  C   -0.298095
    16  C   -0.298573
    17  C   -0.475543
    18  H    0.144561
    19  H    0.153481
    20  H    0.145394
    21  H    0.154584
    22  H    0.157726
    23  H    0.153055
    24  H    0.160368
    25  C   -0.300020
    26  C   -0.308736
    27  C   -0.470928
    28  H    0.138993
    29  H    0.152455
    30  H    0.158322
    31  H    0.154264
    32  H    0.149139
    33  H    0.151896
    34  H    0.175103
 Sum of Mulliken charges =  -0.00000

 Dipole moment (field-independent basis, Debye):
    X=              0.5824    Y=             -4.8645    Z=              1.0833  Tot=              5.0176
 Quadrupole moment (field-independent basis, Debye-Ang):
   XX=            -92.6878   YY=            -93.9542   ZZ=            -96.0992
   XY=             14.8017   XZ=             -2.1027   YZ=             -0.3148

 Normal termination of Gaussian 16 at Thu May  6 20:54:40 2021.
