 Gaussian 16, Revision A.03,
 Gaussian 16:  EM64L-G16RevA.03 25-Dec-2016

 -------------
 #p 6-31g* mp2
 -------------

 ------------------------------------------------------
 Input file generated by CHIRIPA (05-May-2021 14:57:26)
 ------------------------------------------------------
 Symbolic Z-matrix:
 Charge =  0 Multiplicity = 1

                         Standard orientation:
 ---------------------------------------------------------------------
 Center     Atomic      Atomic             Coordinates (Angstroms)
 Number     Number       Type             X           Y           Z
 ---------------------------------------------------------------------
      1          6           0       -1.470702   -1.670979    0.603061
      2          6           0       -1.412630   -0.883384   -0.551428
      3          6           0       -2.483436   -0.055067   -0.900446
      4          6           0       -3.601813   -0.038875   -0.068424
      5          6           0       -3.689678   -0.811897    1.088299
      6          6           0       -2.607037   -1.632789    1.417803
      7          1           0       -0.634277   -2.311551    0.866607
      8          1           0       -0.531412   -0.911021   -1.186042
      9          1           0       -2.464956    0.564966   -1.788497
     10          1           0       -4.581551   -0.763045    1.701155
     11          1           0       -2.654911   -2.243365    2.314993
     12          7           0       -4.741692    0.834096   -0.427584
     13          8           0       -5.715644    0.830377    0.322109
     14          8           0       -4.639593    1.505521   -1.451987
     15          6           0        3.427175    2.632144    0.614398
     16          6           0        4.609368    2.005407    0.206795
     17          6           0        4.613790    0.648758   -0.130895
     18          6           0        3.412669   -0.054046   -0.049275
     19          6           0        2.218562    0.542072    0.353268
     20          6           0        2.237641    1.899767    0.686207
     21          1           0        3.432868    3.686427    0.874879
     22          1           0        5.534652    2.571694    0.150095
     23          1           0        5.514659    0.138577   -0.449592
     24          1           0        1.311748   -0.048627    0.399971
     25          1           0        1.318031    2.383880    1.002429
     26          7           0        3.404909   -1.490823   -0.404259
     27          8           0        2.333588   -2.087879   -0.324062
     28          8           0        4.470297   -1.992708   -0.755969
 ---------------------------------------------------------------------

 SCF Done:  E(RHF) =  -868.340070582     A.U. after   16 cycles
 E2 =    -0.2600420553D+01 EUMP2 =    -0.87094049113472D+03

 The electronic state is 1-A.
 Alpha  occ. eigenvalues --  -20.61844 -20.61762 -20.60822 -20.60816 -15.86831
 Alpha  occ. eigenvalues --  -15.85873 -11.31914 -11.31193 -11.28437 -11.28416
 Alpha  occ. eigenvalues --  -11.28096 -11.27761 -11.27757 -11.27379 -11.27369
 Alpha  occ. eigenvalues --  -11.27310 -11.26689 -11.26630  -1.60855  -1.59900
 Alpha  occ. eigenvalues --   -1.40427  -1.39454  -1.20052  -1.19349  -1.09491
 Alpha  occ. eigenvalues --   -1.08718  -1.05411  -1.04739  -0.96379  -0.95558
 Alpha  occ. eigenvalues --   -0.86833  -0.86108  -0.83226  -0.82393  -0.78330
 Alpha  occ. eigenvalues --   -0.77475  -0.73071  -0.72159  -0.72085  -0.71228
 Alpha  occ. eigenvalues --   -0.71160  -0.70324  -0.65706  -0.65450  -0.64963
 Alpha  occ. eigenvalues --   -0.64668  -0.62783  -0.62028  -0.55906  -0.55083
 Alpha  occ. eigenvalues --   -0.53758  -0.53559  -0.53023  -0.52760  -0.49834
 Alpha  occ. eigenvalues --   -0.49762  -0.48849  -0.48838  -0.45883  -0.44870
 Alpha  occ. eigenvalues --   -0.38006  -0.37293  -0.37009  -0.36368
 Alpha virt. eigenvalues --    0.04164   0.05035   0.10580   0.11113   0.15751
 Alpha virt. eigenvalues --    0.16551   0.20555   0.21915   0.26423   0.27198
 Alpha virt. eigenvalues --    0.27930   0.28892   0.30789   0.31306   0.31868

 Mulliken charges:
               1
     1  C   -0.179795
     2  C   -0.232574
     3  C   -0.173675
     4  C    0.157386
     5  C   -0.171251
     6  C   -0.219647
     7  H    0.245062
     8  H    0.234995
     9  H    0.274950
    10  H    0.275305
    11  H    0.224658
    12  N    0.488069
    13  O   -0.460531
    14  O   -0.461251
    15  C   -0.169613
    16  C   -0.218504
    17  C   -0.169803
    18  C    0.157483
    19  C   -0.177725
    20  C   -0.221692
    21  H    0.229112
    22  H    0.226148
    23  H    0.276859
    24  H    0.275748
    25  H    0.228384
    26  N    0.491176
    27  O   -0.476039
    28  O   -0.453235
 Sum of Mulliken charges =  -0.00000

 Dipole moment (field-independent basis, Debye):
    X=              4.3140    Y=              2.0101    Z=              2.5466  Tot=              5.3978
 Quadrupole moment (field-independent basis, Debye-Ang):
   XX=           -127.2868   YY=           -105.2880   ZZ=           -102.6552
   XY=             30.0873   XZ=             -4.0372   YZ=             -1.5764

 Normal termination of Gaussian 16 at Thu May  6 22:54:53 2021.
