 Gaussian 16, Revision A.03,
 Gaussian 16:  EM64L-G16RevA.03 25-Dec-2016

 -------------
 #p 6-31g* mp2
 -------------

 ------------------------------------------------------
 Input file generated by CHIRIPA (05-May-2021 14:53:14)
 ------------------------------------------------------
 Symbolic Z-matrix:
 Charge =  0 Multiplicity = 1

                         Standard orientation:
 ---------------------------------------------------------------------
 Center     Atomic      Atomic             Coordinates (Angstroms)
 Number     Number       Type             X           Y           Z
 ---------------------------------------------------------------------
      1          6           0        3.218847   -1.162196    0.231161
      2          6           0        1.726247   -1.374055   -0.024276
      3          6           0        1.208049   -2.690062    0.556577
      4          1           0        3.780981   -2.001675   -0.200377
      5          1           0        3.405288   -1.184837    1.313807
      6          1           0        1.542471   -1.349640   -1.106055
      7          1           0        1.167616   -0.533878    0.407753
      8          1           0        1.362485   -2.720252    1.640016
      9          1           0        1.739470   -3.540649    0.117607
     10          1           0        0.138937   -2.821182    0.362498
     11          6           0        3.751677    0.149116   -0.343539
     12          6           0        5.244276    0.360975   -0.088103
     13          6           0        5.762474    1.676983   -0.668956
     14          1           0        3.565235    0.171757   -1.426185
     15          1           0        3.189542    0.988595    0.087999
     16          1           0        5.802908   -0.479202   -0.520132
     17          1           0        5.428053    0.336561    0.993677
     18          1           0        5.231054    2.527570   -0.229985
     19          1           0        5.608039    1.707172   -1.752394
     20          1           0        6.831586    1.808102   -0.474876
     21          6           0       -1.968046    2.739511    0.594249
     22          6           0       -3.038168    2.536672   -0.283370
     23          6           0       -3.464929    1.242453   -0.595495
     24          6           0       -2.795834    0.169146   -0.009308
     25          6           0       -1.726456    0.338756    0.868731
     26          6           0       -1.316753    1.641841    1.166489
     27          1           0       -1.643153    3.748336    0.831135
     28          1           0       -3.545839    3.387256   -0.729264
     29          1           0       -4.290570    1.056757   -1.271699
     30          1           0       -1.240068   -0.528961    1.297581
     31          1           0       -0.485387    1.796365    1.848397
     32          7           0       -3.238597   -1.205678   -0.332136
     33          8           0       -2.632505   -2.134536    0.197500
     34          8           0       -4.183343   -1.328376   -1.108691
 ---------------------------------------------------------------------

 SCF Done:  E(RHF) =  -669.535713408     A.U. after   15 cycles
 E2 =    -0.2092720905D+01 EUMP2 =    -0.67162843431306D+03

 The electronic state is 1-A.
 Alpha  occ. eigenvalues --  -20.60914 -20.60898 -15.85943 -11.31239 -11.27822
 Alpha  occ. eigenvalues --  -11.27791 -11.27557 -11.26821 -11.26812 -11.21787
 Alpha  occ. eigenvalues --  -11.21616 -11.21574 -11.21449 -11.21288 -11.20655
 Alpha  occ. eigenvalues --   -1.59969  -1.39527  -1.19421  -1.08826  -1.08543
 Alpha  occ. eigenvalues --   -1.04820  -1.03580  -0.96008  -0.95663  -0.87006
 Alpha  occ. eigenvalues --   -0.86216  -0.82512  -0.79650  -0.78372  -0.77561
 Alpha  occ. eigenvalues --   -0.72173  -0.71282  -0.70536  -0.65217  -0.65070
 Alpha  occ. eigenvalues --   -0.64819  -0.62220  -0.60965  -0.59344  -0.57593
 Alpha  occ. eigenvalues --   -0.55374  -0.55253  -0.53148  -0.52913  -0.52624
 Alpha  occ. eigenvalues --   -0.52399  -0.49961  -0.48931  -0.48916  -0.47931
 Alpha  occ. eigenvalues --   -0.46719  -0.45905  -0.45835  -0.44941  -0.43784
 Alpha  occ. eigenvalues --   -0.37398  -0.36379
 Alpha virt. eigenvalues --    0.04907   0.11213   0.16321   0.20491   0.22893
 Alpha virt. eigenvalues --    0.24003   0.25992   0.27015   0.27048   0.28075
 Alpha virt. eigenvalues --    0.29215   0.30892   0.31529   0.31970   0.32008

 Mulliken charges:
               1
     1  C   -0.297542
     2  C   -0.301232
     3  C   -0.492053
     4  H    0.152013
     5  H    0.147299
     6  H    0.155174
     7  H    0.140250
     8  H    0.149297
     9  H    0.156670
    10  H    0.187120
    11  C   -0.296870
    12  C   -0.299636
    13  C   -0.475404
    14  H    0.150921
    15  H    0.143902
    16  H    0.153583
    17  H    0.151169
    18  H    0.152758
    19  H    0.155868
    20  H    0.160865
    21  C   -0.170221
    22  C   -0.218749
    23  C   -0.170622
    24  C    0.155906
    25  C   -0.168822
    26  C   -0.220069
    27  H    0.225917
    28  H    0.223688
    29  H    0.275692
    30  H    0.281053
    31  H    0.223729
    32  N    0.490332
    33  O   -0.462986
    34  O   -0.459001
 Sum of Mulliken charges =  -0.00000

 Dipole moment (field-independent basis, Debye):
    X=              1.4241    Y=              4.7617    Z=              1.0490  Tot=              5.0796
 Quadrupole moment (field-independent basis, Debye-Ang):
   XX=           -101.5690   YY=            -93.2197   ZZ=            -92.9526
   XY=            -15.5556   XZ=             -0.8962   YZ=             -0.2174

 Normal termination of Gaussian 16 at Thu May  6 18:47:01 2021.
