 Gaussian 16, Revision A.03,
 Gaussian 16:  EM64L-G16RevA.03 25-Dec-2016

 -------------
 #p 6-31g* mp2
 -------------

 ------------------------------------------------------
 Input file generated by CHIRIPA (05-May-2021 14:57:21)
 ------------------------------------------------------
 Symbolic Z-matrix:
 Charge =  0 Multiplicity = 1

                         Standard orientation:
 ---------------------------------------------------------------------
 Center     Atomic      Atomic             Coordinates (Angstroms)
 Number     Number       Type             X           Y           Z
 ---------------------------------------------------------------------
      1          6           0        3.130866   -1.907094   -0.850639
      2          6           0        3.958866   -0.972533   -0.220137
      3          6           0        3.481295    0.304447    0.089372
      4          6           0        2.164597    0.614559   -0.247415
      5          6           0        1.315144   -0.294689   -0.875894
      6          6           0        1.813969   -1.565790   -1.175932
      7          1           0        3.510110   -2.896799   -1.087394
      8          1           0        4.982015   -1.234825    0.033664
      9          1           0        4.100691    1.047256    0.577226
     10          1           0        0.299742   -0.004049   -1.116528
     11          1           0        1.168667   -2.289559   -1.665616
     12          7           0        1.647764    1.963329    0.075235
     13          8           0        0.483932    2.211907   -0.231915
     14          8           0        2.416288    2.746378    0.629169
     15          6           0       -0.784194   -1.773970    1.820090
     16          6           0       -1.093796   -0.452442    2.158067
     17          6           0       -1.904893    0.322437    1.323662
     18          6           0       -2.391465   -0.258688    0.153692
     19          6           0       -2.100830   -1.572537   -0.210481
     20          6           0       -1.287811   -2.328822    0.638977
     21          1           0       -0.153366   -2.368693    2.474123
     22          1           0       -0.704084   -0.018918    3.074708
     23          1           0       -2.160310    1.348011    1.561102
     24          1           0       -2.504122   -1.977103   -1.130863
     25          1           0       -1.049019   -3.354878    0.373962
     26          7           0       -3.251154    0.551799   -0.737624
     27          8           0       -3.667323    0.016533   -1.762773
     28          8           0       -3.492532    1.706980   -0.394211
 ---------------------------------------------------------------------

 SCF Done:  E(RHF) =  -868.336126358     A.U. after   16 cycles
 E2 =    -0.2605936523D+01 EUMP2 =    -0.87094206288095D+03

 The electronic state is 1-A.
 Alpha  occ. eigenvalues --  -20.61029 -20.61012 -20.60611 -20.60535 -15.86052
 Alpha  occ. eigenvalues --  -15.85641 -11.31376 -11.31195 -11.28007 -11.27934
 Alpha  occ. eigenvalues --  -11.27896 -11.27776 -11.27716 -11.27629 -11.27014
 Alpha  occ. eigenvalues --  -11.26977 -11.26955 -11.26764  -1.60093  -1.59648
 Alpha  occ. eigenvalues --   -1.39647  -1.39192  -1.19620  -1.19429  -1.09003
 Alpha  occ. eigenvalues --   -1.08787  -1.05022  -1.04835  -0.95836  -0.95573
 Alpha  occ. eigenvalues --   -0.86415  -0.86222  -0.82665  -0.82402  -0.77721
 Alpha  occ. eigenvalues --   -0.77406  -0.72293  -0.71854  -0.71433  -0.70998
 Alpha  occ. eigenvalues --   -0.70702  -0.70500  -0.65246  -0.65079  -0.65030
 Alpha  occ. eigenvalues --   -0.64833  -0.62395  -0.62167  -0.55563  -0.55345
 Alpha  occ. eigenvalues --   -0.53846  -0.53181  -0.52922  -0.52537  -0.49047
 Alpha  occ. eigenvalues --   -0.49035  -0.48642  -0.48583  -0.45065  -0.44542
 Alpha  occ. eigenvalues --   -0.37713  -0.37635  -0.36692  -0.35976
 Alpha virt. eigenvalues --    0.04721   0.05163   0.10702   0.11543   0.16258
 Alpha virt. eigenvalues --    0.16512   0.20650   0.21652   0.26169   0.27828
 Alpha virt. eigenvalues --    0.28039   0.28308   0.30168   0.31276   0.32525

 Mulliken charges:
               1
     1  C   -0.173010
     2  C   -0.220356
     3  C   -0.171894
     4  C    0.154029
     5  C   -0.162283
     6  C   -0.220996
     7  H    0.224175
     8  H    0.222976
     9  H    0.275275
    10  H    0.281306
    11  H    0.218859
    12  N    0.487199
    13  O   -0.459080
    14  O   -0.460984
    15  C   -0.167111
    16  C   -0.225165
    17  C   -0.153464
    18  C    0.153626
    19  C   -0.186561
    20  C   -0.218394
    21  H    0.224927
    22  H    0.227122
    23  H    0.285844
    24  H    0.273464
    25  H    0.218186
    26  N    0.488570
    27  O   -0.465779
    28  O   -0.450482
 Sum of Mulliken charges =  -0.00000

 Dipole moment (field-independent basis, Debye):
    X=              4.6791    Y=             -7.2303    Z=              2.1908  Tot=              8.8865
 Quadrupole moment (field-independent basis, Debye-Ang):
   XX=           -108.5904   YY=           -107.0513   ZZ=           -101.5490
   XY=             -2.2153   XZ=             -8.0732   YZ=              2.5620

 Normal termination of Gaussian 16 at Thu May  6 21:08:12 2021.
