 Gaussian 16, Revision A.03,
 Gaussian 16:  EM64L-G16RevA.03 25-Dec-2016

 -------------
 #p 6-31g* mp2
 -------------

 ------------------------------------------------------
 Input file generated by CHIRIPA (05-May-2021 14:57:22)
 ------------------------------------------------------
 Symbolic Z-matrix:
 Charge =  0 Multiplicity = 1

                         Standard orientation:
 ---------------------------------------------------------------------
 Center     Atomic      Atomic             Coordinates (Angstroms)
 Number     Number       Type             X           Y           Z
 ---------------------------------------------------------------------
      1          6           0        6.239017    0.980552   -0.280336
      2          6           0        5.979772   -0.231598   -0.928414
      3          6           0        4.713619   -0.819741   -0.854302
      4          6           0        3.725590   -0.165446   -0.120145
      5          6           0        3.952945    1.043003    0.536550
      6          6           0        5.226561    1.612869    0.448792
      7          1           0        7.225494    1.430337   -0.343209
      8          1           0        6.764144   -0.724912   -1.495377
      9          1           0        4.485622   -1.757482   -1.346316
     10          1           0        3.150864    1.511079    1.094215
     11          1           0        5.425033    2.554311    0.953115
     12          7           0        2.381220   -0.778413   -0.034463
     13          8           0        1.527802   -0.181983    0.618673
     14          8           0        2.206377   -1.843679   -0.622064
     15          6           0       -1.981426   -0.702032    1.517872
     16          6           0       -2.166881    0.660071    1.259410
     17          6           0       -3.252497    1.096142    0.494017
     18          6           0       -4.137199    0.138520    0.000505
     19          6           0       -3.979462   -1.225556    0.240725
     20          6           0       -2.886712   -1.638846    1.008604
     21          1           0       -1.135322   -1.031934    2.113413
     22          1           0       -1.465420    1.389856    1.653631
     23          1           0       -3.419927    2.144478    0.278666
     24          1           0       -4.695533   -1.929409   -0.165786
     25          1           0       -2.745187   -2.697319    1.207730
     26          7           0       -5.290268    0.588111   -0.811097
     27          8           0       -6.055491   -0.275509   -1.234457
     28          8           0       -5.406988    1.795605   -1.008504
 ---------------------------------------------------------------------

 SCF Done:  E(RHF) =  -868.339758877     A.U. after   16 cycles
 E2 =    -0.2598607219D+01 EUMP2 =    -0.87093836609580D+03

 The electronic state is 1-A.
 Alpha  occ. eigenvalues --  -20.61711 -20.61667 -20.59851 -20.59846 -15.86726
 Alpha  occ. eigenvalues --  -15.84898 -11.31860 -11.29983 -11.28424 -11.28379
 Alpha  occ. eigenvalues --  -11.28086 -11.27366 -11.27341 -11.26564 -11.26556
 Alpha  occ. eigenvalues --  -11.26072 -11.25437 -11.25411  -1.60751  -1.58934
 Alpha  occ. eigenvalues --   -1.40315  -1.38496  -1.20007  -1.18124  -1.09442
 Alpha  occ. eigenvalues --   -1.07523  -1.05377  -1.03508  -0.96319  -0.94414
 Alpha  occ. eigenvalues --   -0.86785  -0.84893  -0.83164  -0.81282  -0.78238
 Alpha  occ. eigenvalues --   -0.76401  -0.72973  -0.72053  -0.71125  -0.71111
 Alpha  occ. eigenvalues --   -0.70255  -0.69139  -0.65665  -0.65375  -0.63763
 Alpha  occ. eigenvalues --   -0.63497  -0.62731  -0.60887  -0.55878  -0.53887
 Alpha  occ. eigenvalues --   -0.53713  -0.53465  -0.51826  -0.51597  -0.49712
 Alpha  occ. eigenvalues --   -0.49673  -0.47893  -0.47853  -0.45768  -0.43967
 Alpha  occ. eigenvalues --   -0.37967  -0.36969  -0.35971  -0.35122
 Alpha virt. eigenvalues --    0.04282   0.06159   0.10690   0.12558   0.15825
 Alpha virt. eigenvalues --    0.17756   0.20838   0.22722   0.26763   0.27645
 Alpha virt. eigenvalues --    0.28509   0.29668   0.30482   0.31892   0.32389

 Mulliken charges:
               1
     1  C   -0.169877
     2  C   -0.218375
     3  C   -0.170258
     4  C    0.158203
     5  C   -0.170375
     6  C   -0.218260
     7  H    0.227953
     8  H    0.225726
     9  H    0.276767
    10  H    0.272347
    11  H    0.224939
    12  N    0.490550
    13  O   -0.470875
    14  O   -0.456603
    15  C   -0.156764
    16  C   -0.215152
    17  C   -0.173507
    18  C    0.156610
    19  C   -0.171942
    20  C   -0.219990
    21  H    0.234003
    22  H    0.221401
    23  H    0.270331
    24  H    0.271600
    25  H    0.221307
    26  N    0.488416
    27  O   -0.463691
    28  O   -0.464484
 Sum of Mulliken charges =  -0.00000

 Dipole moment (field-independent basis, Debye):
    X=              9.4229    Y=              0.4662    Z=              2.5951  Tot=              9.7849
 Quadrupole moment (field-independent basis, Debye-Ang):
   XX=           -104.0923   YY=            -98.9691   ZZ=           -104.3917
   XY=             15.0908   XZ=            -14.8981   YZ=              3.2937

 Normal termination of Gaussian 16 at Thu May  6 01:46:42 2021.
