 Gaussian 16, Revision A.03,
 Gaussian 16:  EM64L-G16RevA.03 25-Dec-2016

 -------------
 #p 6-31g* mp2
 -------------

 ------------------------------------------------------
 Input file generated by CHIRIPA (05-May-2021 14:57:25)
 ------------------------------------------------------
 Symbolic Z-matrix:
 Charge =  0 Multiplicity = 1

                         Standard orientation:
 ---------------------------------------------------------------------
 Center     Atomic      Atomic             Coordinates (Angstroms)
 Number     Number       Type             X           Y           Z
 ---------------------------------------------------------------------
      1          6           0        1.794088   -1.236693    0.863428
      2          6           0        2.302806   -1.448991   -0.422130
      3          6           0        3.465758   -0.796586   -0.842198
      4          6           0        4.097319    0.065207    0.053197
      5          6           0        3.615138    0.297458    1.340384
      6          6           0        2.450721   -0.365682    1.739038
      7          1           0        0.890110   -1.747667    1.181429
      8          1           0        1.794952   -2.124874   -1.104268
      9          1           0        3.881355   -0.942645   -1.831826
     10          1           0        4.143474    0.977076    1.997955
     11          1           0        2.057926   -0.198891    2.738006
     12          7           0        5.329260    0.761562   -0.380175
     13          8           0        5.867023    1.515852    0.427596
     14          8           0        5.733765    0.539889   -1.519418
     15          6           0       -5.143589    2.239523   -0.028643
     16          6           0       -3.766014    2.229531   -0.270940
     17          6           0       -3.063574    1.022027   -0.326258
     18          6           0       -3.773501   -0.162157   -0.133901
     19          6           0       -5.145943   -0.184994    0.109354
     20          6           0       -5.827950    1.034354    0.160398
     21          1           0       -5.681324    3.182142    0.012669
     22          1           0       -3.231932    3.163951   -0.418122
     23          1           0       -1.997039    0.985356   -0.512205
     24          1           0       -5.650975   -1.132604    0.252164
     25          1           0       -6.897787    1.039081    0.348739
     26          7           0       -3.040675   -1.446757   -0.190200
     27          8           0       -3.689227   -2.476402   -0.017434
     28          8           0       -1.831611   -1.399657   -0.406029
 ---------------------------------------------------------------------

 SCF Done:  E(RHF) =  -868.340285260     A.U. after   16 cycles
 E2 =    -0.2598233487D+01 EUMP2 =    -0.87093851874700D+03

 The electronic state is 1-A.
 Alpha  occ. eigenvalues --  -20.61766 -20.61704 -20.60297 -20.60289 -15.86770
 Alpha  occ. eigenvalues --  -15.85343 -11.31859 -11.30522 -11.28391 -11.28386
 Alpha  occ. eigenvalues --  -11.28076 -11.27341 -11.27329 -11.27118 -11.27043
 Alpha  occ. eigenvalues --  -11.26584 -11.26038 -11.25881  -1.60804  -1.59377
 Alpha  occ. eigenvalues --   -1.40366  -1.38936  -1.20005  -1.18662  -1.09449
 Alpha  occ. eigenvalues --   -1.08046  -1.05363  -1.04042  -0.96331  -0.94918
 Alpha  occ. eigenvalues --   -0.86773  -0.85416  -0.83174  -0.81769  -0.78250
 Alpha  occ. eigenvalues --   -0.76880  -0.73013  -0.72111  -0.71562  -0.71103
 Alpha  occ. eigenvalues --   -0.70702  -0.69642  -0.65658  -0.65356  -0.64286
 Alpha  occ. eigenvalues --   -0.64002  -0.62710  -0.61395  -0.55867  -0.54386
 Alpha  occ. eigenvalues --   -0.53710  -0.53446  -0.52383  -0.52102  -0.49767
 Alpha  occ. eigenvalues --   -0.49727  -0.48331  -0.48301  -0.45828  -0.44384
 Alpha  occ. eigenvalues --   -0.37968  -0.36956  -0.36569  -0.35674
 Alpha virt. eigenvalues --    0.04238   0.05657   0.10703   0.11999   0.15777
 Alpha virt. eigenvalues --    0.17220   0.20885   0.22342   0.26827   0.27706
 Alpha virt. eigenvalues --    0.28108   0.29307   0.30509   0.31850   0.32194

 Mulliken charges:
               1
     1  C   -0.171306
     2  C   -0.220049
     3  C   -0.173434
     4  C    0.156781
     5  C   -0.172853
     6  C   -0.222090
     7  H    0.241229
     8  H    0.231730
     9  H    0.273401
    10  H    0.272084
    11  H    0.220083
    12  N    0.488197
    13  O   -0.463320
    14  O   -0.462135
    15  C   -0.169851
    16  C   -0.218673
    17  C   -0.171784
    18  C    0.157202
    19  C   -0.170634
    20  C   -0.218587
    21  H    0.228158
    22  H    0.226307
    23  H    0.276038
    24  H    0.276285
    25  H    0.225488
    26  N    0.489772
    27  O   -0.456755
    28  O   -0.471284
 Sum of Mulliken charges =  -0.00000

 Dipole moment (field-independent basis, Debye):
    X=             -7.4349    Y=              2.0014    Z=              1.6906  Tot=              7.8830
 Quadrupole moment (field-independent basis, Debye-Ang):
   XX=           -118.4856   YY=           -104.9966   ZZ=           -101.7283
   XY=            -25.3155   XZ=              4.9001   YZ=              1.0531

 Normal termination of Gaussian 16 at Fri May  7 06:34:31 2021.
