 Gaussian 16, Revision A.03,
 Gaussian 16:  EM64L-G16RevA.03 25-Dec-2016

 -------------
 #p 6-31g* mp2
 -------------

 ------------------------------------------------------
 Input file generated by CHIRIPA (05-May-2021 14:53:15)
 ------------------------------------------------------
 Symbolic Z-matrix:
 Charge =  0 Multiplicity = 1

                         Standard orientation:
 ---------------------------------------------------------------------
 Center     Atomic      Atomic             Coordinates (Angstroms)
 Number     Number       Type             X           Y           Z
 ---------------------------------------------------------------------
      1          6           0       -3.609083   -0.078540   -0.396008
      2          6           0       -3.169715   -1.530001   -0.591462
      3          6           0       -4.350462   -2.492475   -0.722893
      4          1           0       -4.240688   -0.010844    0.500339
      5          1           0       -4.237591    0.224464   -1.244867
      6          1           0       -2.541085   -1.829741    0.256829
      7          1           0       -2.538925   -1.594216   -1.487340
      8          1           0       -4.975138   -2.221069   -1.580050
      9          1           0       -4.977311   -2.457931    0.174029
     10          1           0       -4.013615   -3.524507   -0.861836
     11          6           0       -2.439910    0.895663   -0.263008
     12          6           0       -2.879278    2.347124   -0.067554
     13          6           0       -1.698531    3.309598    0.063876
     14          1           0       -1.811402    0.592658    0.585851
     15          1           0       -1.808305    0.827967   -1.159355
     16          1           0       -3.510068    2.411339    0.828324
     17          1           0       -3.507908    2.646863   -0.915845
     18          1           0       -1.071682    3.275054   -0.833045
     19          1           0       -1.073854    3.038192    0.921034
     20          1           0       -2.035378    4.341630    0.202820
     21          6           0        4.153975    0.335883   -1.394483
     22          6           0        3.797173   -1.008343   -1.245245
     23          6           0        2.806147   -1.382827   -0.333007
     24          6           0        2.189732   -0.382519    0.417129
     25          6           0        2.523138    0.965177    0.291249
     26          6           0        3.516942    1.316624   -0.627113
     27          1           0        4.924906    0.617843   -2.105511
     28          1           0        4.290211   -1.772142   -1.839861
     29          1           0        2.510438   -2.416060   -0.197345
     30          1           0        2.013842    1.703987    0.898039
     31          1           0        3.791995    2.361344   -0.740904
     32          7           0        1.139107   -0.766773    1.386116
     33          8           0        0.611082    0.133565    2.035128
     34          8           0        0.863546   -1.961016    1.478247
 ---------------------------------------------------------------------

 SCF Done:  E(RHF) =  -669.536894032     A.U. after   15 cycles
 E2 =    -0.2091952066D+01 EUMP2 =    -0.67162884609777D+03

 The electronic state is 1-A.
 Alpha  occ. eigenvalues --  -20.61009 -20.61002 -15.86012 -11.31277 -11.27838
 Alpha  occ. eigenvalues --  -11.27829 -11.27573 -11.26837 -11.26824 -11.20985
 Alpha  occ. eigenvalues --  -11.20737 -11.20635 -11.20591 -11.20467 -11.20372
 Alpha  occ. eigenvalues --   -1.60049  -1.39608  -1.19442  -1.08859  -1.07658
 Alpha  occ. eigenvalues --   -1.04831  -1.02839  -0.95710  -0.95309  -0.86336
 Alpha  occ. eigenvalues --   -0.86234  -0.82548  -0.78904  -0.77620  -0.77452
 Alpha  occ. eigenvalues --   -0.72241  -0.71345  -0.70555  -0.65102  -0.64837
 Alpha  occ. eigenvalues --   -0.64269  -0.62180  -0.60230  -0.58677  -0.56918
 Alpha  occ. eigenvalues --   -0.55344  -0.54593  -0.53165  -0.52925  -0.52037
 Alpha  occ. eigenvalues --   -0.51750  -0.49269  -0.49003  -0.48990  -0.47249
 Alpha  occ. eigenvalues --   -0.45969  -0.45258  -0.45024  -0.44519  -0.43069
 Alpha  occ. eigenvalues --   -0.37418  -0.36428
 Alpha virt. eigenvalues --    0.04873   0.11217   0.16348   0.21149   0.23615
 Alpha virt. eigenvalues --    0.24673   0.26638   0.27420   0.27723   0.28526
 Alpha virt. eigenvalues --    0.29069   0.30772   0.31601   0.32230   0.32559

 Mulliken charges:
               1
     1  C   -0.296760
     2  C   -0.303596
     3  C   -0.475081
     4  H    0.150405
     5  H    0.144673
     6  H    0.166258
     7  H    0.146243
     8  H    0.151434
     9  H    0.155448
    10  H    0.159030
    11  C   -0.311112
    12  C   -0.297105
    13  C   -0.479276
    14  H    0.172738
    15  H    0.141374
    16  H    0.153462
    17  H    0.148159
    18  H    0.148297
    19  H    0.162207
    20  H    0.157288
    21  C   -0.170436
    22  C   -0.218754
    23  C   -0.170599
    24  C    0.158898
    25  C   -0.170419
    26  C   -0.218972
    27  H    0.225958
    28  H    0.223726
    29  H    0.275747
    30  H    0.276935
    31  H    0.224119
    32  N    0.488598
    33  O   -0.460172
    34  O   -0.458716
 Sum of Mulliken charges =  -0.00000

 Dipole moment (field-independent basis, Debye):
    X=              3.8956    Y=              1.2395    Z=             -3.2134  Tot=              5.1998
 Quadrupole moment (field-independent basis, Debye-Ang):
   XX=            -80.1349   YY=            -92.3033   ZZ=            -97.1244
   XY=              0.4785   XZ=             -7.0171   YZ=              3.1152

 Normal termination of Gaussian 16 at Wed May  5 17:08:28 2021.
