 Gaussian 16, Revision A.03,
 Gaussian 16:  EM64L-G16RevA.03 25-Dec-2016

 -------------
 #p 6-31g* mp2
 -------------

 ------------------------------------------------------
 Input file generated by CHIRIPA (05-May-2021 14:51:14)
 ------------------------------------------------------
 Symbolic Z-matrix:
 Charge =  0 Multiplicity = 1

                         Standard orientation:
 ---------------------------------------------------------------------
 Center     Atomic      Atomic             Coordinates (Angstroms)
 Number     Number       Type             X           Y           Z
 ---------------------------------------------------------------------
      1          6           0        1.615764   -0.950294   -0.352598
      2          6           0        1.901598   -2.211064   -1.169142
      3          6           0        0.631013   -2.859919   -1.719044
      4          1           0        0.942803   -1.203773    0.477955
      5          1           0        1.077220   -0.228424   -0.982096
      6          1           0        2.440661   -2.929796   -0.538704
      7          1           0        2.574110   -1.954592   -1.997734
      8          1           0        0.093247   -2.162994   -2.369970
      9          1           0       -0.040960   -3.143739   -0.902649
     10          1           0        0.858493   -3.759471   -2.299490
     11          6           0        2.876082   -0.290230    0.203857
     12          6           0        2.590247    0.970539    1.020401
     13          6           0        3.860833    1.619394    1.570303
     14          1           0        3.414626   -1.012101    0.833356
     15          1           0        3.549043   -0.036752   -0.626695
     16          1           0        1.917736    0.714068    1.848994
     17          1           0        2.051184    1.689271    0.389963
     18          1           0        4.532806    1.903214    0.753909
     19          1           0        4.398599    0.922470    2.221229
     20          1           0        3.633352    2.518947    2.150750
     21          6           0       -2.440484    0.300683    0.740289
     22          6           0       -2.831166   -1.172273    0.614776
     23          6           0       -3.217827   -1.797614    1.955387
     24          1           0       -1.602365    0.392417    1.444621
     25          1           0       -3.279313    0.859281    1.178157
     26          1           0       -1.992353   -1.727683    0.175994
     27          1           0       -3.668328   -1.260532   -0.089486
     28          1           0       -4.069626   -1.269156    2.395582
     29          1           0       -2.384129   -1.738961    2.662570
     30          1           0       -3.493494   -2.850764    1.842502
     31          6           0       -2.051361    0.939842   -0.591548
     32          6           0       -1.660680    2.412798   -0.466036
     33          6           0       -1.274019    3.038139   -1.806646
     34          1           0       -1.212533    0.381244   -1.029417
     35          1           0       -2.889481    0.848108   -1.295882
     36          1           0       -0.823518    2.501057    0.238227
     37          1           0       -2.499492    2.968208   -0.027254
     38          1           0       -2.107717    2.979486   -2.513829
     39          1           0       -0.422221    2.509681   -2.246841
     40          1           0       -0.998352    4.091289   -1.693763
 ---------------------------------------------------------------------

 SCF Done:  E(RHF) =  -470.732926757     A.U. after   11 cycles
 E2 =    -0.1585141245D+01 EUMP2 =    -0.47231806800133D+03

 The electronic state is 1-A.
 Alpha  occ. eigenvalues --  -11.21702 -11.21695 -11.21544 -11.21519 -11.21511
 Alpha  occ. eigenvalues --  -11.21450 -11.21313 -11.21237 -11.21155 -11.21139
 Alpha  occ. eigenvalues --  -11.21078 -11.21045  -1.08554  -1.08344  -1.03626
 Alpha  occ. eigenvalues --   -1.03484  -0.96075  -0.95933  -0.87090  -0.86953
 Alpha  occ. eigenvalues --   -0.79698  -0.79544  -0.78439  -0.78103  -0.65201
 Alpha  occ. eigenvalues --   -0.64979  -0.61049  -0.60869  -0.59439  -0.59305
 Alpha  occ. eigenvalues --   -0.57697  -0.57539  -0.55362  -0.55234  -0.52758
 Alpha  occ. eigenvalues --   -0.52638  -0.52530  -0.52336  -0.50025  -0.49895
 Alpha  occ. eigenvalues --   -0.48111  -0.47842  -0.46877  -0.46430  -0.46321
 Alpha  occ. eigenvalues --   -0.45820  -0.45609  -0.45108  -0.43878  -0.43723
 Alpha virt. eigenvalues --    0.19558   0.21700   0.23182   0.23785   0.25592
 Alpha virt. eigenvalues --    0.26579   0.27069   0.27551   0.28423   0.29834
 Alpha virt. eigenvalues --    0.30722   0.31381   0.31722   0.32045   0.32276

 Mulliken charges:
               1
     1  C   -0.305326
     2  C   -0.299541
     3  C   -0.480052
     4  H    0.151431
     5  H    0.154225
     6  H    0.152289
     7  H    0.152274
     8  H    0.156435
     9  H    0.158311
    10  H    0.161044
    11  C   -0.297775
    12  C   -0.302479
    13  C   -0.475714
    14  H    0.150000
    15  H    0.150051
    16  H    0.151792
    17  H    0.154078
    18  H    0.155526
    19  H    0.155472
    20  H    0.160660
    21  C   -0.297995
    22  C   -0.306611
    23  C   -0.475464
    24  H    0.149911
    25  H    0.149105
    26  H    0.158471
    27  H    0.151843
    28  H    0.155265
    29  H    0.154144
    30  H    0.159929
    31  C   -0.304666
    32  C   -0.302187
    33  C   -0.475899
    34  H    0.157158
    35  H    0.148858
    36  H    0.154376
    37  H    0.151833
    38  H    0.155435
    39  H    0.153576
    40  H    0.160218
 Sum of Mulliken charges =  -0.00000

 Dipole moment (field-independent basis, Debye):
    X=              0.0652    Y=             -0.0299    Z=             -0.0153  Tot=              0.0733
 Quadrupole moment (field-independent basis, Debye-Ang):
   XX=            -84.6075   YY=            -85.0692   ZZ=            -85.0737
   XY=             -0.8879   XZ=              0.0064   YZ=             -0.1810

 Normal termination of Gaussian 16 at Thu May  6 00:51:04 2021.
