 Gaussian 16, Revision A.03,
 Gaussian 16:  EM64L-G16RevA.03 25-Dec-2016

 -------------
 #p 6-31g* mp2
 -------------

 ------------------------------------------------------
 Input file generated by CHIRIPA (05-May-2021 14:51:14)
 ------------------------------------------------------
 Symbolic Z-matrix:
 Charge =  0 Multiplicity = 1

                         Standard orientation:
 ---------------------------------------------------------------------
 Center     Atomic      Atomic             Coordinates (Angstroms)
 Number     Number       Type             X           Y           Z
 ---------------------------------------------------------------------
      1          6           0        3.916861   -0.695137    0.102989
      2          6           0        5.335137   -0.530131   -0.444049
      3          6           0        5.996477   -1.865937   -0.784705
      4          1           0        3.947922   -1.329656    0.999296
      5          1           0        3.305675   -1.229674   -0.637361
      6          1           0        5.943100    0.005155    0.296535
      7          1           0        5.300720    0.104226   -1.339048
      8          1           0        5.414112   -2.402389   -1.540794
      9          1           0        6.060142   -2.502022    0.104082
     10          1           0        7.009548   -1.724616   -1.174032
     11          6           0        3.242538    0.631458    0.448186
     12          6           0        1.824261    0.466452    0.995224
     13          6           0        1.162921    1.802258    1.335880
     14          1           0        3.853723    1.165995    1.188535
     15          1           0        3.211477    1.265977   -0.448121
     16          1           0        1.858678   -0.167905    1.890222
     17          1           0        1.216298   -0.068834    0.254639
     18          1           0        1.099256    2.438343    0.447092
     19          1           0        1.745287    2.338710    2.091969
     20          1           0        0.149850    1.660937    1.725206
     21          6           0       -3.964745   -0.398650    0.224264
     22          6           0       -4.533181   -1.678616   -0.389375
     23          6           0       -5.300810   -2.529260    0.623020
     24          1           0       -3.302618   -0.662979    1.060123
     25          1           0       -4.787255    0.191476    0.651612
     26          1           0       -3.710006   -2.265492   -0.816661
     27          1           0       -5.193883   -1.411216   -1.223994
     28          1           0       -6.140842   -1.965538    1.041546
     29          1           0       -4.648534   -2.824668    1.451193
     30          1           0       -5.698498   -3.439322    0.163138
     31          6           0       -3.194653    0.462329   -0.775438
     32          6           0       -2.626217    1.742295   -0.161799
     33          6           0       -1.858588    2.592939   -1.174194
     34          1           0       -2.372144   -0.127797   -1.202786
     35          1           0       -3.856781    0.726659   -1.611298
     36          1           0       -1.965515    1.474895    0.672819
     37          1           0       -3.449393    2.329171    0.265486
     38          1           0       -2.510865    2.888347   -2.002368
     39          1           0       -1.018556    2.029218   -1.592721
     40          1           0       -1.460900    3.503002   -0.714313
 ---------------------------------------------------------------------

 SCF Done:  E(RHF) =  -470.732996647     A.U. after   11 cycles
 E2 =    -0.1583066667D+01 EUMP2 =    -0.47231606331397D+03

 The electronic state is 1-A.
 Alpha  occ. eigenvalues --  -11.21642 -11.21619 -11.21597 -11.21547 -11.21430
 Alpha  occ. eigenvalues --  -11.21394 -11.21371 -11.21334 -11.21086 -11.21066
 Alpha  occ. eigenvalues --  -11.21052 -11.21045  -1.08460  -1.08411  -1.03581
 Alpha  occ. eigenvalues --   -1.03483  -0.96040  -0.95923  -0.87027  -0.86971
 Alpha  occ. eigenvalues --   -0.79628  -0.79567  -0.78268  -0.78231  -0.65145
 Alpha  occ. eigenvalues --   -0.65005  -0.61128  -0.60784  -0.59447  -0.59243
 Alpha  occ. eigenvalues --   -0.57653  -0.57532  -0.55439  -0.55084  -0.52728
 Alpha  occ. eigenvalues --   -0.52633  -0.52450  -0.52369  -0.50003  -0.49821
 Alpha  occ. eigenvalues --   -0.48009  -0.47835  -0.46643  -0.46585  -0.45813
 Alpha  occ. eigenvalues --   -0.45771  -0.45734  -0.45681  -0.43796  -0.43739
 Alpha virt. eigenvalues --    0.20573   0.23179   0.23573   0.25342   0.26140
 Alpha virt. eigenvalues --    0.26353   0.26846   0.27420   0.27934   0.29246
 Alpha virt. eigenvalues --    0.30457   0.30998   0.31144   0.32191   0.32319

 Mulliken charges:
               1
     1  C   -0.298270
     2  C   -0.299692
     3  C   -0.475721
     4  H    0.149659
     5  H    0.149340
     6  H    0.152004
     7  H    0.152035
     8  H    0.155172
     9  H    0.155184
    10  H    0.160344
    11  C   -0.298397
    12  C   -0.300346
    13  C   -0.481005
    14  H    0.149797
    15  H    0.149833
    16  H    0.151845
    17  H    0.151235
    18  H    0.158716
    19  H    0.154931
    20  H    0.163606
    21  C   -0.298302
    22  C   -0.299613
    23  C   -0.475719
    24  H    0.149434
    25  H    0.149557
    26  H    0.151875
    27  H    0.151935
    28  H    0.155170
    29  H    0.155206
    30  H    0.160229
    31  C   -0.297863
    32  C   -0.305368
    33  C   -0.475216
    34  H    0.148992
    35  H    0.149534
    36  H    0.157921
    37  H    0.151681
    38  H    0.154603
    39  H    0.154707
    40  H    0.160965
 Sum of Mulliken charges =  -0.00000

 Dipole moment (field-independent basis, Debye):
    X=              0.0146    Y=              0.0178    Z=              0.0087  Tot=              0.0246
 Quadrupole moment (field-independent basis, Debye-Ang):
   XX=            -84.6413   YY=            -85.8207   ZZ=            -84.3030
   XY=             -0.3314   XZ=              1.0783   YZ=              0.0186

 Normal termination of Gaussian 16 at Wed May  5 18:25:47 2021.
