 Gaussian 16, Revision A.03,
 Gaussian 16:  EM64L-G16RevA.03 25-Dec-2016

 -------------
 #p 6-31g* mp2
 -------------

 ------------------------------------------------------
 Input file generated by CHIRIPA (05-May-2021 14:57:23)
 ------------------------------------------------------
 Symbolic Z-matrix:
 Charge =  0 Multiplicity = 1

                         Standard orientation:
 ---------------------------------------------------------------------
 Center     Atomic      Atomic             Coordinates (Angstroms)
 Number     Number       Type             X           Y           Z
 ---------------------------------------------------------------------
      1          6           0       -1.520770   -0.593062    1.003283
      2          6           0       -1.628404    0.215890   -0.132734
      3          6           0       -2.880547    0.500660   -0.685537
      4          6           0       -4.009318   -0.042562   -0.073920
      5          6           0       -3.934737   -0.851982    1.058585
      6          6           0       -2.672250   -1.123481    1.594274
      7          1           0       -0.544058   -0.809123    1.426066
      8          1           0       -0.735859    0.629184   -0.593814
      9          1           0       -2.992689    1.123887   -1.564418
     10          1           0       -4.842477   -1.249597    1.495995
     11          1           0       -2.591680   -1.752041    2.476581
     12          7           0       -5.340382    0.251887   -0.650089
     13          8           0       -6.319628   -0.238832   -0.092497
     14          8           0       -5.379219    0.967818   -1.648373
     15          6           0        4.372135   -2.252755   -0.751358
     16          6           0        5.214998   -1.186699   -1.082457
     17          6           0        4.902367    0.116112   -0.683088
     18          6           0        3.733659    0.317685    0.049565
     19          6           0        2.873691   -0.723693    0.394927
     20          6           0        3.206227   -2.018263   -0.015021
     21          1           0        4.622726   -3.261607   -1.065706
     22          1           0        6.121113   -1.365842   -1.654216
     23          1           0        5.537057    0.959735   -0.925756
     24          1           0        1.977334   -0.513873    0.965837
     25          1           0        2.549780   -2.844256    0.243548
     26          7           0        3.392154    1.692550    0.477959
     27          8           0        2.356692    1.843761    1.122622
     28          8           0        4.166410    2.592925    0.160959
 ---------------------------------------------------------------------

 SCF Done:  E(RHF) =  -868.337411737     A.U. after   16 cycles
 E2 =    -0.2599733928D+01 EUMP2 =    -0.87093714566515D+03

 The electronic state is 1-A.
 Alpha  occ. eigenvalues --  -20.61695 -20.61652 -20.60678 -20.60671 -15.86722
 Alpha  occ. eigenvalues --  -15.85729 -11.32106 -11.31110 -11.28778 -11.28584
 Alpha  occ. eigenvalues --  -11.28323 -11.27694 -11.27681 -11.27630 -11.27591
 Alpha  occ. eigenvalues --  -11.27508 -11.26752 -11.26650  -1.60745  -1.59751
 Alpha  occ. eigenvalues --   -1.40302  -1.39304  -1.20254  -1.19281  -1.09629
 Alpha  occ. eigenvalues --   -1.08693  -1.05666  -1.04675  -0.96475  -0.95528
 Alpha  occ. eigenvalues --   -0.87057  -0.86080  -0.83311  -0.82349  -0.78382
 Alpha  occ. eigenvalues --   -0.77373  -0.72936  -0.72070  -0.71949  -0.71378
 Alpha  occ. eigenvalues --   -0.71072  -0.70446  -0.65902  -0.65660  -0.64941
 Alpha  occ. eigenvalues --   -0.64673  -0.63030  -0.62011  -0.56132  -0.55265
 Alpha  occ. eigenvalues --   -0.53974  -0.53736  -0.53012  -0.52766  -0.49708
 Alpha  occ. eigenvalues --   -0.49682  -0.48709  -0.48702  -0.45702  -0.44706
 Alpha  occ. eigenvalues --   -0.38197  -0.37304  -0.37246  -0.36262
 Alpha virt. eigenvalues --    0.04153   0.05142   0.10358   0.11387   0.15686
 Alpha virt. eigenvalues --    0.16626   0.18294   0.21898   0.24804   0.26991
 Alpha virt. eigenvalues --    0.27444   0.29221   0.30544   0.30861   0.32360

 Mulliken charges:
               1
     1  C   -0.171605
     2  C   -0.217507
     3  C   -0.171050
     4  C    0.158871
     5  C   -0.171215
     6  C   -0.218847
     7  H    0.219814
     8  H    0.228886
     9  H    0.276774
    10  H    0.275240
    11  H    0.222400
    12  N    0.487960
    13  O   -0.460833
    14  O   -0.459740
    15  C   -0.170230
    16  C   -0.217848
    17  C   -0.169542
    18  C    0.159663
    19  C   -0.179724
    20  C   -0.218684
    21  H    0.228982
    22  H    0.227065
    23  H    0.278328
    24  H    0.272325
    25  H    0.223401
    26  N    0.487185
    27  O   -0.465063
    28  O   -0.455007
 Sum of Mulliken charges =  -0.00000

 Dipole moment (field-independent basis, Debye):
    X=              6.1630    Y=             -5.8325    Z=              0.3742  Tot=              8.4935
 Quadrupole moment (field-independent basis, Debye-Ang):
   XX=           -128.3043   YY=           -106.5439   ZZ=           -102.8349
   XY=            -11.1650   XZ=            -18.4304   YZ=             -3.7908

 Normal termination of Gaussian 16 at Thu May  6 09:45:49 2021.
