 Gaussian 16, Revision A.03,
 Gaussian 16:  EM64L-G16RevA.03 25-Dec-2016

 -------------
 #p 6-31g* mp2
 -------------

 ------------------------------------------------------
 Input file generated by CHIRIPA (05-May-2021 14:57:21)
 ------------------------------------------------------
 Symbolic Z-matrix:
 Charge =  0 Multiplicity = 1

                         Standard orientation:
 ---------------------------------------------------------------------
 Center     Atomic      Atomic             Coordinates (Angstroms)
 Number     Number       Type             X           Y           Z
 ---------------------------------------------------------------------
      1          6           0        3.585411    2.224367   -0.137086
      2          6           0        4.100975    1.250663   -0.998838
      3          6           0        3.706251   -0.085070   -0.878186
      4          6           0        2.790094   -0.413382    0.119890
      5          6           0        2.258517    0.533806    0.993704
      6          6           0        2.667446    1.863467    0.854686
      7          1           0        3.897559    3.259639   -0.237945
      8          1           0        4.814023    1.528052   -1.769981
      9          1           0        4.089582   -0.859118   -1.531887
     10          1           0        1.549241    0.226825    1.752722
     11          1           0        2.265396    2.617537    1.525342
     12          7           0        2.364698   -1.824249    0.257341
     13          8           0        1.556274   -2.087771    1.144834
     14          8           0        2.847752   -2.639851   -0.525021
     15          6           0       -2.489794    2.675154   -0.012442
     16          6           0       -1.395355    1.804176   -0.001440
     17          6           0       -1.588729    0.420349   -0.048081
     18          6           0       -2.896014   -0.060285   -0.105435
     19          6           0       -4.006868    0.781820   -0.117822
     20          6           0       -3.789766    2.162100   -0.070496
     21          1           0       -2.330360    3.748767    0.024055
     22          1           0       -0.384661    2.199797    0.043601
     23          1           0       -0.759484   -0.276585   -0.040819
     24          1           0       -5.002594    0.357688   -0.163193
     25          1           0       -4.641612    2.836138   -0.079174
     26          7           0       -3.113291   -1.523404   -0.155174
     27          8           0       -4.274957   -1.921720   -0.205302
     28          8           0       -2.117812   -2.244177   -0.143088
 ---------------------------------------------------------------------

 SCF Done:  E(RHF) =  -868.336309195     A.U. after   16 cycles
 E2 =    -0.2602619442D+01 EUMP2 =    -0.87093892863682D+03

 The electronic state is 1-A.
 Alpha  occ. eigenvalues --  -20.61073 -20.61039 -20.60274 -20.60204 -15.86095
 Alpha  occ. eigenvalues --  -15.85299 -11.31819 -11.30942 -11.28468 -11.28364
 Alpha  occ. eigenvalues --  -11.28201 -11.27564 -11.27559 -11.27508 -11.27425
 Alpha  occ. eigenvalues --  -11.27397 -11.26644 -11.26623  -1.60106  -1.59321
 Alpha  occ. eigenvalues --   -1.39653  -1.38860  -1.20029  -1.19154  -1.09343
 Alpha  occ. eigenvalues --   -1.08509  -1.05479  -1.04596  -0.96112  -0.95290
 Alpha  occ. eigenvalues --   -0.86845  -0.85985  -0.82938  -0.82112  -0.77945
 Alpha  occ. eigenvalues --   -0.77096  -0.72291  -0.71546  -0.71407  -0.71089
 Alpha  occ. eigenvalues --   -0.70658  -0.70267  -0.65660  -0.65457  -0.64801
 Alpha  occ. eigenvalues --   -0.64605  -0.62822  -0.61914  -0.55923  -0.55134
 Alpha  occ. eigenvalues --   -0.53777  -0.53543  -0.52919  -0.52673  -0.49078
 Alpha  occ. eigenvalues --   -0.49044  -0.48307  -0.48245  -0.44947  -0.44202
 Alpha  occ. eigenvalues --   -0.38007  -0.37176  -0.37094  -0.36212
 Alpha virt. eigenvalues --    0.04558   0.05432   0.10411   0.11422   0.15886
 Alpha virt. eigenvalues --    0.16832   0.20377   0.21807   0.26044   0.27332
 Alpha virt. eigenvalues --    0.28078   0.28340   0.29767   0.31426   0.31759

 Mulliken charges:
               1
     1  C   -0.171967
     2  C   -0.217702
     3  C   -0.169123
     4  C    0.158788
     5  C   -0.180885
     6  C   -0.225154
     7  H    0.227043
     8  H    0.226528
     9  H    0.279636
    10  H    0.278989
    11  H    0.223201
    12  N    0.487750
    13  O   -0.452571
    14  O   -0.454436
    15  C   -0.171929
    16  C   -0.225071
    17  C   -0.176528
    18  C    0.158587
    19  C   -0.170669
    20  C   -0.218649
    21  H    0.221782
    22  H    0.220147
    23  H    0.280808
    24  H    0.275790
    25  H    0.222191
    26  N    0.486436
    27  O   -0.463722
    28  O   -0.449272
 Sum of Mulliken charges =  -0.00000

 Dipole moment (field-independent basis, Debye):
    X=              2.5718    Y=              9.7239    Z=             -0.3587  Tot=             10.0646
 Quadrupole moment (field-independent basis, Debye-Ang):
   XX=            -94.0896   YY=           -110.2722   ZZ=           -103.1600
   XY=             -3.3629   XZ=             -4.4923   YZ=              1.2203

 Normal termination of Gaussian 16 at Wed May  5 17:45:28 2021.
