 Gaussian 16, Revision A.03,
 Gaussian 16:  EM64L-G16RevA.03 25-Dec-2016

 -------------
 #p 6-31g* mp2
 -------------

 ------------------------------------------------------
 Input file generated by CHIRIPA (05-May-2021 14:57:24)
 ------------------------------------------------------
 Symbolic Z-matrix:
 Charge =  0 Multiplicity = 1

                         Standard orientation:
 ---------------------------------------------------------------------
 Center     Atomic      Atomic             Coordinates (Angstroms)
 Number     Number       Type             X           Y           Z
 ---------------------------------------------------------------------
      1          6           0       -5.180366    0.702141    0.126480
      2          6           0       -4.781775   -0.297558    1.019928
      3          6           0       -3.505304   -0.860925    0.931669
      4          6           0       -2.649163   -0.398762   -0.066688
      5          6           0       -3.017000    0.595749   -0.971638
      6          6           0       -4.298262    1.144823   -0.864704
      7          1           0       -6.173820    1.134226    0.202295
      8          1           0       -5.464727   -0.643304    1.790694
      9          1           0       -3.170885   -1.636194    1.610300
     10          1           0       -2.314056    0.919835   -1.729435
     11          1           0       -4.605104    1.921062   -1.559934
     12          7           0       -1.295285   -0.987607   -0.170009
     13          8           0       -0.559717   -0.563074   -1.058463
     14          8           0       -0.995318   -1.862528    0.639417
     15          6           0        2.354929    2.730197    0.497676
     16          6           0        2.739359    1.890955    1.548583
     17          6           0        3.028413    0.543728    1.311990
     18          6           0        2.922315    0.066936    0.006348
     19          6           0        2.541855    0.877980   -1.061711
     20          6           0        2.257575    2.221927   -0.801826
     21          1           0        2.132239    3.775481    0.690514
     22          1           0        2.815807    2.282945    2.558803
     23          1           0        3.328282   -0.128144    2.107027
     24          1           0        2.474518    0.458368   -2.058109
     25          1           0        1.959258    2.871371   -1.619919
     26          7           0        3.225797   -1.357576   -0.256452
     27          8           0        3.124837   -1.753268   -1.415708
     28          8           0        3.558879   -2.051444    0.701796
 ---------------------------------------------------------------------

 SCF Done:  E(RHF) =  -868.337256974     A.U. after   16 cycles
 E2 =    -0.2600965454D+01 EUMP2 =    -0.87093822242762D+03

 The electronic state is 1-A.
 Alpha  occ. eigenvalues --  -20.60868 -20.60862 -20.59316 -20.59283 -15.85903
 Alpha  occ. eigenvalues --  -15.84369 -11.31332 -11.29871 -11.27931 -11.27883
 Alpha  occ. eigenvalues --  -11.27657 -11.26950 -11.26915 -11.26579 -11.26504
 Alpha  occ. eigenvalues --  -11.26447 -11.25668 -11.25626  -1.59926  -1.58350
 Alpha  occ. eigenvalues --   -1.39481  -1.37910  -1.19508  -1.18121  -1.08891
 Alpha  occ. eigenvalues --   -1.07507  -1.04922  -1.03584  -0.95718  -0.94311
 Alpha  occ. eigenvalues --   -0.86316  -0.84983  -0.82552  -0.81167  -0.77593
 Alpha  occ. eigenvalues --   -0.76148  -0.72137  -0.71247  -0.70624  -0.70614
 Alpha  occ. eigenvalues --   -0.69621  -0.69311  -0.65163  -0.64926  -0.63812
 Alpha  occ. eigenvalues --   -0.63646  -0.62271  -0.60945  -0.55420  -0.54166
 Alpha  occ. eigenvalues --   -0.53250  -0.53017  -0.51887  -0.51720  -0.48896
 Alpha  occ. eigenvalues --   -0.48863  -0.47383  -0.47337  -0.44867  -0.43288
 Alpha  occ. eigenvalues --   -0.37494  -0.36531  -0.36124  -0.35138
 Alpha virt. eigenvalues --    0.04939   0.06455   0.11124   0.12498   0.16435
 Alpha virt. eigenvalues --    0.17846   0.21251   0.22357   0.27146   0.28055
 Alpha virt. eigenvalues --    0.28327   0.29302   0.30808   0.31830   0.32374

 Mulliken charges:
               1
     1  C   -0.171037
     2  C   -0.218576
     3  C   -0.170878
     4  C    0.159076
     5  C   -0.170887
     6  C   -0.218651
     7  H    0.225671
     8  H    0.224084
     9  H    0.277192
    10  H    0.272790
    11  H    0.222508
    12  N    0.489561
    13  O   -0.463842
    14  O   -0.455598
    15  C   -0.172829
    16  C   -0.221094
    17  C   -0.170135
    18  C    0.164858
    19  C   -0.150751
    20  C   -0.222210
    21  H    0.218568
    22  H    0.217572
    23  H    0.273356
    24  H    0.276043
    25  H    0.216116
    26  N    0.492223
    27  O   -0.458479
    28  O   -0.464651
 Sum of Mulliken charges =  -0.00000

 Dipole moment (field-independent basis, Debye):
    X=             -6.0140    Y=              6.7542    Z=              1.1799  Tot=              9.1202
 Quadrupole moment (field-independent basis, Debye-Ang):
   XX=            -87.3198   YY=           -105.8250   ZZ=            -97.6317
   XY=             10.9972   XZ=              1.7298   YZ=             -3.8117

 Normal termination of Gaussian 16 at Fri May  7 11:05:43 2021.
