 Gaussian 16, Revision A.03,
 Gaussian 16:  EM64L-G16RevA.03 25-Dec-2016

 -------------
 #p 6-31g* mp2
 -------------

 ------------------------------------------------------
 Input file generated by CHIRIPA (05-May-2021 14:53:13)
 ------------------------------------------------------
 Symbolic Z-matrix:
 Charge =  0 Multiplicity = 1

                         Standard orientation:
 ---------------------------------------------------------------------
 Center     Atomic      Atomic             Coordinates (Angstroms)
 Number     Number       Type             X           Y           Z
 ---------------------------------------------------------------------
      1          6           0        2.394215    0.851325   -0.292518
      2          6           0        3.070469    2.222658   -0.303151
      3          6           0        2.076003    3.373420   -0.146372
      4          1           0        1.652072    0.809261   -1.101468
      5          1           0        1.838642    0.731496    0.647893
      6          1           0        3.625735    2.339309   -1.242665
      7          1           0        3.811223    2.261395    0.505798
      8          1           0        1.530039    3.284741    0.798435
      9          1           0        1.343497    3.363098   -0.959962
     10          1           0        2.580797    4.344469   -0.156652
     11          6           0        3.375351   -0.309203   -0.448319
     12          6           0        2.699098   -1.680535   -0.437686
     13          6           0        3.693563   -2.831297   -0.594465
     14          1           0        3.930925   -0.189373   -1.388730
     15          1           0        4.117494   -0.267138    0.360631
     16          1           0        1.958343   -1.719272   -1.246635
     17          1           0        2.143831   -1.797186    0.501828
     18          1           0        4.426069   -2.820975    0.219125
     19          1           0        4.239528   -2.742618   -1.539272
     20          1           0        3.188769   -3.802346   -0.584185
     21          6           0       -0.288092   -0.651778    1.808781
     22          6           0       -0.896580   -1.710703    1.126916
     23          6           0       -1.986341   -1.478602    0.282465
     24          6           0       -2.443768   -0.169228    0.142500
     25          6           0       -1.858805    0.906806    0.808277
     26          6           0       -0.770295    0.651299    1.647570
     27          1           0        0.557975   -0.841170    2.462768
     28          1           0       -0.524222   -2.723715    1.250205
     29          1           0       -2.476197   -2.279855   -0.257398
     30          1           0       -2.252409    1.905823    0.665246
     31          1           0       -0.299704    1.475617    2.175858
     32          7           0       -3.596786    0.088876   -0.748752
     33          8           0       -3.980853    1.251558   -0.855066
     34          8           0       -4.094624   -0.876390   -1.324127
 ---------------------------------------------------------------------

 SCF Done:  E(RHF) =  -669.532655291     A.U. after   15 cycles
 E2 =    -0.2095588895D+01 EUMP2 =    -0.67162824418580D+03

 The electronic state is 1-A.
 Alpha  occ. eigenvalues --  -20.60774 -20.60769 -15.85828 -11.31197 -11.27768
 Alpha  occ. eigenvalues --  -11.27755 -11.27504 -11.26781 -11.26768 -11.22222
 Alpha  occ. eigenvalues --  -11.22103 -11.21932 -11.21774 -11.21670 -11.21661
 Alpha  occ. eigenvalues --   -1.59850  -1.39403  -1.19382  -1.09035  -1.08741
 Alpha  occ. eigenvalues --   -1.04788  -1.04107  -0.96552  -0.95620  -0.87571
 Alpha  occ. eigenvalues --   -0.86196  -0.82445  -0.80172  -0.78820  -0.77473
 Alpha  occ. eigenvalues --   -0.72049  -0.71174  -0.70529  -0.65690  -0.65044
 Alpha  occ. eigenvalues --   -0.64749  -0.62164  -0.61497  -0.59914  -0.58172
 Alpha  occ. eigenvalues --   -0.55867  -0.55307  -0.53420  -0.53111  -0.52926
 Alpha  occ. eigenvalues --   -0.52851  -0.50509  -0.48808  -0.48802  -0.48507
 Alpha  occ. eigenvalues --   -0.47225  -0.46322  -0.46260  -0.44809  -0.44336
 Alpha  occ. eigenvalues --   -0.37162  -0.36324
 Alpha virt. eigenvalues --    0.04997   0.11094   0.16353   0.19590   0.22739
 Alpha virt. eigenvalues --    0.23144   0.26045   0.26213   0.26862   0.27684
 Alpha virt. eigenvalues --    0.29772   0.30187   0.31312   0.31337   0.31712

 Mulliken charges:
               1
     1  C   -0.298956
     2  C   -0.300120
     3  C   -0.474947
     4  H    0.153681
     5  H    0.147009
     6  H    0.154608
     7  H    0.150142
     8  H    0.145134
     9  H    0.159610
    10  H    0.163159
    11  C   -0.299306
    12  C   -0.298969
    13  C   -0.475912
    14  H    0.152168
    15  H    0.147264
    16  H    0.156010
    17  H    0.142388
    18  H    0.154498
    19  H    0.158561
    20  H    0.158590
    21  C   -0.169294
    22  C   -0.214716
    23  C   -0.172304
    24  C    0.158103
    25  C   -0.171936
    26  C   -0.216410
    27  H    0.225041
    28  H    0.223790
    29  H    0.275610
    30  H    0.275930
    31  H    0.224462
    32  N    0.488022
    33  O   -0.460366
    34  O   -0.460547
 Sum of Mulliken charges =  -0.00000

 Dipole moment (field-independent basis, Debye):
    X=              4.0525    Y=             -0.8920    Z=              3.0288  Tot=              5.1373
 Quadrupole moment (field-independent basis, Debye-Ang):
   XX=           -115.9290   YY=            -90.6508   ZZ=            -93.2778
   XY=              2.4627   XZ=             -7.1910   YZ=              0.2962

 Normal termination of Gaussian 16 at Wed May  5 21:48:43 2021.
