 Gaussian 16, Revision A.03,
 Gaussian 16:  EM64L-G16RevA.03 25-Dec-2016

 -------------
 #p 6-31g* mp2
 -------------

 ------------------------------------------------------
 Input file generated by CHIRIPA (05-May-2021 14:57:25)
 ------------------------------------------------------
 Symbolic Z-matrix:
 Charge =  0 Multiplicity = 1

                         Standard orientation:
 ---------------------------------------------------------------------
 Center     Atomic      Atomic             Coordinates (Angstroms)
 Number     Number       Type             X           Y           Z
 ---------------------------------------------------------------------
      1          6           0       -4.372618    2.458601   -0.480691
      2          6           0       -5.361352    1.522415   -0.800819
      3          6           0       -5.161944    0.162866   -0.543115
      4          6           0       -3.956483   -0.227259    0.038224
      5          6           0       -2.952246    0.681380    0.368639
      6          6           0       -3.173336    2.035841    0.101989
      7          1           0       -4.535944    3.512756   -0.684356
      8          1           0       -6.293709    1.847861   -1.253410
      9          1           0       -5.910502   -0.583169   -0.780833
     10          1           0       -2.033143    0.326669    0.819024
     11          1           0       -2.403702    2.760667    0.351665
     12          7           0       -3.733902   -1.663860    0.315779
     13          8           0       -2.663179   -1.981987    0.828599
     14          8           0       -4.634381   -2.444538    0.015251
     15          6           0        1.526619   -0.218373    0.495826
     16          6           0        2.095364   -0.941758   -0.557627
     17          6           0        3.460895   -0.833773   -0.837286
     18          6           0        4.231623    0.010682   -0.039688
     19          6           0        3.694330    0.744376    1.016863
     20          6           0        2.326507    0.620906    1.278330
     21          1           0        0.464952   -0.308273    0.706007
     22          1           0        1.476585   -1.594317   -1.166991
     23          1           0        3.927105   -1.382351   -1.646687
     24          1           0        4.336713    1.386828    1.606793
     25          1           0        1.887528    1.183895    2.097101
     26          7           0        5.678463    0.133199   -0.326121
     27          8           0        6.335902    0.883960    0.391352
     28          8           0        6.127662   -0.523856   -1.262677
 ---------------------------------------------------------------------

 SCF Done:  E(RHF) =  -868.337860146     A.U. after   16 cycles
 E2 =    -0.2599308235D+01 EUMP2 =    -0.87093716838067D+03

 The electronic state is 1-A.
 Alpha  occ. eigenvalues --  -20.61716 -20.61668 -20.60722 -20.60714 -15.86742
 Alpha  occ. eigenvalues --  -15.85773 -11.32068 -11.31135 -11.28731 -11.28552
 Alpha  occ. eigenvalues --  -11.28281 -11.27726 -11.27668 -11.27636 -11.27549
 Alpha  occ. eigenvalues --  -11.27457 -11.26771 -11.26651  -1.60761  -1.59796
 Alpha  occ. eigenvalues --   -1.40322  -1.39350  -1.20215  -1.19306  -1.09602
 Alpha  occ. eigenvalues --   -1.08704  -1.05618  -1.04706  -0.96457  -0.95541
 Alpha  occ. eigenvalues --   -0.87015  -0.86103  -0.83295  -0.82372  -0.78371
 Alpha  occ. eigenvalues --   -0.77415  -0.72962  -0.72080  -0.71992  -0.71339
 Alpha  occ. eigenvalues --   -0.71119  -0.70415  -0.65866  -0.65613  -0.64959
 Alpha  occ. eigenvalues --   -0.64704  -0.62991  -0.62050  -0.56095  -0.55221
 Alpha  occ. eigenvalues --   -0.53929  -0.53688  -0.53038  -0.52794  -0.49733
 Alpha  occ. eigenvalues --   -0.49696  -0.48750  -0.48747  -0.45735  -0.44756
 Alpha  occ. eigenvalues --   -0.38157  -0.37297  -0.37206  -0.36308
 Alpha virt. eigenvalues --    0.04168   0.05112   0.10426   0.11345   0.15709
 Alpha virt. eigenvalues --    0.16583   0.18689   0.21845   0.24865   0.26997
 Alpha virt. eigenvalues --    0.27426   0.29094   0.30276   0.30899   0.32601

 Mulliken charges:
               1
     1  C   -0.170002
     2  C   -0.217976
     3  C   -0.169570
     4  C    0.158517
     5  C   -0.175747
     6  C   -0.219568
     7  H    0.228883
     8  H    0.226747
     9  H    0.277941
    10  H    0.272601
    11  H    0.224257
    12  N    0.487915
    13  O   -0.468221
    14  O   -0.455084
    15  C   -0.176946
    16  C   -0.220377
    17  C   -0.170954
    18  C    0.158448
    19  C   -0.170965
    20  C   -0.221102
    21  H    0.233626
    22  H    0.229551
    23  H    0.276209
    24  H    0.274882
    25  H    0.219973
    26  N    0.487983
    27  O   -0.461087
    28  O   -0.459936
 Sum of Mulliken charges =  -0.00000

 Dipole moment (field-independent basis, Debye):
    X=             -6.1744    Y=              4.6243    Z=             -0.1048  Tot=              7.7148
 Quadrupole moment (field-independent basis, Debye-Ang):
   XX=           -137.0136   YY=           -105.5299   ZZ=           -102.5389
   XY=            -20.9187   XZ=             10.9716   YZ=              3.7179

 Normal termination of Gaussian 16 at Wed May  5 22:44:20 2021.
