 Gaussian 16, Revision A.03,
 Gaussian 16:  EM64L-G16RevA.03 25-Dec-2016

 -------------
 #p 6-31g* mp2
 -------------

 ------------------------------------------------------
 Input file generated by CHIRIPA (05-May-2021 14:51:08)
 ------------------------------------------------------
 Symbolic Z-matrix:
 Charge =  0 Multiplicity = 1

                         Standard orientation:
 ---------------------------------------------------------------------
 Center     Atomic      Atomic             Coordinates (Angstroms)
 Number     Number       Type             X           Y           Z
 ---------------------------------------------------------------------
      1          6           0        4.703822   -0.568878    0.264747
      2          6           0        6.074887   -0.630679   -0.409305
      3          6           0        6.951307   -1.758737    0.135824
      4          1           0        4.839954   -0.438972    1.347123
      5          1           0        4.191747   -1.531329    0.127407
      6          1           0        6.583659    0.332074   -0.271923
      7          1           0        5.935472   -0.760260   -1.490225
      8          1           0        6.467982   -2.729396   -0.015231
      9          1           0        7.119852   -1.630856    1.209993
     10          1           0        7.926719   -1.784629   -0.359920
     11          6           0        3.816143    0.553755   -0.269528
     12          6           0        2.445078    0.615556    0.404524
     13          6           0        1.568657    1.743614   -0.140605
     14          1           0        4.328217    1.516206   -0.132188
     15          1           0        3.680011    0.423850   -1.351904
     16          1           0        2.584492    0.745137    1.485444
     17          1           0        1.936306   -0.347197    0.267142
     18          1           0        1.400113    1.615733   -1.214775
     19          1           0        2.051982    2.714274    0.010449
     20          1           0        0.593246    1.769506    0.355139
     21          6           0       -4.660402   -0.518787   -0.379779
     22          6           0       -5.148792   -1.667969    0.502740
     23          6           0       -5.948277   -2.712920   -0.276167
     24          1           0       -5.525306   -0.039105   -0.858101
     25          1           0       -4.040863   -0.926198   -1.190694
     26          1           0       -5.766089   -1.258376    1.312551
     27          1           0       -4.282639   -2.144848    0.979167
     28          1           0       -5.338086   -3.148922   -1.073769
     29          1           0       -6.829964   -2.257413   -0.738490
     30          1           0       -6.287639   -3.525324    0.373981
     31          6           0       -3.859562    0.533909    0.384561
     32          6           0       -3.371172    1.683091   -0.497959
     33          6           0       -2.571687    2.728042    0.280948
     34          1           0       -4.479101    0.941321    1.195475
     35          1           0       -2.994659    0.054228    0.862884
     36          1           0       -4.237325    2.159972   -0.974385
     37          1           0       -2.753876    1.273498   -1.307770
     38          1           0       -1.690001    2.272534    0.743272
     39          1           0       -3.181878    3.164045    1.078550
     40          1           0       -2.232325    3.540447   -0.369200
 ---------------------------------------------------------------------

 SCF Done:  E(RHF) =  -470.733236065     A.U. after   11 cycles
 E2 =    -0.1582241622D+01 EUMP2 =    -0.47231547768698D+03

 The electronic state is 1-A.
 Alpha  occ. eigenvalues --  -11.21613 -11.21608 -11.21600 -11.21584 -11.21413
 Alpha  occ. eigenvalues --  -11.21400 -11.21354 -11.21341 -11.21077 -11.21071
 Alpha  occ. eigenvalues --  -11.21053 -11.21040  -1.08439  -1.08422  -1.03547
 Alpha  occ. eigenvalues --   -1.03510  -0.96015  -0.95941  -0.87050  -0.86941
 Alpha  occ. eigenvalues --   -0.79629  -0.79553  -0.78251  -0.78235  -0.65070
 Alpha  occ. eigenvalues --   -0.65055  -0.60964  -0.60923  -0.59361  -0.59335
 Alpha  occ. eigenvalues --   -0.57660  -0.57530  -0.55290  -0.55254  -0.52769
 Alpha  occ. eigenvalues --   -0.52627  -0.52452  -0.52301  -0.49924  -0.49890
 Alpha  occ. eigenvalues --   -0.47975  -0.47839  -0.46633  -0.46609  -0.45795
 Alpha  occ. eigenvalues --   -0.45776  -0.45718  -0.45702  -0.43788  -0.43745
 Alpha virt. eigenvalues --    0.21723   0.23024   0.23548   0.24945   0.26350
 Alpha virt. eigenvalues --    0.26641   0.27123   0.27492   0.27670   0.28732
 Alpha virt. eigenvalues --    0.30179   0.31375   0.31690   0.31948   0.31972

 Mulliken charges:
               1
     1  C   -0.298218
     2  C   -0.299643
     3  C   -0.475704
     4  H    0.149677
     5  H    0.149406
     6  H    0.151981
     7  H    0.151928
     8  H    0.155149
     9  H    0.155200
    10  H    0.160281
    11  C   -0.298553
    12  C   -0.299081
    13  C   -0.481840
    14  H    0.149655
    15  H    0.149600
    16  H    0.151915
    17  H    0.151327
    18  H    0.154966
    19  H    0.155551
    20  H    0.166318
    21  C   -0.298285
    22  C   -0.299659
    23  C   -0.475697
    24  H    0.149674
    25  H    0.149481
    26  H    0.151942
    27  H    0.151920
    28  H    0.155129
    29  H    0.155190
    30  H    0.160245
    31  C   -0.298331
    32  C   -0.299782
    33  C   -0.480040
    34  H    0.149533
    35  H    0.149352
    36  H    0.151942
    37  H    0.152333
    38  H    0.159106
    39  H    0.155056
    40  H    0.160978
 Sum of Mulliken charges =  -0.00000

 Dipole moment (field-independent basis, Debye):
    X=             -0.0017    Y=              0.0136    Z=             -0.0021  Tot=              0.0138
 Quadrupole moment (field-independent basis, Debye-Ang):
   XX=            -84.8411   YY=            -85.3916   ZZ=            -84.5151
   XY=             -0.1318   XZ=             -0.3506   YZ=              0.4276

 Normal termination of Gaussian 16 at Wed May  5 19:40:07 2021.
