 Gaussian 16, Revision A.03,
 Gaussian 16:  EM64L-G16RevA.03 25-Dec-2016

 -------------
 #p 6-31g* mp2
 -------------

 ------------------------------------------------------
 Input file generated by CHIRIPA (05-May-2021 14:57:26)
 ------------------------------------------------------
 Symbolic Z-matrix:
 Charge =  0 Multiplicity = 1

                         Standard orientation:
 ---------------------------------------------------------------------
 Center     Atomic      Atomic             Coordinates (Angstroms)
 Number     Number       Type             X           Y           Z
 ---------------------------------------------------------------------
      1          6           0       -2.304382    2.678898    0.439250
      2          6           0       -3.340160    2.249489   -0.396987
      3          6           0       -3.530130    0.887716   -0.650035
      4          6           0       -2.661841   -0.021376   -0.047610
      5          6           0       -1.620701    0.375266    0.790239
      6          6           0       -1.449465    1.742068    1.029155
      7          1           0       -2.164086    3.738709    0.630334
      8          1           0       -4.005627    2.974797   -0.856473
      9          1           0       -4.323904    0.527762   -1.293288
     10          1           0       -0.973424   -0.371434    1.233963
     11          1           0       -0.644219    2.072668    1.679021
     12          7           0       -2.853037   -1.465686   -0.308019
     13          8           0       -2.074485   -2.246607    0.234803
     14          8           0       -3.777828   -1.789467   -1.050020
     15          6           0        1.724292   -2.465472    0.703175
     16          6           0        1.611781   -1.367773    1.562779
     17          6           0        2.110197   -0.117047    1.186198
     18          6           0        2.717922    0.000743   -0.062836
     19          6           0        2.845171   -1.074021   -0.941460
     20          6           0        2.339544   -2.315357   -0.544003
     21          1           0        1.334310   -3.433420    1.003821
     22          1           0        1.134456   -1.481417    2.531950
     23          1           0        2.036464    0.749432    1.832105
     24          1           0        3.326124   -0.929771   -1.901301
     25          1           0        2.428322   -3.166096   -1.213634
     26          7           0        3.249390    1.319860   -0.472556
     27          8           0        3.780465    1.397491   -1.578255
     28          8           0        3.124818    2.251177    0.319762
 ---------------------------------------------------------------------

 SCF Done:  E(RHF) =  -868.338381038     A.U. after   16 cycles
 E2 =    -0.2602057752D+01 EUMP2 =    -0.87094043879036D+03

 The electronic state is 1-A.
 Alpha  occ. eigenvalues --  -20.61104 -20.61073 -20.61070 -20.61039 -15.86133
 Alpha  occ. eigenvalues --  -15.86113 -11.31375 -11.31266 -11.28073 -11.27902
 Alpha  occ. eigenvalues --  -11.27832 -11.27769 -11.27535 -11.27511 -11.26927
 Alpha  occ. eigenvalues --  -11.26790 -11.26777 -11.26776  -1.60159  -1.60135
 Alpha  occ. eigenvalues --   -1.39722  -1.39694  -1.19552  -1.19425  -1.08902
 Alpha  occ. eigenvalues --   -1.08859  -1.05013  -1.04771  -0.95764  -0.95733
 Alpha  occ. eigenvalues --   -0.86360  -0.86183  -0.82681  -0.82540  -0.77807
 Alpha  occ. eigenvalues --   -0.77595  -0.72375  -0.72331  -0.71474  -0.71454
 Alpha  occ. eigenvalues --   -0.70555  -0.70539  -0.65192  -0.65089  -0.65024
 Alpha  occ. eigenvalues --   -0.64725  -0.62467  -0.62059  -0.55340  -0.55278
 Alpha  occ. eigenvalues --   -0.53440  -0.53157  -0.53004  -0.52670  -0.49130
 Alpha  occ. eigenvalues --   -0.49103  -0.49091  -0.49069  -0.45179  -0.45126
 Alpha  occ. eigenvalues --   -0.37390  -0.37386  -0.36783  -0.36166
 Alpha virt. eigenvalues --    0.04791   0.04893   0.10928   0.11276   0.16183
 Alpha virt. eigenvalues --    0.16510   0.20036   0.22301   0.25536   0.27137
 Alpha virt. eigenvalues --    0.28605   0.29789   0.30037   0.31503   0.32326

 Mulliken charges:
               1
     1  C   -0.168751
     2  C   -0.219218
     3  C   -0.169964
     4  C    0.154508
     5  C   -0.171861
     6  C   -0.222578
     7  H    0.229325
     8  H    0.224446
     9  H    0.275223
    10  H    0.278634
    11  H    0.223686
    12  N    0.488411
    13  O   -0.468450
    14  O   -0.459102
    15  C   -0.155485
    16  C   -0.233795
    17  C   -0.174989
    18  C    0.160055
    19  C   -0.169484
    20  C   -0.218565
    21  H    0.236298
    22  H    0.223885
    23  H    0.268792
    24  H    0.276675
    25  H    0.227871
    26  N    0.488746
    27  O   -0.458257
    28  O   -0.466057
 Sum of Mulliken charges =  -0.00000

 Dipole moment (field-independent basis, Debye):
    X=             -1.1355    Y=              0.2416    Z=              2.1809  Tot=              2.4706
 Quadrupole moment (field-independent basis, Debye-Ang):
   XX=           -116.1331   YY=           -104.1534   ZZ=           -100.4169
   XY=            -28.9358   XZ=              2.5457   YZ=              1.2176

 Normal termination of Gaussian 16 at Fri May  7 05:04:52 2021.
