 Gaussian 16, Revision A.03,
 Gaussian 16:  EM64L-G16RevA.03 25-Dec-2016

 -------------
 #p 6-31g* mp2
 -------------

 ------------------------------------------------------
 Input file generated by CHIRIPA (05-May-2021 14:57:24)
 ------------------------------------------------------
 Symbolic Z-matrix:
 Charge =  0 Multiplicity = 1

                         Standard orientation:
 ---------------------------------------------------------------------
 Center     Atomic      Atomic             Coordinates (Angstroms)
 Number     Number       Type             X           Y           Z
 ---------------------------------------------------------------------
      1          6           0       -0.403301   -2.228914    1.002505
      2          6           0       -1.284222   -2.590112   -0.022208
      3          6           0       -2.272715   -1.701194   -0.454938
      4          6           0       -2.352174   -0.453626    0.161948
      5          6           0       -1.489244   -0.064508    1.185291
      6          6           0       -0.508439   -0.969485    1.601927
      7          1           0        0.361598   -2.925684    1.332408
      8          1           0       -1.204910   -3.567532   -0.489546
      9          1           0       -2.967712   -1.955016   -1.246122
     10          1           0       -1.592954    0.916880    1.631990
     11          1           0        0.174331   -0.686269    2.397954
     12          7           0       -3.394578    0.495932   -0.287644
     13          8           0       -3.443773    1.589092    0.272015
     14          8           0       -4.142682    0.129056   -1.191181
     15          6           0        0.869637    2.736533    0.119312
     16          6           0        0.874348    2.118559   -1.135522
     17          6           0        1.597051    0.940070   -1.343878
     18          6           0        2.307091    0.404551   -0.270401
     19          6           0        2.322042    0.996676    0.991523
     20          6           0        1.592225    2.174610    1.176965
     21          1           0        0.305461    3.651796    0.272267
     22          1           0        0.314091    2.552705   -1.958733
     23          1           0        1.618031    0.440852   -2.305002
     24          1           0        2.890173    0.540178    1.792931
     25          1           0        1.590383    2.652356    2.152568
     26          7           0        3.075949   -0.842769   -0.478850
     27          8           0        3.693356   -1.294536    0.483103
     28          8           0        3.046615   -1.345033   -1.600236
 ---------------------------------------------------------------------

 SCF Done:  E(RHF) =  -868.338186787     A.U. after   16 cycles
 E2 =    -0.2604574765D+01 EUMP2 =    -0.87094276155213D+03

 The electronic state is 1-A.
 Alpha  occ. eigenvalues --  -20.61402 -20.61371 -20.61059 -20.61030 -15.86428
 Alpha  occ. eigenvalues --  -15.86090 -11.31634 -11.31235 -11.28268 -11.28161
 Alpha  occ. eigenvalues --  -11.27862 -11.27791 -11.27739 -11.27369 -11.27220
 Alpha  occ. eigenvalues --  -11.27094 -11.26734 -11.26679  -1.60467  -1.60127
 Alpha  occ. eigenvalues --   -1.40025  -1.39687  -1.19830  -1.19366  -1.09220
 Alpha  occ. eigenvalues --   -1.08800  -1.05224  -1.04742  -0.96081  -0.95673
 Alpha  occ. eigenvalues --   -0.86607  -0.86148  -0.82925  -0.82519  -0.78006
 Alpha  occ. eigenvalues --   -0.77616  -0.72653  -0.72314  -0.71801  -0.71452
 Alpha  occ. eigenvalues --   -0.70888  -0.70429  -0.65465  -0.65196  -0.65022
 Alpha  occ. eigenvalues --   -0.64752  -0.62567  -0.62129  -0.55642  -0.55209
 Alpha  occ. eigenvalues --   -0.54145  -0.53285  -0.52847  -0.52449  -0.49423
 Alpha  occ. eigenvalues --   -0.49394  -0.49082  -0.49046  -0.45467  -0.45143
 Alpha  occ. eigenvalues --   -0.38153  -0.37214  -0.36730  -0.36060
 Alpha virt. eigenvalues --    0.04443   0.04943   0.10571   0.11534   0.15996
 Alpha virt. eigenvalues --    0.16462   0.20585   0.21875   0.26278   0.27471
 Alpha virt. eigenvalues --    0.27980   0.28743   0.30741   0.31103   0.31936

 Mulliken charges:
               1
     1  C   -0.176482
     2  C   -0.216778
     3  C   -0.173241
     4  C    0.156088
     5  C   -0.165813
     6  C   -0.215272
     7  H    0.235253
     8  H    0.227194
     9  H    0.274872
    10  H    0.268263
    11  H    0.219461
    12  N    0.487867
    13  O   -0.466161
    14  O   -0.459900
    15  C   -0.169932
    16  C   -0.218224
    17  C   -0.168730
    18  C    0.165833
    19  C   -0.178288
    20  C   -0.224901
    21  H    0.233711
    22  H    0.230590
    23  H    0.276999
    24  H    0.271640
    25  H    0.223346
    26  N    0.487055
    27  O   -0.465805
    28  O   -0.458647
 Sum of Mulliken charges =  -0.00000

 Dipole moment (field-independent basis, Debye):
    X=              1.0201    Y=              1.0602    Z=              2.1176  Tot=              2.5786
 Quadrupole moment (field-independent basis, Debye-Ang):
   XX=           -135.9611   YY=            -96.1837   ZZ=            -98.3950
   XY=             16.7374   XZ=              1.9927   YZ=              0.2736

 Normal termination of Gaussian 16 at Wed May  5 22:44:36 2021.
