 Gaussian 16, Revision A.03,
 Gaussian 16:  EM64L-G16RevA.03 25-Dec-2016

 -------------
 #p 6-31g* mp2
 -------------

 ------------------------------------------------------
 Input file generated by CHIRIPA (05-May-2021 14:53:14)
 ------------------------------------------------------
 Symbolic Z-matrix:
 Charge =  0 Multiplicity = 1

                         Standard orientation:
 ---------------------------------------------------------------------
 Center     Atomic      Atomic             Coordinates (Angstroms)
 Number     Number       Type             X           Y           Z
 ---------------------------------------------------------------------
      1          6           0        4.303164   -0.069234   -0.389855
      2          6           0        4.847013    0.987959    0.571685
      3          6           0        6.357429    1.185706    0.440026
      4          1           0        4.816716   -1.022674   -0.205031
      5          1           0        4.547215    0.222545   -1.420728
      6          1           0        4.600802    0.694971    1.600351
      7          1           0        4.331970    1.938946    0.384680
      8          1           0        6.617517    1.501699   -0.575407
      9          1           0        6.887876    0.250657    0.647172
     10          1           0        6.725030    1.945757    1.136482
     11          6           0        2.794620   -0.278267   -0.270158
     12          6           0        2.250771   -1.335460   -1.231698
     13          6           0        0.740356   -1.533207   -1.100039
     14          1           0        2.550569   -0.570046    0.760715
     15          1           0        2.281068    0.675173   -0.454983
     16          1           0        2.765814   -2.286447   -1.044693
     17          1           0        2.496982   -1.042472   -2.260364
     18          1           0        0.209908   -0.598158   -1.307185
     19          1           0        0.480267   -1.849200   -0.084606
     20          1           0        0.372754   -2.293259   -1.796495
     21          6           0       -2.020987   -2.084776    1.190738
     22          6           0       -1.712512   -0.900437    1.868016
     23          6           0       -2.123830    0.335550    1.360375
     24          6           0       -2.845233    0.350414    0.167626
     25          6           0       -3.168065   -0.812273   -0.530390
     26          6           0       -2.746500   -2.036999   -0.004197
     27          1           0       -1.697485   -3.040546    1.592291
     28          1           0       -1.149203   -0.934515    2.796222
     29          1           0       -1.898689    1.267689    1.864205
     30          1           0       -3.731008   -0.746398   -1.453523
     31          1           0       -2.987499   -2.955172   -0.532328
     32          7           0       -3.286100    1.652937   -0.379611
     33          8           0       -3.920467    1.639096   -1.432238
     34          8           0       -2.988939    2.663033    0.254454
 ---------------------------------------------------------------------

 SCF Done:  E(RHF) =  -669.534142211     A.U. after   15 cycles
 E2 =    -0.2093398601D+01 EUMP2 =    -0.67162754081181D+03

 The electronic state is 1-A.
 Alpha  occ. eigenvalues --  -20.60778 -20.60773 -15.85833 -11.31193 -11.27770
 Alpha  occ. eigenvalues --  -11.27765 -11.27484 -11.26758 -11.26747 -11.21746
 Alpha  occ. eigenvalues --  -11.21739 -11.21584 -11.21513 -11.21181 -11.21150
 Alpha  occ. eigenvalues --   -1.59856  -1.39409  -1.19370  -1.08779  -1.08584
 Alpha  occ. eigenvalues --   -1.04766  -1.03672  -0.96127  -0.95603  -0.87145
 Alpha  occ. eigenvalues --   -0.86172  -0.82433  -0.79745  -0.78409  -0.77477
 Alpha  occ. eigenvalues --   -0.72051  -0.71181  -0.70490  -0.65224  -0.65023
 Alpha  occ. eigenvalues --   -0.64773  -0.62116  -0.61081  -0.59500  -0.57777
 Alpha  occ. eigenvalues --   -0.55448  -0.55276  -0.53587  -0.52865  -0.52784
 Alpha  occ. eigenvalues --   -0.52109  -0.50080  -0.48809  -0.48805  -0.47991
 Alpha  occ. eigenvalues --   -0.46795  -0.45927  -0.45882  -0.44816  -0.43945
 Alpha  occ. eigenvalues --   -0.37226  -0.36348
 Alpha virt. eigenvalues --    0.05037   0.11229   0.16485   0.21251   0.22745
 Alpha virt. eigenvalues --    0.24186   0.26436   0.27062   0.27417   0.27768
 Alpha virt. eigenvalues --    0.28455   0.30693   0.31314   0.31765   0.31843

 Mulliken charges:
               1
     1  C   -0.298194
     2  C   -0.299778
     3  C   -0.475776
     4  H    0.148602
     5  H    0.151084
     6  H    0.149823
     7  H    0.153819
     8  H    0.156180
     9  H    0.154562
    10  H    0.160730
    11  C   -0.297564
    12  C   -0.300772
    13  C   -0.474576
    14  H    0.144383
    15  H    0.152499
    16  H    0.149084
    17  H    0.153112
    18  H    0.158421
    19  H    0.153623
    20  H    0.154295
    21  C   -0.172329
    22  C   -0.216706
    23  C   -0.170130
    24  C    0.158431
    25  C   -0.171010
    26  C   -0.212276
    27  H    0.225646
    28  H    0.223240
    29  H    0.275682
    30  H    0.275677
    31  H    0.223441
    32  N    0.487791
    33  O   -0.460476
    34  O   -0.460535
 Sum of Mulliken charges =  -0.00000

 Dipole moment (field-independent basis, Debye):
    X=              1.4806    Y=             -4.5644    Z=              1.9333  Tot=              5.1734
 Quadrupole moment (field-independent basis, Debye-Ang):
   XX=           -104.5534   YY=            -97.0049   ZZ=            -90.9972
   XY=             14.7951   XZ=             -3.2954   YZ=              1.3393

 Normal termination of Gaussian 16 at Thu May  6 20:23:42 2021.
