 Gaussian 16, Revision A.03,
 Gaussian 16:  EM64L-G16RevA.03 25-Dec-2016

 -------------
 #p 6-31g* mp2
 -------------

 ------------------------------------------------------
 Input file generated by CHIRIPA (05-May-2021 14:57:27)
 ------------------------------------------------------
 Symbolic Z-matrix:
 Charge =  0 Multiplicity = 1

                         Standard orientation:
 ---------------------------------------------------------------------
 Center     Atomic      Atomic             Coordinates (Angstroms)
 Number     Number       Type             X           Y           Z
 ---------------------------------------------------------------------
      1          6           0        6.056936    0.229692   -0.892542
      2          6           0        5.761207   -0.906113   -0.131614
      3          6           0        4.475031   -1.103006    0.379788
      4          6           0        3.504399   -0.139566    0.109702
      5          6           0        3.768062    1.002432   -0.645026
      6          6           0        5.061175    1.178666   -1.146372
      7          1           0        7.058763    0.374620   -1.285906
      8          1           0        6.532542   -1.644759    0.067104
      9          1           0        4.218753   -1.973161    0.971877
     10          1           0        2.978234    1.721254   -0.826365
     11          1           0        5.287977    2.061707   -1.737004
     12          7           0        2.139110   -0.337073    0.645778
     13          8           0        1.301647    0.526492    0.393688
     14          8           0        1.932312   -1.351704    1.307892
     15          6           0       -2.813793    2.329074    0.746771
     16          6           0       -3.890218    2.286208   -0.145414
     17          6           0       -4.405699    1.060682   -0.577748
     18          6           0       -3.817934   -0.107806   -0.095609
     19          6           0       -2.744610   -0.097926    0.793867
     20          6           0       -2.245427    1.138969    1.212743
     21          1           0       -2.419686    3.285509    1.077391
     22          1           0       -4.333605    3.208865   -0.508947
     23          1           0       -5.238276    0.998529   -1.267944
     24          1           0       -2.323560   -1.034480    1.138831
     25          1           0       -1.409383    1.169222    1.905678
     26          7           0       -4.355024   -1.411234   -0.546178
     27          8           0       -3.819522   -2.426486   -0.106702
     28          8           0       -5.301327   -1.392927   -1.330277
 ---------------------------------------------------------------------

 SCF Done:  E(RHF) =  -868.339665435     A.U. after   16 cycles
 E2 =    -0.2598675026D+01 EUMP2 =    -0.87093834046020D+03

 The electronic state is 1-A.
 Alpha  occ. eigenvalues --  -20.61475 -20.61452 -20.59780 -20.59760 -15.86486
 Alpha  occ. eigenvalues --  -15.84814 -11.31645 -11.29978 -11.28203 -11.28172
 Alpha  occ. eigenvalues --  -11.27893 -11.27165 -11.27142 -11.26584 -11.26365
 Alpha  occ. eigenvalues --  -11.26238 -11.25626 -11.25313  -1.60532  -1.58852
 Alpha  occ. eigenvalues --   -1.40088  -1.38409  -1.19798  -1.18120  -1.09234
 Alpha  occ. eigenvalues --   -1.07572  -1.05170  -1.03462  -0.96104  -0.94439
 Alpha  occ. eigenvalues --   -0.86578  -0.84890  -0.82941  -0.81255  -0.78013
 Alpha  occ. eigenvalues --   -0.76319  -0.72720  -0.71829  -0.71041  -0.70905
 Alpha  occ. eigenvalues --   -0.70170  -0.69263  -0.65455  -0.65173  -0.63770
 Alpha  occ. eigenvalues --   -0.63457  -0.62520  -0.60802  -0.55680  -0.54039
 Alpha  occ. eigenvalues --   -0.53509  -0.53260  -0.51844  -0.51551  -0.49482
 Alpha  occ. eigenvalues --   -0.49459  -0.47804  -0.47778  -0.45533  -0.43858
 Alpha  occ. eigenvalues --   -0.37765  -0.36763  -0.36132  -0.35024
 Alpha virt. eigenvalues --    0.04505   0.06169   0.10895   0.12595   0.16040
 Alpha virt. eigenvalues --    0.17710   0.21055   0.22691   0.26975   0.27921
 Alpha virt. eigenvalues --    0.28738   0.29480   0.30641   0.32092   0.32266

 Mulliken charges:
               1
     1  C   -0.169960
     2  C   -0.218510
     3  C   -0.170159
     4  C    0.158049
     5  C   -0.170631
     6  C   -0.218476
     7  H    0.227251
     8  H    0.225311
     9  H    0.276994
    10  H    0.274381
    11  H    0.224339
    12  N    0.489575
    13  O   -0.467459
    14  O   -0.458852
    15  C   -0.173817
    16  C   -0.219182
    17  C   -0.173992
    18  C    0.156665
    19  C   -0.170420
    20  C   -0.207974
    21  H    0.220787
    22  H    0.217578
    23  H    0.270764
    24  H    0.280765
    25  H    0.234628
    26  N    0.487964
    27  O   -0.460228
    28  O   -0.465394
 Sum of Mulliken charges =  -0.00000

 Dipole moment (field-independent basis, Debye):
    X=              7.2545    Y=              5.1719    Z=             -0.1726  Tot=              8.9110
 Quadrupole moment (field-independent basis, Debye-Ang):
   XX=            -84.6879   YY=           -102.2186   ZZ=           -104.2933
   XY=            -19.1127   XZ=            -10.1498   YZ=             -3.9732

 Normal termination of Gaussian 16 at Fri May  7 12:45:51 2021.
