 Gaussian 16, Revision A.03,
 Gaussian 16:  EM64L-G16RevA.03 25-Dec-2016

 -------------
 #p 6-31g* mp2
 -------------

 ------------------------------------------------------
 Input file generated by CHIRIPA (05-May-2021 14:51:13)
 ------------------------------------------------------
 Symbolic Z-matrix:
 Charge =  0 Multiplicity = 1

                         Standard orientation:
 ---------------------------------------------------------------------
 Center     Atomic      Atomic             Coordinates (Angstroms)
 Number     Number       Type             X           Y           Z
 ---------------------------------------------------------------------
      1          6           0        3.039833    0.984032    0.153633
      2          6           0        3.688171    2.327489   -0.182174
      3          6           0        2.817660    3.519849    0.215672
      4          1           0        2.068015    0.915981   -0.354188
      5          1           0        2.832486    0.944219    1.231973
      6          1           0        3.895498    2.364200   -1.259339
      7          1           0        4.658646    2.392269    0.326353
      8          1           0        2.621188    3.511051    1.292669
      9          1           0        1.853704    3.482823   -0.302033
     10          1           0        3.300240    4.470080   -0.033400
     11          6           0        3.898018   -0.217542   -0.238117
     12          6           0        3.249679   -1.560999    0.097691
     13          6           0        4.120191   -2.753359   -0.300155
     14          1           0        4.105365   -0.177729   -1.316457
     15          1           0        4.869836   -0.149491    0.269705
     16          1           0        2.279205   -1.625779   -0.410836
     17          1           0        3.042353   -1.597710    1.174856
     18          1           0        5.084147   -2.716333    0.217549
     19          1           0        4.316663   -2.744561   -1.377152
     20          1           0        3.637610   -3.703590   -0.051083
     21          6           0       -2.824518   -0.654653   -0.265181
     22          6           0       -1.849594   -1.218080    0.769256
     23          6           0       -0.565180   -1.757245    0.138878
     24          1           0       -3.072776   -1.440377   -0.991783
     25          1           0       -2.327279    0.146720   -0.829051
     26          1           0       -2.348977   -2.017216    1.331942
     27          1           0       -1.603777   -0.430978    1.493592
     28          1           0       -0.042107   -0.965405   -0.407000
     29          1           0       -0.791541   -2.560654   -0.569568
     30          1           0        0.117426   -2.155109    0.896250
     31          6           0       -4.113333   -0.111837    0.349664
     32          6           0       -5.088256    0.451590   -0.684773
     33          6           0       -6.372670    0.990755   -0.054395
     34          1           0       -4.610572   -0.913210    0.913535
     35          1           0       -3.865075    0.673887    1.076267
     36          1           0       -5.334073   -0.335511   -1.409109
     37          1           0       -4.588874    1.250726   -1.247459
     38          1           0       -6.146310    1.794165    0.654052
     39          1           0       -6.895744    0.198914    0.491484
     40          1           0       -7.055277    1.388620   -0.811767
 ---------------------------------------------------------------------

 SCF Done:  E(RHF) =  -470.732406226     A.U. after   11 cycles
 E2 =    -0.1583303423D+01 EUMP2 =    -0.47231570964901D+03

 The electronic state is 1-A.
 Alpha  occ. eigenvalues --  -11.21603 -11.21601 -11.21581 -11.21431 -11.21405
 Alpha  occ. eigenvalues --  -11.21382 -11.21346 -11.21302 -11.21086 -11.21071
 Alpha  occ. eigenvalues --  -11.21033 -11.20987  -1.08436  -1.08384  -1.03548
 Alpha  occ. eigenvalues --   -1.03462  -0.95988  -0.95938  -0.87044  -0.86925
 Alpha  occ. eigenvalues --   -0.79721  -0.79448  -0.78285  -0.78146  -0.65106
 Alpha  occ. eigenvalues --   -0.64987  -0.60978  -0.60841  -0.59462  -0.59205
 Alpha  occ. eigenvalues --   -0.57624  -0.57513  -0.55286  -0.55231  -0.52770
 Alpha  occ. eigenvalues --   -0.52591  -0.52411  -0.52342  -0.49979  -0.49867
 Alpha  occ. eigenvalues --   -0.47935  -0.47851  -0.46735  -0.46531  -0.45884
 Alpha  occ. eigenvalues --   -0.45742  -0.45702  -0.45411  -0.43785  -0.43668
 Alpha virt. eigenvalues --    0.21686   0.23095   0.23949   0.24302   0.25335
 Alpha virt. eigenvalues --    0.26693   0.26846   0.27560   0.27811   0.29380
 Alpha virt. eigenvalues --    0.30629   0.30993   0.31637   0.31869   0.32284

 Mulliken charges:
               1
     1  C   -0.300102
     2  C   -0.299548
     3  C   -0.475606
     4  H    0.150451
     5  H    0.149489
     6  H    0.151900
     7  H    0.152180
     8  H    0.155133
     9  H    0.154638
    10  H    0.160329
    11  C   -0.298019
    12  C   -0.307006
    13  C   -0.475311
    14  H    0.148959
    15  H    0.149139
    16  H    0.164590
    17  H    0.150101
    18  H    0.154430
    19  H    0.154677
    20  H    0.159835
    21  C   -0.298450
    22  C   -0.300210
    23  C   -0.479577
    24  H    0.149510
    25  H    0.149106
    26  H    0.151683
    27  H    0.152334
    28  H    0.156637
    29  H    0.154407
    30  H    0.164204
    31  C   -0.298281
    32  C   -0.299615
    33  C   -0.475709
    34  H    0.149547
    35  H    0.149766
    36  H    0.151883
    37  H    0.151846
    38  H    0.155235
    39  H    0.155182
    40  H    0.160239
 Sum of Mulliken charges =  -0.00000

 Dipole moment (field-independent basis, Debye):
    X=             -0.0225    Y=             -0.0124    Z=              0.0020  Tot=              0.0258
 Quadrupole moment (field-independent basis, Debye-Ang):
   XX=            -85.8931   YY=            -85.0797   ZZ=            -84.0742
   XY=              1.3744   XZ=              0.8536   YZ=             -0.2413

 Normal termination of Gaussian 16 at Thu May  6 00:46:49 2021.
