 Gaussian 16, Revision A.03,
 Gaussian 16:  EM64L-G16RevA.03 25-Dec-2016

 -------------
 #p 6-31g* mp2
 -------------

 ------------------------------------------------------
 Input file generated by CHIRIPA (05-May-2021 14:53:14)
 ------------------------------------------------------
 Symbolic Z-matrix:
 Charge =  0 Multiplicity = 1

                         Standard orientation:
 ---------------------------------------------------------------------
 Center     Atomic      Atomic             Coordinates (Angstroms)
 Number     Number       Type             X           Y           Z
 ---------------------------------------------------------------------
      1          6           0        3.512831    0.936372   -0.421943
      2          6           0        2.133004    1.381221   -0.907917
      3          6           0        2.038539    2.893063   -1.115773
      4          1           0        3.747151    1.452651    0.519065
      5          1           0        4.270921    1.255317   -1.150620
      6          1           0        1.377593    1.060322   -0.179224
      7          1           0        1.901861    0.863679   -1.847778
      8          1           0        2.770562    3.226287   -1.858541
      9          1           0        2.243316    3.424048   -0.180506
     10          1           0        1.043817    3.189159   -1.463214
     11          6           0        3.622919   -0.572433   -0.209537
     12          6           0        5.002746   -1.017282    0.276437
     13          6           0        5.097211   -2.529124    0.484292
     14          1           0        2.864829   -0.891377    0.519139
     15          1           0        3.388599   -1.088711   -1.150545
     16          1           0        5.233890   -0.499739    1.216298
     17          1           0        5.758157   -0.696382   -0.452257
     18          1           0        4.892434   -3.060108   -0.450974
     19          1           0        4.365188   -2.862348    1.227061
     20          1           0        6.091933   -2.825220    0.831734
     21          6           0       -1.286128    1.514241    1.416468
     22          6           0       -0.864421    0.192741    1.236679
     23          6           0       -1.687947   -0.733589    0.589947
     24          6           0       -2.932540   -0.302299    0.133580
     25          6           0       -3.380999    1.007390    0.297563
     26          6           0       -2.540860    1.916637    0.947164
     27          1           0       -0.639940    2.227201    1.919980
     28          1           0        0.109509   -0.122574    1.600109
     29          1           0       -1.386449   -1.762785    0.437395
     30          1           0       -4.357248    1.292113   -0.075651
     31          1           0       -2.870980    2.942288    1.085390
     32          7           0       -3.813165   -1.273921   -0.552605
     33          8           0       -4.905104   -0.868965   -0.945437
     34          8           0       -3.394785   -2.422037   -0.684611
 ---------------------------------------------------------------------

 SCF Done:  E(RHF) =  -669.534719999     A.U. after   15 cycles
 E2 =    -0.2092819434D+01 EUMP2 =    -0.67162753943332D+03

 The electronic state is 1-A.
 Alpha  occ. eigenvalues --  -20.60790 -20.60784 -15.85844 -11.31230 -11.27797
 Alpha  occ. eigenvalues --  -11.27791 -11.27551 -11.26821 -11.26811 -11.22128
 Alpha  occ. eigenvalues --  -11.22110 -11.22047 -11.21965 -11.21676 -11.21504
 Alpha  occ. eigenvalues --   -1.59864  -1.39417  -1.19411  -1.09035  -1.08799
 Alpha  occ. eigenvalues --   -1.04821  -1.04075  -0.96537  -0.95629  -0.87551
 Alpha  occ. eigenvalues --   -0.86224  -0.82462  -0.80142  -0.78854  -0.77501
 Alpha  occ. eigenvalues --   -0.72063  -0.71187  -0.70510  -0.65739  -0.65061
 Alpha  occ. eigenvalues --   -0.64796  -0.62182  -0.61470  -0.59899  -0.58142
 Alpha  occ. eigenvalues --   -0.55849  -0.55310  -0.53263  -0.53115  -0.52957
 Alpha  occ. eigenvalues --   -0.52901  -0.50486  -0.48829  -0.48815  -0.48445
 Alpha  occ. eigenvalues --   -0.47184  -0.46374  -0.46319  -0.44818  -0.44346
 Alpha  occ. eigenvalues --   -0.37344  -0.36366
 Alpha virt. eigenvalues --    0.05023   0.11099   0.16472   0.19600   0.22871
 Alpha virt. eigenvalues --    0.23656   0.24803   0.26388   0.27236   0.28494
 Alpha virt. eigenvalues --    0.28959   0.30980   0.31303   0.31406   0.31583

 Mulliken charges:
               1
     1  C   -0.298510
     2  C   -0.306042
     3  C   -0.476145
     4  H    0.146501
     5  H    0.152482
     6  H    0.151922
     7  H    0.155971
     8  H    0.158322
     9  H    0.149873
    10  H    0.161858
    11  C   -0.297648
    12  C   -0.299964
    13  C   -0.475942
    14  H    0.140262
    15  H    0.153742
    16  H    0.151255
    17  H    0.154378
    18  H    0.157376
    19  H    0.153700
    20  H    0.162167
    21  C   -0.169363
    22  C   -0.218691
    23  C   -0.172161
    24  C    0.158464
    25  C   -0.170778
    26  C   -0.218706
    27  H    0.226576
    28  H    0.225697
    29  H    0.276157
    30  H    0.275823
    31  H    0.223820
    32  N    0.488082
    33  O   -0.460338
    34  O   -0.460139
 Sum of Mulliken charges =  -0.00000

 Dipole moment (field-independent basis, Debye):
    X=              3.1290    Y=              3.3973    Z=              2.3384  Tot=              5.1769
 Quadrupole moment (field-independent basis, Debye-Ang):
   XX=           -110.4961   YY=            -95.7603   ZZ=            -93.8327
   XY=            -13.9335   XZ=             -6.8591   YZ=             -0.4168

 Normal termination of Gaussian 16 at Thu May  6 02:39:29 2021.
