 Gaussian 16, Revision A.03,
 Gaussian 16:  EM64L-G16RevA.03 25-Dec-2016

 -------------
 #p 6-31g* mp2
 -------------

 ------------------------------------------------------
 Input file generated by CHIRIPA (05-May-2021 14:55:21)
 ------------------------------------------------------
 Symbolic Z-matrix:
 Charge =  0 Multiplicity = 1

                         Standard orientation:
 ---------------------------------------------------------------------
 Center     Atomic      Atomic             Coordinates (Angstroms)
 Number     Number       Type             X           Y           Z
 ---------------------------------------------------------------------
      1          6           0       -3.372045    2.700885    0.307302
      2          6           0       -4.370779    1.908195   -0.267758
      3          6           0       -4.172946    0.535815   -0.446596
      4          6           0       -2.958845   -0.013327   -0.037094
      5          6           0       -1.944549    0.750006    0.538943
      6          6           0       -2.164247    2.120284    0.708110
      7          1           0       -3.534220    3.766166    0.442471
      8          1           0       -5.309765    2.356385   -0.579972
      9          1           0       -4.929162   -0.101193   -0.889062
     10          1           0       -1.018991    0.274648    0.840264
     11          1           0       -1.386839    2.733452    1.154995
     12          7           0       -2.737834   -1.465092   -0.221303
     13          8           0       -1.659371   -1.924757    0.147834
     14          8           0       -3.647254   -2.115830   -0.731334
     15          6           0        3.445041   -0.746621    0.480802
     16          6           0        2.425277   -1.632156   -0.236064
     17          6           0        1.655198   -2.541588    0.721904
     18          1           0        4.151039   -1.383236    1.031467
     19          1           0        2.925501   -0.134488    1.230979
     20          1           0        2.946391   -2.241436   -0.985621
     21          1           0        1.721741   -0.993366   -0.785243
     22          1           0        1.109921   -1.947515    1.462411
     23          1           0        2.341530   -3.202677    1.260895
     24          1           0        0.931675   -3.165879    0.188392
     25          6           0        4.222851    0.168211   -0.463562
     26          6           0        5.242614    1.053746    0.253304
     27          6           0        6.012694    1.963178   -0.704665
     28          1           0        4.742391   -0.443922   -1.213739
     29          1           0        3.516852    0.804826   -1.014228
     30          1           0        5.946152    0.414955    0.802483
     31          1           0        4.721501    1.663025    1.002860
     32          1           0        5.326362    2.624266   -1.243655
     33          1           0        6.557971    1.369104   -1.445172
     34          1           0        6.736217    2.587469   -0.171153
 ---------------------------------------------------------------------

 SCF Done:  E(RHF) =  -669.535568500     A.U. after   15 cycles
 E2 =    -0.2091530735D+01 EUMP2 =    -0.67162709923480D+03

 The electronic state is 1-A.
 Alpha  occ. eigenvalues --  -20.60875 -20.60869 -15.85911 -11.31266 -11.27836
 Alpha  occ. eigenvalues --  -11.27830 -11.27574 -11.26848 -11.26838 -11.21543
 Alpha  occ. eigenvalues --  -11.21220 -11.21074 -11.21058 -11.20948 -11.19931
 Alpha  occ. eigenvalues --   -1.59944  -1.39499  -1.19438  -1.08837  -1.08140
 Alpha  occ. eigenvalues --   -1.04839  -1.03115  -0.95701  -0.95508  -0.86552
 Alpha  occ. eigenvalues --   -0.86237  -0.82506  -0.79211  -0.77930  -0.77551
 Alpha  occ. eigenvalues --   -0.72147  -0.71260  -0.70546  -0.65099  -0.64860
 Alpha  occ. eigenvalues --   -0.64771  -0.62191  -0.60521  -0.58941  -0.57117
 Alpha  occ. eigenvalues --   -0.55341  -0.54841  -0.53169  -0.52932  -0.52150
 Alpha  occ. eigenvalues --   -0.51963  -0.49540  -0.48895  -0.48855  -0.47494
 Alpha  occ. eigenvalues --   -0.46280  -0.45457  -0.45408  -0.44893  -0.43349
 Alpha  occ. eigenvalues --   -0.37418  -0.36442
 Alpha virt. eigenvalues --    0.04963   0.11205   0.16456   0.20418   0.22799
 Alpha virt. eigenvalues --    0.23990   0.26486   0.27504   0.27719   0.27895
 Alpha virt. eigenvalues --    0.29181   0.30665   0.31513   0.32072   0.32648

 Mulliken charges:
               1
     1  C   -0.170524
     2  C   -0.218644
     3  C   -0.170509
     4  C    0.157464
     5  C   -0.172379
     6  C   -0.219077
     7  H    0.225910
     8  H    0.223739
     9  H    0.275811
    10  H    0.277963
    11  H    0.223791
    12  N    0.493432
    13  O   -0.464548
    14  O   -0.459748
    15  C   -0.296702
    16  C   -0.301522
    17  C   -0.472319
    18  H    0.150075
    19  H    0.141988
    20  H    0.150976
    21  H    0.149771
    22  H    0.150952
    23  H    0.147041
    24  H    0.181082
    25  C   -0.297393
    26  C   -0.298849
    27  C   -0.475329
    28  H    0.150672
    29  H    0.146495
    30  H    0.152680
    31  H    0.148711
    32  H    0.153541
    33  H    0.156042
    34  H    0.159405
 Sum of Mulliken charges =  -0.00000

 Dipole moment (field-independent basis, Debye):
    X=             -0.9845    Y=              4.9821    Z=              0.5960  Tot=              5.1133
 Quadrupole moment (field-independent basis, Debye-Ang):
   XX=            -86.4820   YY=            -95.0996   ZZ=            -95.2250
   XY=            -15.9848   XZ=              0.3787   YZ=              0.6384

 Normal termination of Gaussian 16 at Thu May  6 04:36:44 2021.
