 Gaussian 16, Revision A.03,
 Gaussian 16:  EM64L-G16RevA.03 25-Dec-2016

 -------------
 #p 6-31g* mp2
 -------------

 ------------------------------------------------------
 Input file generated by CHIRIPA (05-May-2021 14:57:25)
 ------------------------------------------------------
 Symbolic Z-matrix:
 Charge =  0 Multiplicity = 1

                         Standard orientation:
 ---------------------------------------------------------------------
 Center     Atomic      Atomic             Coordinates (Angstroms)
 Number     Number       Type             X           Y           Z
 ---------------------------------------------------------------------
      1          6           0       -1.398439   -2.141602    1.523296
      2          6           0       -2.314162   -2.288125    0.476155
      3          6           0       -2.760507   -1.172243   -0.238080
      4          6           0       -2.268225    0.080914    0.123231
      5          6           0       -1.355353    0.259360    1.161552
      6          6           0       -0.922795   -0.870569    1.862055
      7          1           0       -1.057062   -3.013902    2.072797
      8          1           0       -2.685253   -3.274005    0.210870
      9          1           0       -3.468975   -1.257032   -1.053127
     10          1           0       -1.003349    1.255003    1.402810
     11          1           0       -0.211585   -0.753775    2.674818
     12          7           0       -2.733452    1.269683   -0.625629
     13          8           0       -2.284623    2.362851   -0.287734
     14          8           0       -3.538117    1.085763   -1.536302
     15          6           0        2.233123    2.200568    1.172729
     16          6           0        2.423195    0.947365    1.764233
     17          6           0        2.402159   -0.214896    0.987539
     18          6           0        2.187531   -0.086614   -0.383873
     19          6           0        1.994949    1.147648   -1.002579
     20          6           0        2.019982    2.296541   -0.206358
     21          1           0        2.251017    3.098247    1.783668
     22          1           0        2.588933    0.869811    2.835009
     23          1           0        2.546476   -1.197731    1.419540
     24          1           0        1.831946    1.193127   -2.072524
     25          1           0        1.872073    3.268468   -0.668446
     26          7           0        2.163145   -1.309972   -1.216460
     27          8           0        1.972190   -1.170082   -2.422530
     28          8           0        2.335447   -2.385565   -0.647208
 ---------------------------------------------------------------------

 SCF Done:  E(RHF) =  -868.337713185     A.U. after   16 cycles
 E2 =    -0.2603919231D+01 EUMP2 =    -0.87094163241633D+03

 The electronic state is 1-A.
 Alpha  occ. eigenvalues --  -20.61071 -20.61044 -20.60825 -20.60786 -15.86112
 Alpha  occ. eigenvalues --  -15.85857 -11.31486 -11.31072 -11.28169 -11.28007
 Alpha  occ. eigenvalues --  -11.27838 -11.27649 -11.27597 -11.27342 -11.27198
 Alpha  occ. eigenvalues --  -11.26997 -11.26662 -11.26561  -1.60129  -1.59885
 Alpha  occ. eigenvalues --   -1.39685  -1.39442  -1.19710  -1.19237  -1.09080
 Alpha  occ. eigenvalues --   -1.08663  -1.05126  -1.04615  -0.95910  -0.95517
 Alpha  occ. eigenvalues --   -0.86493  -0.86036  -0.82745  -0.82358  -0.77789
 Alpha  occ. eigenvalues --   -0.77429  -0.72338  -0.72084  -0.71451  -0.71201
 Alpha  occ. eigenvalues --   -0.70797  -0.70338  -0.65353  -0.65091  -0.64896
 Alpha  occ. eigenvalues --   -0.64653  -0.62455  -0.61998  -0.55587  -0.55141
 Alpha  occ. eigenvalues --   -0.53786  -0.53181  -0.52737  -0.52581  -0.49100
 Alpha  occ. eigenvalues --   -0.49083  -0.48842  -0.48823  -0.45092  -0.44881
 Alpha  occ. eigenvalues --   -0.37760  -0.37402  -0.36776  -0.35802
 Alpha virt. eigenvalues --    0.04714   0.05123   0.10556   0.11775   0.16121
 Alpha virt. eigenvalues --    0.16667   0.20453   0.21978   0.26137   0.27845
 Alpha virt. eigenvalues --    0.28030   0.28781   0.30344   0.31646   0.32202

 Mulliken charges:
               1
     1  C   -0.167495
     2  C   -0.216513
     3  C   -0.169493
     4  C    0.155841
     5  C   -0.168917
     6  C   -0.218436
     7  H    0.227109
     8  H    0.226094
     9  H    0.276418
    10  H    0.271923
    11  H    0.214907
    12  N    0.488414
    13  O   -0.466210
    14  O   -0.458594
    15  C   -0.175450
    16  C   -0.227057
    17  C   -0.170383
    18  C    0.163085
    19  C   -0.170879
    20  C   -0.213360
    21  H    0.228724
    22  H    0.220525
    23  H    0.270852
    24  H    0.280048
    25  H    0.231873
    26  N    0.488728
    27  O   -0.457396
    28  O   -0.464357
 Sum of Mulliken charges =  -0.00000

 Dipole moment (field-independent basis, Debye):
    X=              1.7508    Y=              0.1357    Z=              5.2978  Tot=              5.5813
 Quadrupole moment (field-independent basis, Debye-Ang):
   XX=           -111.4712   YY=           -103.2684   ZZ=           -102.4269
   XY=             21.3177   XZ=              3.0635   YZ=             -3.0814

 Normal termination of Gaussian 16 at Thu May  6 03:32:11 2021.
