 Gaussian 16, Revision A.03,
 Gaussian 16:  EM64L-G16RevA.03 25-Dec-2016

 -------------
 #p 6-31g* mp2
 -------------

 ------------------------------------------------------
 Input file generated by CHIRIPA (05-May-2021 14:57:25)
 ------------------------------------------------------
 Symbolic Z-matrix:
 Charge =  0 Multiplicity = 1

                         Standard orientation:
 ---------------------------------------------------------------------
 Center     Atomic      Atomic             Coordinates (Angstroms)
 Number     Number       Type             X           Y           Z
 ---------------------------------------------------------------------
      1          6           0        1.624936   -1.871112    1.089873
      2          6           0        2.054428   -1.886314   -0.241227
      3          6           0        2.917057   -0.895907   -0.720302
      4          6           0        3.332349    0.099232    0.163169
      5          6           0        2.922010    0.141599    1.494753
      6          6           0        2.059333   -0.858988    1.952095
      7          1           0        0.954806   -2.644437    1.453588
      8          1           0        1.718689   -2.671116   -0.913098
      9          1           0        3.265062   -0.883658   -1.746051
     10          1           0        3.273754    0.936856    2.140711
     11          1           0        1.727409   -0.844663    2.986342
     12          7           0        4.245601    1.153120   -0.332503
     13          8           0        4.597068    2.018924    0.465928
     14          8           0        4.592649    1.093397   -1.510054
     15          6           0       -5.010578    1.636953    0.516873
     16          6           0       -3.822418    2.154018   -0.009852
     17          6           0       -2.802392    1.297686   -0.435043
     18          6           0       -3.005037   -0.076595   -0.318503
     19          6           0       -4.177474   -0.622277    0.201988
     20          6           0       -5.184008    0.252895    0.620929
     21          1           0       -5.797718    2.309490    0.844744
     22          1           0       -3.684968    3.228462   -0.091853
     23          1           0       -1.872537    1.671053   -0.846609
     24          1           0       -4.285397   -1.697908    0.271192
     25          1           0       -6.105698   -0.151487    1.029593
     26          7           0       -1.932323   -0.993128   -0.765325
     27          8           0       -2.135417   -2.200009   -0.652066
     28          8           0       -0.908748   -0.487271   -1.220342
 ---------------------------------------------------------------------

 SCF Done:  E(RHF) =  -868.339263641     A.U. after   16 cycles
 E2 =    -0.2599891891D+01 EUMP2 =    -0.87093915553204D+03

 The electronic state is 1-A.
 Alpha  occ. eigenvalues --  -20.61518 -20.61444 -20.59965 -20.59948 -15.86494
 Alpha  occ. eigenvalues --  -15.84999 -11.31670 -11.30092 -11.28235 -11.28184
 Alpha  occ. eigenvalues --  -11.27917 -11.27197 -11.27157 -11.26671 -11.26502
 Alpha  occ. eigenvalues --  -11.26225 -11.25686 -11.25423  -1.60553  -1.59040
 Alpha  occ. eigenvalues --   -1.40107  -1.38601  -1.19826  -1.18205  -1.09260
 Alpha  occ. eigenvalues --   -1.07652  -1.05194  -1.03565  -0.96126  -0.94543
 Alpha  occ. eigenvalues --   -0.86601  -0.84983  -0.82960  -0.81389  -0.78032
 Alpha  occ. eigenvalues --   -0.76479  -0.72736  -0.71865  -0.71228  -0.70926
 Alpha  occ. eigenvalues --   -0.70357  -0.69319  -0.65477  -0.65192  -0.63865
 Alpha  occ. eigenvalues --   -0.63579  -0.62539  -0.60940  -0.55703  -0.54071
 Alpha  occ. eigenvalues --   -0.53544  -0.53279  -0.51934  -0.51672  -0.49507
 Alpha  occ. eigenvalues --   -0.49459  -0.47996  -0.47957  -0.45545  -0.44068
 Alpha  occ. eigenvalues --   -0.37804  -0.36792  -0.36135  -0.35079
 Alpha virt. eigenvalues --    0.04475   0.06028   0.10866   0.12541   0.16021
 Alpha virt. eigenvalues --    0.17616   0.21052   0.22583   0.26976   0.27931
 Alpha virt. eigenvalues --    0.28493   0.29428   0.30636   0.32106   0.32177

 Mulliken charges:
               1
     1  C   -0.173137
     2  C   -0.196424
     3  C   -0.170473
     4  C    0.157318
     5  C   -0.174856
     6  C   -0.220431
     7  H    0.226692
     8  H    0.229953
     9  H    0.273100
    10  H    0.269642
    11  H    0.216858
    12  N    0.487911
    13  O   -0.465575
    14  O   -0.462096
    15  C   -0.170206
    16  C   -0.218788
    17  C   -0.170623
    18  C    0.157340
    19  C   -0.171687
    20  C   -0.218716
    21  H    0.227406
    22  H    0.226296
    23  H    0.278443
    24  H    0.274424
    25  H    0.224330
    26  N    0.487996
    27  O   -0.468088
    28  O   -0.456610
 Sum of Mulliken charges =  -0.00000

 Dipole moment (field-independent basis, Debye):
    X=             -7.3407    Y=             -0.5705    Z=              3.1046  Tot=              7.9906
 Quadrupole moment (field-independent basis, Debye-Ang):
   XX=           -103.9926   YY=           -102.6367   ZZ=           -102.0906
   XY=            -20.6997   XZ=              0.2668   YZ=             -0.4392

 Normal termination of Gaussian 16 at Thu May  6 21:18:03 2021.
