 Gaussian 16, Revision A.03,
 Gaussian 16:  EM64L-G16RevA.03 25-Dec-2016

 -------------
 #p 6-31g* mp2
 -------------

 ------------------------------------------------------
 Input file generated by CHIRIPA (05-May-2021 14:57:23)
 ------------------------------------------------------
 Symbolic Z-matrix:
 Charge =  0 Multiplicity = 1

                         Standard orientation:
 ---------------------------------------------------------------------
 Center     Atomic      Atomic             Coordinates (Angstroms)
 Number     Number       Type             X           Y           Z
 ---------------------------------------------------------------------
      1          6           0       -1.259822    1.115516    0.809182
      2          6           0       -1.627507   -0.076893    1.441234
      3          6           0       -2.827502   -0.714232    1.112056
      4          6           0       -3.639516   -0.128729    0.141948
      5          6           0       -3.300814    1.058437   -0.505515
      6          6           0       -2.096175    1.678383   -0.160466
      7          1           0       -0.325833    1.603861    1.071060
      8          1           0       -0.979951   -0.516308    2.194647
      9          1           0       -3.136533   -1.638115    1.585721
     10          1           0       -3.967054    1.472390   -1.252633
     11          1           0       -1.813182    2.604344   -0.652965
     12          7           0       -4.912355   -0.794245   -0.214939
     13          8           0       -5.610244   -0.258089   -1.072916
     14          8           0       -5.188017   -1.839431    0.370068
     15          6           0        2.030854    2.114700   -0.332211
     16          6           0        1.736050    1.023467   -1.156118
     17          6           0        2.504383   -0.142757   -1.091813
     18          6           0        3.564975   -0.183557   -0.188060
     19          6           0        3.883734    0.886980    0.645988
     20          6           0        3.101867    2.043100    0.564631
     21          1           0        1.428738    3.016726   -0.388787
     22          1           0        0.904887    1.076248   -1.853561
     23          1           0        2.298249   -1.002276   -1.718034
     24          1           0        4.718598    0.804604    1.331287
     25          1           0        3.333131    2.889022    1.205706
     26          7           0        4.385539   -1.412837   -0.110957
     27          8           0        5.314588   -1.423655    0.693648
     28          8           0        4.084112   -2.342251   -0.856589
 ---------------------------------------------------------------------

 SCF Done:  E(RHF) =  -868.335839830     A.U. after   16 cycles
 E2 =    -0.2602307681D+01 EUMP2 =    -0.87093814751084D+03

 The electronic state is 1-A.
 Alpha  occ. eigenvalues --  -20.61484 -20.61474 -20.61133 -20.61122 -15.86538
 Alpha  occ. eigenvalues --  -15.86192 -11.32118 -11.31648 -11.28671 -11.28620
 Alpha  occ. eigenvalues --  -11.28525 -11.28323 -11.28228 -11.27966 -11.27812
 Alpha  occ. eigenvalues --  -11.27730 -11.27381 -11.27194  -1.60553  -1.60206
 Alpha  occ. eigenvalues --   -1.40099  -1.39756  -1.20317  -1.19861  -1.09725
 Alpha  occ. eigenvalues --   -1.09223  -1.05711  -1.05287  -0.96515  -0.96030
 Alpha  occ. eigenvalues --   -0.87120  -0.86679  -0.83298  -0.82875  -0.78278
 Alpha  occ. eigenvalues --   -0.77909  -0.72751  -0.72407  -0.71882  -0.71593
 Alpha  occ. eigenvalues --   -0.71534  -0.70871  -0.65960  -0.65731  -0.65493
 Alpha  occ. eigenvalues --   -0.65288  -0.63023  -0.62627  -0.56367  -0.55893
 Alpha  occ. eigenvalues --   -0.54029  -0.53797  -0.53471  -0.53378  -0.49527
 Alpha  occ. eigenvalues --   -0.49494  -0.49174  -0.49154  -0.45455  -0.45141
 Alpha  occ. eigenvalues --   -0.38580  -0.37855  -0.37025  -0.36911
 Alpha virt. eigenvalues --    0.04156   0.04626   0.10217   0.10755   0.15437
 Alpha virt. eigenvalues --    0.16143   0.19174   0.21835   0.25370   0.26505
 Alpha virt. eigenvalues --    0.27598   0.29222   0.30326   0.30509   0.31775

 Mulliken charges:
               1
     1  C   -0.168869
     2  C   -0.221607
     3  C   -0.169358
     4  C    0.157669
     5  C   -0.169900
     6  C   -0.228095
     7  H    0.229258
     8  H    0.227203
     9  H    0.278304
    10  H    0.276217
    11  H    0.215560
    12  N    0.488079
    13  O   -0.460272
    14  O   -0.458296
    15  C   -0.187455
    16  C   -0.212557
    17  C   -0.171665
    18  C    0.159368
    19  C   -0.171445
    20  C   -0.219624
    21  H    0.222395
    22  H    0.228302
    23  H    0.279999
    24  H    0.278421
    25  H    0.225955
    26  N    0.487626
    27  O   -0.458285
    28  O   -0.456929
 Sum of Mulliken charges =  -0.00000

 Dipole moment (field-independent basis, Debye):
    X=              1.7554    Y=              6.4060    Z=              0.9988  Tot=              6.7169
 Quadrupole moment (field-independent basis, Debye-Ang):
   XX=           -156.6013   YY=           -104.6872   ZZ=           -100.3091
   XY=              7.5083   XZ=             -1.5290   YZ=             -1.6273

 Normal termination of Gaussian 16 at Thu May  6 14:38:19 2021.
