 Gaussian 16, Revision A.03,
 Gaussian 16:  EM64L-G16RevA.03 25-Dec-2016

 -------------
 #p 6-31g* mp2
 -------------

 ------------------------------------------------------
 Input file generated by CHIRIPA (05-May-2021 14:53:12)
 ------------------------------------------------------
 Symbolic Z-matrix:
 Charge =  0 Multiplicity = 1

                         Standard orientation:
 ---------------------------------------------------------------------
 Center     Atomic      Atomic             Coordinates (Angstroms)
 Number     Number       Type             X           Y           Z
 ---------------------------------------------------------------------
      1          6           0        3.527369   -0.681969    0.540320
      2          6           0        2.173277   -1.100517   -0.033471
      3          6           0        1.263090   -1.747365    1.011011
      4          1           0        4.025510   -1.562997    0.967626
      5          1           0        3.364987    0.018831    1.370926
      6          1           0        2.338214   -1.799248   -0.863644
      7          1           0        1.678385   -0.218426   -0.459631
      8          1           0        1.069181   -1.053718    1.835544
      9          1           0        1.732759   -2.643523    1.429236
     10          1           0        0.300494   -2.038833    0.579368
     11          6           0        4.448431   -0.033752   -0.491759
     12          6           0        5.802524    0.384796    0.082032
     13          6           0        6.712710    1.031643   -0.962450
     14          1           0        4.610813   -0.734552   -1.322365
     15          1           0        3.950291    0.847276   -0.919064
     16          1           0        6.297415   -0.497296    0.508193
     17          1           0        5.637587    1.083527    0.912205
     18          1           0        6.243041    1.927802   -1.380675
     19          1           0        6.906619    0.337997   -1.786983
     20          1           0        7.675306    1.323111   -0.530807
     21          6           0       -2.445961    2.651457    0.521188
     22          6           0       -3.550905    2.405911   -0.300594
     23          6           0       -3.931021    1.095775   -0.606545
     24          6           0       -3.180280    0.050274   -0.071189
     25          6           0       -2.074455    0.262591    0.750614
     26          6           0       -1.712555    1.580901    1.043248
     27          1           0       -2.157753    3.672376    0.753687
     28          1           0       -4.122331    3.235364   -0.707440
     29          1           0       -4.782071    0.877156   -1.240058
     30          1           0       -1.524351   -0.584833    1.141352
     31          1           0       -0.853984    1.768606    1.681737
     32          7           0       -3.573050   -1.341034   -0.388038
     33          8           0       -2.895164   -2.244745    0.096129
     34          8           0       -4.551350   -1.501487   -1.114551
 ---------------------------------------------------------------------

 SCF Done:  E(RHF) =  -669.535720713     A.U. after   15 cycles
 E2 =    -0.2091726408D+01 EUMP2 =    -0.67162744712146D+03

 The electronic state is 1-A.
 Alpha  occ. eigenvalues --  -20.60811 -20.60806 -15.85850 -11.31162 -11.27752
 Alpha  occ. eigenvalues --  -11.27675 -11.27496 -11.26760 -11.26745 -11.21842
 Alpha  occ. eigenvalues --  -11.21816 -11.21654 -11.21585 -11.21340 -11.21259
 Alpha  occ. eigenvalues --   -1.59876  -1.39432  -1.19345  -1.08753  -1.08673
 Alpha  occ. eigenvalues --   -1.04744  -1.03769  -0.96233  -0.95588  -0.87253
 Alpha  occ. eigenvalues --   -0.86141  -0.82424  -0.79833  -0.78480  -0.77474
 Alpha  occ. eigenvalues --   -0.72071  -0.71192  -0.70467  -0.65318  -0.64999
 Alpha  occ. eigenvalues --   -0.64762  -0.62167  -0.61142  -0.59551  -0.57816
 Alpha  occ. eigenvalues --   -0.55565  -0.55224  -0.53114  -0.53056  -0.52700
 Alpha  occ. eigenvalues --   -0.52547  -0.50172  -0.48829  -0.48824  -0.48133
 Alpha  occ. eigenvalues --   -0.46869  -0.46020  -0.45954  -0.44847  -0.43997
 Alpha  occ. eigenvalues --   -0.37335  -0.36338
 Alpha virt. eigenvalues --    0.05024   0.11279   0.16507   0.20460   0.22783
 Alpha virt. eigenvalues --    0.23958   0.26105   0.26773   0.27230   0.27861
 Alpha virt. eigenvalues --    0.29358   0.29909   0.31434   0.31685   0.32000

 Mulliken charges:
               1
     1  C   -0.297955
     2  C   -0.300066
     3  C   -0.488785
     4  H    0.151710
     5  H    0.145525
     6  H    0.157074
     7  H    0.149351
     8  H    0.143227
     9  H    0.161296
    10  H    0.177534
    11  C   -0.298268
    12  C   -0.299624
    13  C   -0.475745
    14  H    0.151531
    15  H    0.148237
    16  H    0.153019
    17  H    0.150491
    18  H    0.154472
    19  H    0.156279
    20  H    0.160635
    21  C   -0.170488
    22  C   -0.218973
    23  C   -0.170317
    24  C    0.156852
    25  C   -0.174330
    26  C   -0.222071
    27  H    0.225409
    28  H    0.223334
    29  H    0.275446
    30  H    0.285539
    31  H    0.223343
    32  N    0.488668
    33  O   -0.462614
    34  O   -0.459735
 Sum of Mulliken charges =  -0.00000

 Dipole moment (field-independent basis, Debye):
    X=              1.4243    Y=              4.7938    Z=              1.0465  Tot=              5.1093
 Quadrupole moment (field-independent basis, Debye-Ang):
   XX=           -101.2981   YY=            -93.3172   ZZ=            -94.4734
   XY=            -18.1008   XZ=             -0.9329   YZ=             -0.8218

 Normal termination of Gaussian 16 at Thu May  6 15:18:36 2021.
