 Gaussian 16, Revision A.03,
 Gaussian 16:  EM64L-G16RevA.03 25-Dec-2016

 -------------
 #p 6-31g* mp2
 -------------

 ------------------------------------------------------
 Input file generated by CHIRIPA (05-May-2021 14:55:18)
 ------------------------------------------------------
 Symbolic Z-matrix:
 Charge =  0 Multiplicity = 1

                         Standard orientation:
 ---------------------------------------------------------------------
 Center     Atomic      Atomic             Coordinates (Angstroms)
 Number     Number       Type             X           Y           Z
 ---------------------------------------------------------------------
      1          6           0        0.227109   -1.431829    0.685509
      2          6           0        0.372051   -0.848460   -0.577500
      3          6           0        1.605620   -0.330308   -0.982931
      4          6           0        2.677976   -0.412659   -0.096048
      5          6           0        2.565200   -0.987836    1.168762
      6          6           0        1.322215   -1.499536    1.553080
      7          1           0       -0.734815   -1.831836    0.992257
      8          1           0       -0.476691   -0.794501   -1.253348
      9          1           0        1.745741    0.126654   -1.955026
     10          1           0        3.429518   -1.027111    1.820552
     11          1           0        1.212577   -1.952029    2.534545
     12          7           0        3.988884    0.132470   -0.514083
     13          8           0        4.918224    0.047665    0.285775
     14          8           0        4.062213    0.634225   -1.633682
     15          6           0       -2.736325    1.250723   -0.170624
     16          6           0       -1.887545    1.818171    0.967603
     17          6           0       -1.063106    3.033195    0.541212
     18          1           0       -2.079491    0.974765   -1.006903
     19          1           0       -3.406610    2.036468   -0.545750
     20          1           0       -1.220035    1.031196    1.341390
     21          1           0       -2.546457    2.092633    1.801343
     22          1           0       -1.716566    3.837278    0.187598
     23          1           0       -0.382608    2.769810   -0.274969
     24          1           0       -0.463943    3.422741    1.370138
     25          6           0       -3.566196    0.035684    0.240130
     26          6           0       -4.414976   -0.531763   -0.898097
     27          6           0       -5.239415   -1.746788   -0.471707
     28          1           0       -2.895912   -0.750060    0.615254
     29          1           0       -4.223030    0.311643    1.076408
     30          1           0       -3.756064   -0.806225   -1.731838
     31          1           0       -5.082487    0.255212   -1.271885
     32          1           0       -5.919913   -1.483401    0.344474
     33          1           0       -4.585955   -2.550870   -0.118092
     34          1           0       -5.838578   -2.136332   -1.300632
 ---------------------------------------------------------------------

 SCF Done:  E(RHF) =  -669.534004119     A.U. after   15 cycles
 E2 =    -0.2094994131D+01 EUMP2 =    -0.67162899824942D+03

 The electronic state is 1-A.
 Alpha  occ. eigenvalues --  -20.60814 -20.60809 -15.85869 -11.31269 -11.27842
 Alpha  occ. eigenvalues --  -11.27836 -11.27567 -11.26862 -11.26842 -11.22559
 Alpha  occ. eigenvalues --  -11.22435 -11.22201 -11.22054 -11.21926 -11.21404
 Alpha  occ. eigenvalues --   -1.59889  -1.39442  -1.19453  -1.09311  -1.08824
 Alpha  occ. eigenvalues --   -1.04860  -1.04229  -0.96703  -0.95671  -0.87708
 Alpha  occ. eigenvalues --   -0.86255  -0.82508  -0.80326  -0.79104  -0.77539
 Alpha  occ. eigenvalues --   -0.72088  -0.71212  -0.70594  -0.66142  -0.65093
 Alpha  occ. eigenvalues --   -0.64707  -0.62200  -0.61645  -0.60071  -0.58311
 Alpha  occ. eigenvalues --   -0.56017  -0.55379  -0.53351  -0.53197  -0.53108
 Alpha  occ. eigenvalues --   -0.52912  -0.50637  -0.48852  -0.48840  -0.48622
 Alpha  occ. eigenvalues --   -0.47392  -0.46600  -0.46535  -0.44840  -0.44533
 Alpha  occ. eigenvalues --   -0.37351  -0.36438
 Alpha virt. eigenvalues --    0.04952   0.11110   0.16307   0.18658   0.23269
 Alpha virt. eigenvalues --    0.23500   0.24456   0.25391   0.26958   0.28588
 Alpha virt. eigenvalues --    0.30192   0.30666   0.31020   0.31400   0.31607

 Mulliken charges:
               1
     1  C   -0.175473
     2  C   -0.217537
     3  C   -0.172513
     4  C    0.158981
     5  C   -0.170355
     6  C   -0.219088
     7  H    0.230638
     8  H    0.227203
     9  H    0.276014
    10  H    0.276034
    11  H    0.224348
    12  N    0.488084
    13  O   -0.460142
    14  O   -0.460134
    15  C   -0.299778
    16  C   -0.304436
    17  C   -0.475614
    18  H    0.142545
    19  H    0.154449
    20  H    0.156299
    21  H    0.151898
    22  H    0.155645
    23  H    0.155739
    24  H    0.163114
    25  C   -0.301861
    26  C   -0.299843
    27  C   -0.475387
    28  H    0.138456
    29  H    0.155195
    30  H    0.147300
    31  H    0.157092
    32  H    0.157977
    33  H    0.151306
    34  H    0.163846
 Sum of Mulliken charges =  -0.00000

 Dipole moment (field-independent basis, Debye):
    X=             -4.6640    Y=             -1.8624    Z=              1.5034  Tot=              5.2423
 Quadrupole moment (field-independent basis, Debye-Ang):
   XX=           -118.4638   YY=            -93.8078   ZZ=            -91.2854
   XY=             -5.0395   XZ=              6.3703   YZ=             -1.5023

 Normal termination of Gaussian 16 at Wed May  5 23:42:31 2021.
