 Gaussian 16, Revision A.03,
 Gaussian 16:  EM64L-G16RevA.03 25-Dec-2016

 -------------
 #p 6-31g* mp2
 -------------

 ------------------------------------------------------
 Input file generated by CHIRIPA (05-May-2021 14:55:22)
 ------------------------------------------------------
 Symbolic Z-matrix:
 Charge =  0 Multiplicity = 1

                         Standard orientation:
 ---------------------------------------------------------------------
 Center     Atomic      Atomic             Coordinates (Angstroms)
 Number     Number       Type             X           Y           Z
 ---------------------------------------------------------------------
      1          6           0        4.865933    1.005235    0.253380
      2          6           0        3.656124    1.631774    0.570132
      3          6           0        2.444263    0.949759    0.425924
      4          6           0        2.479235   -0.363729   -0.039712
      5          6           0        3.668310   -1.015246   -0.363621
      6          6           0        4.868160   -0.313950   -0.211666
      7          1           0        5.802670    1.542529    0.368414
      8          1           0        3.651365    2.656192    0.931506
      9          1           0        1.493298    1.410734    0.663800
     10          1           0        3.641134   -2.037263   -0.721615
     11          1           0        5.806207   -0.803052   -0.458429
     12          7           0        1.202649   -1.095953   -0.196480
     13          8           0        1.260409   -2.252440   -0.608597
     14          8           0        0.168475   -0.499520    0.095731
     15          6           0       -3.638147   -0.374146   -0.257336
     16          6           0       -3.558184   -1.490905    0.784028
     17          6           0       -3.952103   -2.855782    0.218576
     18          1           0       -4.660601   -0.326089   -0.656364
     19          1           0       -2.983682   -0.624121   -1.103848
     20          1           0       -4.211545   -1.238238    1.628951
     21          1           0       -2.535850   -1.536183    1.180762
     22          1           0       -3.293851   -3.133661   -0.610935
     23          1           0       -4.979067   -2.834021   -0.160200
     24          1           0       -3.887826   -3.639465    0.979872
     25          6           0       -3.247310    0.996352    0.292855
     26          6           0       -3.327273    2.113112   -0.748508
     27          6           0       -2.933354    3.477987   -0.183057
     28          1           0       -3.901776    1.246326    1.139367
     29          1           0       -2.224856    0.948295    0.691884
     30          1           0       -4.349607    2.158390   -1.145243
     31          1           0       -2.673912    1.860444   -1.593432
     32          1           0       -1.906390    3.456227    0.195720
     33          1           0       -3.591607    3.755866    0.646454
     34          1           0       -2.997632    4.261670   -0.944352
 ---------------------------------------------------------------------

 SCF Done:  E(RHF) =  -669.536538274     A.U. after   15 cycles
 E2 =    -0.2091825220D+01 EUMP2 =    -0.67162836349392D+03

 The electronic state is 1-A.
 Alpha  occ. eigenvalues --  -20.61109 -20.61103 -15.86132 -11.31391 -11.27949
 Alpha  occ. eigenvalues --  -11.27942 -11.27671 -11.26939 -11.26929 -11.20685
 Alpha  occ. eigenvalues --  -11.20512 -11.20052 -11.20011 -11.19885 -11.19687
 Alpha  occ. eigenvalues --   -1.60161  -1.39720  -1.19553  -1.08968  -1.07122
 Alpha  occ. eigenvalues --   -1.04940  -1.02352  -0.95822  -0.94827  -0.86343
 Alpha  occ. eigenvalues --   -0.85860  -0.82661  -0.78440  -0.77724  -0.76894
 Alpha  occ. eigenvalues --   -0.72369  -0.71467  -0.70662  -0.65219  -0.64943
 Alpha  occ. eigenvalues --   -0.63688  -0.62289  -0.59734  -0.58247  -0.56437
 Alpha  occ. eigenvalues --   -0.55445  -0.54100  -0.53274  -0.53030  -0.51594
 Alpha  occ. eigenvalues --   -0.51275  -0.49177  -0.49102  -0.48716  -0.46767
 Alpha  occ. eigenvalues --   -0.45448  -0.45141  -0.44461  -0.44246  -0.42563
 Alpha  occ. eigenvalues --   -0.37527  -0.36538
 Alpha virt. eigenvalues --    0.04799   0.11118   0.16305   0.20986   0.23765
 Alpha virt. eigenvalues --    0.25284   0.26760   0.27448   0.28351   0.28937
 Alpha virt. eigenvalues --    0.29252   0.30994   0.31847   0.32574   0.33109

 Mulliken charges:
               1
     1  C   -0.170383
     2  C   -0.218528
     3  C   -0.170315
     4  C    0.157256
     5  C   -0.170532
     6  C   -0.218572
     7  H    0.226429
     8  H    0.224407
     9  H    0.275326
    10  H    0.276052
    11  H    0.224177
    12  N    0.495991
    13  O   -0.458019
    14  O   -0.468331
    15  C   -0.294478
    16  C   -0.303191
    17  C   -0.475748
    18  H    0.140937
    19  H    0.158140
    20  H    0.142570
    21  H    0.169515
    22  H    0.161016
    23  H    0.148340
    24  H    0.155620
    25  C   -0.303219
    26  C   -0.298831
    27  C   -0.473423
    28  H    0.141872
    29  H    0.165725
    30  H    0.148677
    31  H    0.152945
    32  H    0.148572
    33  H    0.153608
    34  H    0.156392
 Sum of Mulliken charges =  -0.00000

 Dipole moment (field-independent basis, Debye):
    X=              4.9385    Y=              2.4365    Z=              0.5207  Tot=              5.5314
 Quadrupole moment (field-independent basis, Debye-Ang):
   XX=            -72.2237   YY=            -95.4238   ZZ=            -95.2209
   XY=              2.2849   XZ=              0.1277   YZ=              1.1615

 Normal termination of Gaussian 16 at Thu May  6 17:32:31 2021.
