 Gaussian 16, Revision A.03,
 Gaussian 16:  EM64L-G16RevA.03 25-Dec-2016

 -------------
 #p 6-31g* mp2
 -------------

 ------------------------------------------------------
 Input file generated by CHIRIPA (05-May-2021 14:53:13)
 ------------------------------------------------------
 Symbolic Z-matrix:
 Charge =  0 Multiplicity = 1

                         Standard orientation:
 ---------------------------------------------------------------------
 Center     Atomic      Atomic             Coordinates (Angstroms)
 Number     Number       Type             X           Y           Z
 ---------------------------------------------------------------------
      1          6           0        2.904491    0.020278    0.181020
      2          6           0        4.331820   -0.507584    0.032433
      3          6           0        4.608010   -1.722589    0.918591
      4          1           0        2.725188    0.283218    1.232522
      5          1           0        2.196402   -0.783008   -0.065426
      6          1           0        5.037016    0.296863    0.277747
      7          1           0        4.507809   -0.769118   -1.018873
      8          1           0        3.927631   -2.543452    0.669857
      9          1           0        4.459845   -1.471414    1.973844
     10          1           0        5.634013   -2.083553    0.796591
     11          6           0        2.613113    1.234835   -0.698571
     12          6           0        1.185784    1.762698   -0.549984
     13          6           0        0.909594    2.977703   -1.436142
     14          1           0        3.321203    2.038121   -0.452126
     15          1           0        2.792416    0.971895   -1.750074
     16          1           0        1.009796    2.024232    0.501322
     17          1           0        0.480589    0.958250   -0.795299
     18          1           0        1.057760    2.726528   -2.491395
     19          1           0        1.589974    3.798565   -1.187408
     20          1           0       -0.116408    3.338667   -1.314143
     21          6           0       -2.667164    1.707869    1.330034
     22          6           0       -1.582492    0.936384    1.759937
     23          6           0       -1.289543   -0.283178    1.142365
     24          6           0       -2.105830   -0.702787    0.093131
     25          6           0       -3.193555    0.043291   -0.357991
     26          6           0       -3.467823    1.259650    0.274302
     27          1           0       -2.887479    2.654009    1.815497
     28          1           0       -0.958973    1.281983    2.579590
     29          1           0       -0.456036   -0.900352    1.455065
     30          1           0       -3.797009   -0.327494   -1.177612
     31          1           0       -4.310844    1.856709   -0.061675
     32          7           0       -1.805587   -1.992188   -0.568458
     33          8           0       -2.540019   -2.339680   -1.490682
     34          8           0       -0.841509   -2.630914   -0.152261
 ---------------------------------------------------------------------

 SCF Done:  E(RHF) =  -669.534562853     A.U. after   15 cycles
 E2 =    -0.2094249260D+01 EUMP2 =    -0.67162881211316D+03

 The electronic state is 1-A.
 Alpha  occ. eigenvalues --  -20.60851 -20.60845 -15.85894 -11.31201 -11.27788
 Alpha  occ. eigenvalues --  -11.27745 -11.27530 -11.26792 -11.26753 -11.21649
 Alpha  occ. eigenvalues --  -11.21501 -11.21402 -11.21341 -11.21219 -11.20882
 Alpha  occ. eigenvalues --   -1.59921  -1.39475  -1.19395  -1.08796  -1.08434
 Alpha  occ. eigenvalues --   -1.04791  -1.03514  -0.95970  -0.95636  -0.86989
 Alpha  occ. eigenvalues --   -0.86190  -0.82469  -0.79605  -0.78287  -0.77499
 Alpha  occ. eigenvalues --   -0.72112  -0.71245  -0.70499  -0.65102  -0.65021
 Alpha  occ. eigenvalues --   -0.64770  -0.62135  -0.60914  -0.59379  -0.57603
 Alpha  occ. eigenvalues --   -0.55295  -0.55248  -0.53212  -0.52884  -0.52619
 Alpha  occ. eigenvalues --   -0.52380  -0.49907  -0.48870  -0.48867  -0.47888
 Alpha  occ. eigenvalues --   -0.46632  -0.45816  -0.45711  -0.44853  -0.43780
 Alpha  occ. eigenvalues --   -0.37356  -0.36255
 Alpha virt. eigenvalues --    0.04997   0.11153   0.16433   0.20808   0.22980
 Alpha virt. eigenvalues --    0.24233   0.25745   0.26254   0.27794   0.28086
 Alpha virt. eigenvalues --    0.29359   0.30520   0.31535   0.31664   0.31954

 Mulliken charges:
               1
     1  C   -0.304370
     2  C   -0.298954
     3  C   -0.477259
     4  H    0.140771
     5  H    0.160701
     6  H    0.150120
     7  H    0.154564
     8  H    0.162004
     9  H    0.151780
    10  H    0.160240
    11  C   -0.297752
    12  C   -0.299225
    13  C   -0.475797
    14  H    0.147695
    15  H    0.152430
    16  H    0.143052
    17  H    0.157173
    18  H    0.157465
    19  H    0.153624
    20  H    0.157074
    21  C   -0.171877
    22  C   -0.213153
    23  C   -0.170691
    24  C    0.158270
    25  C   -0.171646
    26  C   -0.218674
    27  H    0.225754
    28  H    0.223143
    29  H    0.277977
    30  H    0.275592
    31  H    0.223521
    32  N    0.487977
    33  O   -0.459954
    34  O   -0.461579
 Sum of Mulliken charges =  -0.00000

 Dipole moment (field-independent basis, Debye):
    X=             -1.0991    Y=              4.4339    Z=              2.2769  Tot=              5.1041
 Quadrupole moment (field-independent basis, Debye-Ang):
   XX=            -87.6816   YY=           -102.3368   ZZ=            -92.6965
   XY=             -9.4033   XZ=             -2.5478   YZ=             -0.6095

 Normal termination of Gaussian 16 at Thu May  6 01:01:19 2021.
