 Gaussian 16, Revision A.03,
 Gaussian 16:  EM64L-G16RevA.03 25-Dec-2016

 -------------
 #p 6-31g* mp2
 -------------

 ------------------------------------------------------
 Input file generated by CHIRIPA (05-May-2021 14:55:20)
 ------------------------------------------------------
 Symbolic Z-matrix:
 Charge =  0 Multiplicity = 1

                         Standard orientation:
 ---------------------------------------------------------------------
 Center     Atomic      Atomic             Coordinates (Angstroms)
 Number     Number       Type             X           Y           Z
 ---------------------------------------------------------------------
      1          6           0        2.883935   -2.421480    0.214668
      2          6           0        2.566477   -1.762589   -0.977642
      3          6           0        2.707608   -0.375575   -1.081679
      4          6           0        3.170919    0.324477    0.031228
      5          6           0        3.495457   -0.303296    1.232838
      6          6           0        3.346596   -1.691018    1.314165
      7          1           0        2.771298   -3.499221    0.286666
      8          1           0        2.206951   -2.327310   -1.833139
      9          1           0        2.469120    0.159838   -1.992653
     10          1           0        3.851560    0.286667    2.068633
     11          1           0        3.593900   -2.200068    2.241394
     12          7           0        3.324420    1.793221   -0.066890
     13          8           0        3.734532    2.387156    0.927940
     14          8           0        3.031716    2.322678   -1.136768
     15          6           0       -3.489699   -0.639720   -0.160589
     16          6           0       -2.098318   -0.060599   -0.418773
     17          6           0       -1.035407   -1.141735   -0.616668
     18          1           0       -3.452046   -1.285770    0.727188
     19          1           0       -3.773379   -1.284051   -1.004246
     20          1           0       -1.817924    0.583547    0.424478
     21          1           0       -2.139331    0.584299   -1.305926
     22          1           0       -1.288452   -1.779116   -1.470082
     23          1           0       -0.965219   -1.779873    0.270154
     24          1           0       -0.048422   -0.705634   -0.799802
     25          6           0       -4.563088    0.428751    0.039248
     26          6           0       -5.954471   -0.150370    0.297433
     27          6           0       -7.017381    0.930765    0.495328
     28          1           0       -4.279410    1.073082    0.882906
     29          1           0       -4.600742    1.074800   -0.848529
     30          1           0       -5.913458   -0.795269    1.184585
     31          1           0       -6.234864   -0.794517   -0.545819
     32          1           0       -7.087570    1.568904   -0.391494
     33          1           0       -6.764337    1.568147    1.348741
     34          1           0       -8.004365    0.494665    0.678462
 ---------------------------------------------------------------------

 SCF Done:  E(RHF) =  -669.534159677     A.U. after   15 cycles
 E2 =    -0.2092739343D+01 EUMP2 =    -0.67162689901927D+03

 The electronic state is 1-A.
 Alpha  occ. eigenvalues --  -20.60802 -20.60796 -15.85855 -11.31242 -11.27781
 Alpha  occ. eigenvalues --  -11.27765 -11.27511 -11.26818 -11.26788 -11.21640
 Alpha  occ. eigenvalues --  -11.21631 -11.21457 -11.21374 -11.21164 -11.21071
 Alpha  occ. eigenvalues --   -1.59877  -1.39430  -1.19411  -1.08792  -1.08475
 Alpha  occ. eigenvalues --   -1.04826  -1.03583  -0.96051  -0.95627  -0.87078
 Alpha  occ. eigenvalues --   -0.86201  -0.82462  -0.79655  -0.78285  -0.77507
 Alpha  occ. eigenvalues --   -0.72072  -0.71202  -0.70501  -0.65108  -0.65056
 Alpha  occ. eigenvalues --   -0.64804  -0.62160  -0.60986  -0.59475  -0.57685
 Alpha  occ. eigenvalues --   -0.55349  -0.55291  -0.53599  -0.52898  -0.52514
 Alpha  occ. eigenvalues --   -0.52226  -0.49994  -0.48833  -0.48827  -0.47967
 Alpha  occ. eigenvalues --   -0.46682  -0.45829  -0.45753  -0.44832  -0.43858
 Alpha  occ. eigenvalues --   -0.37376  -0.36277
 Alpha virt. eigenvalues --    0.05006   0.11155   0.16485   0.21275   0.22835
 Alpha virt. eigenvalues --    0.24285   0.26564   0.26948   0.27453   0.28199
 Alpha virt. eigenvalues --    0.28423   0.30622   0.31426   0.31812   0.32140

 Mulliken charges:
               1
     1  C   -0.170556
     2  C   -0.212160
     3  C   -0.178688
     4  C    0.161744
     5  C   -0.171676
     6  C   -0.217911
     7  H    0.225951
     8  H    0.225243
     9  H    0.276263
    10  H    0.275651
    11  H    0.223627
    12  N    0.488103
    13  O   -0.460201
    14  O   -0.460392
    15  C   -0.298363
    16  C   -0.299130
    17  C   -0.481843
    18  H    0.148205
    19  H    0.148039
    20  H    0.154424
    21  H    0.153418
    22  H    0.148670
    23  H    0.152283
    24  H    0.167710
    25  C   -0.298489
    26  C   -0.299556
    27  C   -0.475764
    28  H    0.150750
    29  H    0.150675
    30  H    0.151216
    31  H    0.151255
    32  H    0.155744
    33  H    0.155807
    34  H    0.159952
 Sum of Mulliken charges =  -0.00000

 Dipole moment (field-independent basis, Debye):
    X=             -0.4597    Y=             -5.1570    Z=              0.3659  Tot=              5.1903
 Quadrupole moment (field-independent basis, Debye-Ang):
   XX=            -99.2165   YY=            -99.2295   ZZ=            -89.3467
   XY=            -16.4159   XZ=              3.1543   YZ=             -0.0456

 Normal termination of Gaussian 16 at Thu May  6 10:51:41 2021.
