 Gaussian 16, Revision A.03,
 Gaussian 16:  EM64L-G16RevA.03 25-Dec-2016

 -------------
 #p 6-31g* mp2
 -------------

 ------------------------------------------------------
 Input file generated by CHIRIPA (05-May-2021 14:57:26)
 ------------------------------------------------------
 Symbolic Z-matrix:
 Charge =  0 Multiplicity = 1

                         Standard orientation:
 ---------------------------------------------------------------------
 Center     Atomic      Atomic             Coordinates (Angstroms)
 Number     Number       Type             X           Y           Z
 ---------------------------------------------------------------------
      1          6           0        3.760509   -2.154897    0.328404
      2          6           0        3.113475   -1.463540    1.357916
      3          6           0        2.737249   -0.127693    1.189053
      4          6           0        3.024900    0.488643   -0.027777
      5          6           0        3.668260   -0.173321   -1.072374
      6          6           0        4.035352   -1.508720   -0.881322
      7          1           0        4.049223   -3.192441    0.468199
      8          1           0        2.898751   -1.962830    2.298473
      9          1           0        2.235193    0.431225    1.969417
     10          1           0        3.868840    0.351163   -1.998712
     11          1           0        4.537727   -2.043153   -1.682600
     12          7           0        2.631441    1.902607   -0.218290
     13          8           0        2.896233    2.423002   -1.299822
     14          8           0        2.065707    2.463704    0.717526
     15          6           0       -5.471743    0.569535   -0.109257
     16          6           0       -5.146715   -0.696401   -0.607538
     17          6           0       -3.830214   -1.163874   -0.554235
     18          6           0       -2.859464   -0.335376    0.006591
     19          6           0       -3.151899    0.930698    0.511398
     20          6           0       -4.475056    1.377619    0.447639
     21          1           0       -6.497018    0.924697   -0.154726
     22          1           0       -5.918696   -1.326133   -1.040583
     23          1           0       -3.550881   -2.139692   -0.932614
     24          1           0       -2.360640    1.535656    0.937255
     25          1           0       -4.724573    2.361205    0.835384
     26          7           0       -1.462220   -0.819391    0.068555
     27          8           0       -0.625317   -0.070242    0.567561
     28          8           0       -1.230421   -1.938744   -0.383057
 ---------------------------------------------------------------------

 SCF Done:  E(RHF) =  -868.338970031     A.U. after   16 cycles
 E2 =    -0.2599775433D+01 EUMP2 =    -0.87093874546445D+03

 The electronic state is 1-A.
 Alpha  occ. eigenvalues --  -20.60874 -20.60866 -20.59576 -20.59548 -15.85911
 Alpha  occ. eigenvalues --  -15.84608 -11.31125 -11.29686 -11.27716 -11.27628
 Alpha  occ. eigenvalues --  -11.27423 -11.26699 -11.26639 -11.26379 -11.26259
 Alpha  occ. eigenvalues --  -11.26109 -11.25352 -11.25250  -1.59944  -1.58630
 Alpha  occ. eigenvalues --   -1.39500  -1.38195  -1.19293  -1.17887  -1.08722
 Alpha  occ. eigenvalues --   -1.07355  -1.04670  -1.03289  -0.95579  -0.94233
 Alpha  occ. eigenvalues --   -0.86077  -0.84720  -0.82411  -0.81098  -0.77467
 Alpha  occ. eigenvalues --   -0.76148  -0.72160  -0.71259  -0.70865  -0.70402
 Alpha  occ. eigenvalues --   -0.69901  -0.69087  -0.64949  -0.64675  -0.63591
 Alpha  occ. eigenvalues --   -0.63358  -0.62010  -0.60676  -0.55193  -0.53883
 Alpha  occ. eigenvalues --   -0.53015  -0.52760  -0.51616  -0.51438  -0.48891
 Alpha  occ. eigenvalues --   -0.48846  -0.47612  -0.47589  -0.44946  -0.43662
 Alpha  occ. eigenvalues --   -0.37278  -0.36267  -0.35856  -0.34804
 Alpha virt. eigenvalues --    0.05036   0.06428   0.11387   0.12830   0.16554
 Alpha virt. eigenvalues --    0.17931   0.21540   0.22688   0.27469   0.28396
 Alpha virt. eigenvalues --    0.28601   0.29575   0.31099   0.32141   0.32722

 Mulliken charges:
               1
     1  C   -0.167747
     2  C   -0.216987
     3  C   -0.146339
     4  C    0.160348
     5  C   -0.171182
     6  C   -0.218899
     7  H    0.220545
     8  H    0.218644
     9  H    0.273552
    10  H    0.270169
    11  H    0.217428
    12  N    0.489645
    13  O   -0.467869
    14  O   -0.463023
    15  C   -0.170343
    16  C   -0.218887
    17  C   -0.171023
    18  C    0.156943
    19  C   -0.170915
    20  C   -0.218892
    21  H    0.225737
    22  H    0.222780
    23  H    0.274017
    24  H    0.282071
    25  H    0.225368
    26  N    0.489877
    27  O   -0.462414
    28  O   -0.462604
 Sum of Mulliken charges =  -0.00000

 Dipole moment (field-independent basis, Debye):
    X=             -3.8536    Y=             -3.2371    Z=              0.6035  Tot=              5.0689
 Quadrupole moment (field-independent basis, Debye-Ang):
   XX=            -69.5138   YY=           -108.4907   ZZ=           -100.6425
   XY=            -16.8524   XZ=              1.5970   YZ=              2.9390

 Normal termination of Gaussian 16 at Thu May  6 05:10:53 2021.
