 Gaussian 16, Revision A.03,
 Gaussian 16:  EM64L-G16RevA.03 25-Dec-2016

 -------------
 #p 6-31g* mp2
 -------------

 ------------------------------------------------------
 Input file generated by CHIRIPA (05-May-2021 14:57:21)
 ------------------------------------------------------
 Symbolic Z-matrix:
 Charge =  0 Multiplicity = 1

                         Standard orientation:
 ---------------------------------------------------------------------
 Center     Atomic      Atomic             Coordinates (Angstroms)
 Number     Number       Type             X           Y           Z
 ---------------------------------------------------------------------
      1          6           0        3.273124    2.363237    0.011132
      2          6           0        4.464089    2.061929   -0.657702
      3          6           0        4.954404    0.752863   -0.679759
      4          6           0        4.224948   -0.234720   -0.019560
      5          6           0        3.035231    0.033954    0.655480
      6          6           0        2.563747    1.350074    0.664436
      7          1           0        2.899550    3.382890    0.023177
      8          1           0        5.017098    2.846743   -1.165926
      9          1           0        5.873648    0.491784   -1.189901
     10          1           0        2.506073   -0.769687    1.153045
     11          1           0        1.638539    1.581158    1.184662
     12          7           0        4.734054   -1.624303   -0.035976
     13          8           0        4.072737   -2.476383    0.553309
     14          8           0        5.784770   -1.835067   -0.637816
     15          6           0       -1.853813    0.683611    0.838409
     16          6           0       -2.853614    0.341120    1.754715
     17          6           0       -4.124552   -0.036031    1.310843
     18          6           0       -4.362161   -0.059837   -0.062570
     19          6           0       -3.386844    0.275855   -1.000310
     20          6           0       -2.123144    0.649944   -0.533760
     21          1           0       -0.869331    0.975402    1.192028
     22          1           0       -2.647291    0.366365    2.820942
     23          1           0       -4.916925   -0.306065    1.998334
     24          1           0       -3.622467    0.241201   -2.057050
     25          1           0       -1.348610    0.915416   -1.247670
     26          7           0       -5.703814   -0.457491   -0.544483
     27          8           0       -5.887863   -0.470453   -1.759635
     28          8           0       -6.545950   -0.748677    0.302073
 ---------------------------------------------------------------------

 SCF Done:  E(RHF) =  -868.336500691     A.U. after   16 cycles
 E2 =    -0.2599595030D+01 EUMP2 =    -0.87093609572099D+03

 The electronic state is 1-A.
 Alpha  occ. eigenvalues --  -20.61383 -20.61375 -20.61065 -20.61060 -15.86445
 Alpha  occ. eigenvalues --  -15.86122 -11.31967 -11.31606 -11.28634 -11.28536
 Alpha  occ. eigenvalues --  -11.28369 -11.28170 -11.28167 -11.28083 -11.27757
 Alpha  occ. eigenvalues --  -11.27552 -11.27268 -11.27259  -1.60455  -1.60137
 Alpha  occ. eigenvalues --   -1.40004  -1.39687  -1.20177  -1.19797  -1.09540
 Alpha  occ. eigenvalues --   -1.09200  -1.05620  -1.05208  -0.96340  -0.96013
 Alpha  occ. eigenvalues --   -0.87010  -0.86615  -0.83187  -0.82829  -0.78204
 Alpha  occ. eigenvalues --   -0.77830  -0.72658  -0.72340  -0.71782  -0.71460
 Alpha  occ. eigenvalues --   -0.71272  -0.71006  -0.65833  -0.65663  -0.65460
 Alpha  occ. eigenvalues --   -0.65213  -0.62972  -0.62543  -0.56133  -0.55810
 Alpha  occ. eigenvalues --   -0.53921  -0.53703  -0.53539  -0.53310  -0.49431
 Alpha  occ. eigenvalues --   -0.49403  -0.49109  -0.49086  -0.45375  -0.45065
 Alpha  occ. eigenvalues --   -0.38160  -0.37827  -0.37227  -0.36795
 Alpha virt. eigenvalues --    0.04358   0.04691   0.10390   0.10847   0.15732
 Alpha virt. eigenvalues --    0.16142   0.17859   0.21869   0.24477   0.26885
 Alpha virt. eigenvalues --    0.27541   0.28720   0.29836   0.31576   0.32118

 Mulliken charges:
               1
     1  C   -0.171136
     2  C   -0.218510
     3  C   -0.169250
     4  C    0.158888
     5  C   -0.171012
     6  C   -0.224712
     7  H    0.227330
     8  H    0.226459
     9  H    0.278529
    10  H    0.275769
    11  H    0.217480
    12  N    0.488079
    13  O   -0.459146
    14  O   -0.457943
    15  C   -0.173122
    16  C   -0.218902
    17  C   -0.170016
    18  C    0.159422
    19  C   -0.170017
    20  C   -0.219508
    21  H    0.218266
    22  H    0.224328
    23  H    0.277347
    24  H    0.277381
    25  H    0.224130
    26  N    0.487897
    27  O   -0.459015
    28  O   -0.459016
 Sum of Mulliken charges =  -0.00000

 Dipole moment (field-independent basis, Debye):
    X=              3.0102    Y=              6.2295    Z=              1.6367  Tot=              7.1097
 Quadrupole moment (field-independent basis, Debye-Ang):
   XX=           -156.6312   YY=           -108.1046   ZZ=            -99.6699
   XY=             16.5406   XZ=            -11.8199   YZ=             -2.1055

 Normal termination of Gaussian 16 at Wed May  5 20:55:43 2021.
