 Gaussian 16, Revision A.03,
 Gaussian 16:  EM64L-G16RevA.03 25-Dec-2016

 -------------
 #p 6-31g* mp2
 -------------

 ------------------------------------------------------
 Input file generated by CHIRIPA (05-May-2021 14:51:08)
 ------------------------------------------------------
 Symbolic Z-matrix:
 Charge =  0 Multiplicity = 1

                         Standard orientation:
 ---------------------------------------------------------------------
 Center     Atomic      Atomic             Coordinates (Angstroms)
 Number     Number       Type             X           Y           Z
 ---------------------------------------------------------------------
      1          6           0       -4.979458   -0.083411    0.017678
      2          6           0       -5.110383   -1.592106   -0.193707
      3          6           0       -6.508464   -2.116082    0.135860
      4          1           0       -5.226216    0.157030    1.060867
      5          1           0       -5.722078    0.433020   -0.606188
      6          1           0       -4.366811   -2.105471    0.429328
      7          1           0       -4.863099   -1.829006   -1.236465
      8          1           0       -7.260367   -1.630513   -0.494588
      9          1           0       -6.761259   -1.908548    1.180669
     10          1           0       -6.579783   -3.196719   -0.022240
     11          6           0       -3.587466    0.455354   -0.307620
     12          6           0       -3.456540    1.964049   -0.096235
     13          6           0       -2.058460    2.488025   -0.425802
     14          1           0       -2.844845   -0.061077    0.316246
     15          1           0       -3.340708    0.214913   -1.350809
     16          1           0       -3.703825    2.200949    0.946523
     17          1           0       -4.200113    2.477414   -0.719270
     18          1           0       -1.805665    2.280492   -1.470611
     19          1           0       -1.306556    2.002456    0.204646
     20          1           0       -1.987140    3.568662   -0.267702
     21          6           0        5.023502   -0.015067    0.225990
     22          6           0        5.949321   -0.937932   -0.567209
     23          6           0        7.426626   -0.583397   -0.394957
     24          1           0        5.192189    1.023314   -0.090641
     25          1           0        5.291774   -0.064781    1.290393
     26          1           0        5.678483   -0.887544   -1.629624
     27          1           0        5.778275   -1.974256   -0.248790
     28          1           0        7.719082   -0.652139    0.657823
     29          1           0        7.618722    0.440747   -0.730856
     30          1           0        8.070575   -1.255629   -0.970538
     31          6           0        3.543421   -0.356876    0.063953
     32          6           0        2.617602    0.565988    0.857151
     33          6           0        1.140297    0.211455    0.684899
     34          1           0        3.275150   -0.307161   -1.000451
     35          1           0        3.374735   -1.395257    0.380583
     36          1           0        2.788649    1.602313    0.538732
     37          1           0        2.888442    0.515602    1.919565
     38          1           0        0.948201   -0.812690    1.020798
     39          1           0        0.847842    0.280196   -0.367881
     40          1           0        0.496349    0.883686    1.260480
 ---------------------------------------------------------------------

 SCF Done:  E(RHF) =  -470.733016589     A.U. after   11 cycles
 E2 =    -0.1582503757D+01 EUMP2 =    -0.47231552034670D+03

 The electronic state is 1-A.
 Alpha  occ. eigenvalues --  -11.21613 -11.21604 -11.21562 -11.21528 -11.21410
 Alpha  occ. eigenvalues --  -11.21351 -11.21347 -11.21284 -11.21089 -11.21072
 Alpha  occ. eigenvalues --  -11.21042 -11.20931  -1.08438  -1.08370  -1.03549
 Alpha  occ. eigenvalues --   -1.03461  -0.96018  -0.95895  -0.87058  -0.86893
 Alpha  occ. eigenvalues --   -0.79651  -0.79490  -0.78252  -0.78176  -0.65069
 Alpha  occ. eigenvalues --   -0.65003  -0.60972  -0.60862  -0.59410  -0.59259
 Alpha  occ. eigenvalues --   -0.57645  -0.57496  -0.55343  -0.55154  -0.52804
 Alpha  occ. eigenvalues --   -0.52611  -0.52420  -0.52243  -0.49991  -0.49776
 Alpha  occ. eigenvalues --   -0.47922  -0.47837  -0.46656  -0.46530  -0.45805
 Alpha  occ. eigenvalues --   -0.45736  -0.45689  -0.45640  -0.43757  -0.43719
 Alpha virt. eigenvalues --    0.22135   0.22980   0.23601   0.24839   0.26245
 Alpha virt. eigenvalues --    0.26608   0.27101   0.27461   0.27850   0.29147
 Alpha virt. eigenvalues --    0.30021   0.31403   0.31692   0.31833   0.32153

 Mulliken charges:
               1
     1  C   -0.298234
     2  C   -0.299589
     3  C   -0.475667
     4  H    0.149451
     5  H    0.149359
     6  H    0.151979
     7  H    0.151850
     8  H    0.155100
     9  H    0.155093
    10  H    0.160105
    11  C   -0.298815
    12  C   -0.299191
    13  C   -0.482751
    14  H    0.150809
    15  H    0.149297
    16  H    0.151286
    17  H    0.151415
    18  H    0.154046
    19  H    0.164156
    20  H    0.159099
    21  C   -0.298320
    22  C   -0.299653
    23  C   -0.475710
    24  H    0.149773
    25  H    0.149505
    26  H    0.151976
    27  H    0.151923
    28  H    0.155169
    29  H    0.155217
    30  H    0.160263
    31  C   -0.298708
    32  C   -0.299577
    33  C   -0.479468
    34  H    0.149780
    35  H    0.149621
    36  H    0.152635
    37  H    0.151759
    38  H    0.154940
    39  H    0.157898
    40  H    0.162179
 Sum of Mulliken charges =  -0.00000

 Dipole moment (field-independent basis, Debye):
    X=              0.0469    Y=             -0.0161    Z=              0.0064  Tot=              0.0500
 Quadrupole moment (field-independent basis, Debye-Ang):
   XX=            -87.0324   YY=            -84.7692   ZZ=            -83.2300
   XY=             -0.6544   XZ=              0.4583   YZ=             -0.5495

 Normal termination of Gaussian 16 at Wed May  5 18:06:59 2021.
