 Gaussian 16, Revision A.03,
 Gaussian 16:  EM64L-G16RevA.03 25-Dec-2016

 -------------
 #p 6-31g* mp2
 -------------

 ------------------------------------------------------
 Input file generated by CHIRIPA (05-May-2021 14:55:25)
 ------------------------------------------------------
 Symbolic Z-matrix:
 Charge =  0 Multiplicity = 1

                         Standard orientation:
 ---------------------------------------------------------------------
 Center     Atomic      Atomic             Coordinates (Angstroms)
 Number     Number       Type             X           Y           Z
 ---------------------------------------------------------------------
      1          6           0       -5.618958   -0.308529    0.549686
      2          6           0       -4.920568   -1.504347    0.352729
      3          6           0       -3.568701   -1.486700   -0.003207
      4          6           0       -2.943689   -0.249857   -0.154434
      5          6           0       -3.612320    0.958615    0.034821
      6          6           0       -4.963760    0.916975    0.390384
      7          1           0       -6.668955   -0.331556    0.826040
      8          1           0       -5.426835   -2.457555    0.475752
      9          1           0       -3.004038   -2.397419   -0.161842
     10          1           0       -3.080577    1.893379   -0.095114
     11          1           0       -5.503624    1.847240    0.542698
     12          7           0       -1.512754   -0.218475   -0.531050
     13          8           0       -0.984974    0.884221   -0.658118
     14          8           0       -0.946062   -1.297168   -0.692042
     15          6           0        4.261155   -0.392446   -0.055032
     16          6           0        5.639749   -0.796032    0.468975
     17          6           0        6.008364   -2.236934    0.114402
     18          1           0        3.505573   -1.077015    0.354121
     19          1           0        4.239779   -0.519447   -1.146273
     20          1           0        5.658965   -0.666993    1.558744
     21          1           0        6.392115   -0.110306    0.058680
     22          1           0        6.016987   -2.376307   -0.971462
     23          1           0        5.279672   -2.936157    0.537124
     24          1           0        6.997643   -2.504413    0.498644
     25          6           0        3.878427    1.045321    0.291480
     26          6           0        2.499834    1.448907   -0.232527
     27          6           0        2.131219    2.889808    0.122047
     28          1           0        3.899804    1.172322    1.382722
     29          1           0        4.634009    1.729890   -0.117672
     30          1           0        1.747469    0.763180    0.177768
     31          1           0        2.480618    1.319868   -1.322295
     32          1           0        2.859911    3.589032   -0.300676
     33          1           0        2.122596    3.029182    1.207911
     34          1           0        1.141940    3.157288   -0.262194
 ---------------------------------------------------------------------

 SCF Done:  E(RHF) =  -669.536111018     A.U. after   15 cycles
 E2 =    -0.2091556228D+01 EUMP2 =    -0.67162766724637D+03

 The electronic state is 1-A.
 Alpha  occ. eigenvalues --  -20.61018 -20.61008 -15.86037 -11.31342 -11.27901
 Alpha  occ. eigenvalues --  -11.27897 -11.27634 -11.26902 -11.26892 -11.20657
 Alpha  occ. eigenvalues --  -11.20265 -11.20156 -11.20004 -11.19698 -11.19529
 Alpha  occ. eigenvalues --   -1.60069  -1.39625  -1.19506  -1.08914  -1.07128
 Alpha  occ. eigenvalues --   -1.04899  -1.02212  -0.95759  -0.94725  -0.86300
 Alpha  occ. eigenvalues --   -0.85762  -0.82593  -0.78304  -0.77649  -0.76851
 Alpha  occ. eigenvalues --   -0.72250  -0.71384  -0.70614  -0.65162  -0.64901
 Alpha  occ. eigenvalues --   -0.63778  -0.62246  -0.59631  -0.58111  -0.56275
 Alpha  occ. eigenvalues --   -0.55400  -0.54057  -0.53231  -0.52989  -0.51436
 Alpha  occ. eigenvalues --   -0.51142  -0.49064  -0.49006  -0.48705  -0.46586
 Alpha  occ. eigenvalues --   -0.45367  -0.45037  -0.44409  -0.44233  -0.42474
 Alpha  occ. eigenvalues --   -0.37483  -0.36498
 Alpha virt. eigenvalues --    0.04861   0.11157   0.16361   0.21277   0.24059
 Alpha virt. eigenvalues --    0.25544   0.27211   0.27912   0.28081   0.28868
 Alpha virt. eigenvalues --    0.29179   0.30843   0.32236   0.32594   0.32960

 Mulliken charges:
               1
     1  C   -0.170502
     2  C   -0.218597
     3  C   -0.170677
     4  C    0.158117
     5  C   -0.170626
     6  C   -0.218555
     7  H    0.226175
     8  H    0.223976
     9  H    0.275932
    10  H    0.275780
    11  H    0.224039
    12  N    0.489988
    13  O   -0.460262
    14  O   -0.459058
    15  C   -0.297282
    16  C   -0.298538
    17  C   -0.474827
    18  H    0.153395
    19  H    0.149518
    20  H    0.149174
    21  H    0.149337
    22  H    0.154588
    23  H    0.154903
    24  H    0.156505
    25  C   -0.298956
    26  C   -0.295275
    27  C   -0.477244
    28  H    0.143768
    29  H    0.143533
    30  H    0.169053
    31  H    0.151704
    32  H    0.146376
    33  H    0.146645
    34  H    0.167892
 Sum of Mulliken charges =  -0.00000

 Dipole moment (field-independent basis, Debye):
    X=             -5.4989    Y=             -0.2200    Z=              1.2390  Tot=              5.6410
 Quadrupole moment (field-independent basis, Debye-Ang):
   XX=            -67.3285   YY=            -91.2183   ZZ=            -95.4530
   XY=              1.7206   XZ=             -3.8716   YZ=             -0.8172

 Normal termination of Gaussian 16 at Thu May  6 20:57:53 2021.
