 Gaussian 16, Revision A.03,
 Gaussian 16:  EM64L-G16RevA.03 25-Dec-2016

 -------------
 #p 6-31g* mp2
 -------------

 ------------------------------------------------------
 Input file generated by CHIRIPA (05-May-2021 14:53:12)
 ------------------------------------------------------
 Symbolic Z-matrix:
 Charge =  0 Multiplicity = 1

                         Standard orientation:
 ---------------------------------------------------------------------
 Center     Atomic      Atomic             Coordinates (Angstroms)
 Number     Number       Type             X           Y           Z
 ---------------------------------------------------------------------
      1          6           0        2.468213   -1.120802   -0.760887
      2          6           0        1.013504   -0.764238   -1.068567
      3          6           0        0.304114   -1.836952   -1.895515
      4          1           0        3.008733   -1.275266   -1.704775
      5          1           0        2.497836   -2.078708   -0.223361
      6          1           0        0.986545    0.193393   -1.604135
      7          1           0        0.476431   -0.610417   -0.123840
      8          1           0        0.301395   -2.794039   -1.363934
      9          1           0        0.814407   -1.985662   -2.852640
     10          1           0       -0.734465   -1.561687   -2.103941
     11          6           0        3.190750   -0.058104    0.065153
     12          6           0        4.645459   -0.414669    0.372833
     13          6           0        5.354849    0.658045    1.199782
     14          1           0        3.161128    0.899802   -0.472373
     15          1           0        2.650230    0.096359    1.009041
     16          1           0        5.182532   -0.568490   -0.571893
     17          1           0        4.672418   -1.372299    0.908402
     18          1           0        4.844556    0.806756    2.156906
     19          1           0        5.357569    1.615132    0.668200
     20          1           0        6.393428    0.382780    1.408208
     21          6           0       -3.455915   -1.491933    1.273225
     22          6           0       -3.780923   -1.037838   -0.009229
     23          6           0       -3.097520    0.043114   -0.574074
     24          6           0       -2.090134    0.649265    0.174954
     25          6           0       -1.743179    0.220027    1.455058
     26          6           0       -2.439872   -0.862660    1.999995
     27          1           0       -3.991960   -2.332317    1.704278
     28          1           0       -4.569540   -1.524615   -0.575953
     29          1           0       -3.328712    0.415119   -1.564822
     30          1           0       -0.952250    0.725549    1.995701
     31          1           0       -2.185326   -1.213172    2.996184
     32          7           0       -1.359611    1.794540   -0.412484
     33          8           0       -0.476154    2.311439    0.267923
     34          8           0       -1.684317    2.153620   -1.542203
 ---------------------------------------------------------------------

 SCF Done:  E(RHF) =  -669.534328664     A.U. after   15 cycles
 E2 =    -0.2095373177D+01 EUMP2 =    -0.67162970184028D+03

 The electronic state is 1-A.
 Alpha  occ. eigenvalues --  -20.60828 -20.60823 -15.85847 -11.31222 -11.27814
 Alpha  occ. eigenvalues --  -11.27790 -11.27553 -11.26847 -11.26836 -11.21219
 Alpha  occ. eigenvalues --  -11.21141 -11.21004 -11.20852 -11.20817 -11.20693
 Alpha  occ. eigenvalues --   -1.59886  -1.39442  -1.19430  -1.08815  -1.08017
 Alpha  occ. eigenvalues --   -1.04839  -1.03172  -0.95651  -0.95615  -0.86644
 Alpha  occ. eigenvalues --   -0.86227  -0.82482  -0.79272  -0.77858  -0.77513
 Alpha  occ. eigenvalues --   -0.72088  -0.71183  -0.70532  -0.65082  -0.64838
 Alpha  occ. eigenvalues --   -0.64658  -0.62183  -0.60592  -0.59015  -0.57267
 Alpha  occ. eigenvalues --   -0.55326  -0.54927  -0.53150  -0.52922  -0.52287
 Alpha  occ. eigenvalues --   -0.52032  -0.49562  -0.48858  -0.48846  -0.47581
 Alpha  occ. eigenvalues --   -0.46282  -0.45492  -0.45266  -0.44686  -0.43411
 Alpha  occ. eigenvalues --   -0.37322  -0.36384
 Alpha virt. eigenvalues --    0.04954   0.11094   0.16491   0.21239   0.23258
 Alpha virt. eigenvalues --    0.24557   0.26465   0.27363   0.27507   0.28190
 Alpha virt. eigenvalues --    0.28784   0.30920   0.31634   0.31733   0.32207

 Mulliken charges:
               1
     1  C   -0.297323
     2  C   -0.312439
     3  C   -0.474590
     4  H    0.149397
     5  H    0.144884
     6  H    0.165226
     7  H    0.150819
     8  H    0.150868
     9  H    0.155803
    10  H    0.156787
    11  C   -0.297169
    12  C   -0.299684
    13  C   -0.475138
    14  H    0.158691
    15  H    0.146998
    16  H    0.151452
    17  H    0.148418
    18  H    0.153908
    19  H    0.158075
    20  H    0.158183
    21  C   -0.170756
    22  C   -0.217641
    23  C   -0.172908
    24  C    0.163366
    25  C   -0.175292
    26  C   -0.217468
    27  H    0.225911
    28  H    0.223966
    29  H    0.275907
    30  H    0.275717
    31  H    0.223705
    32  N    0.492420
    33  O   -0.459370
    34  O   -0.460725
 Sum of Mulliken charges =  -0.00000

 Dipole moment (field-independent basis, Debye):
    X=             -2.6511    Y=             -3.8692    Z=              2.0567  Tot=              5.1214
 Quadrupole moment (field-independent basis, Debye-Ang):
   XX=            -83.3821   YY=           -101.1955   ZZ=            -90.4590
   XY=              7.2531   XZ=             -3.0562   YZ=             -0.0483

 Normal termination of Gaussian 16 at Thu May  6 12:01:08 2021.
