 Gaussian 16, Revision A.03,
 Gaussian 16:  EM64L-G16RevA.03 25-Dec-2016

 -------------
 #p 6-31g* mp2
 -------------

 ------------------------------------------------------
 Input file generated by CHIRIPA (05-May-2021 14:55:24)
 ------------------------------------------------------
 Symbolic Z-matrix:
 Charge =  0 Multiplicity = 1

                         Standard orientation:
 ---------------------------------------------------------------------
 Center     Atomic      Atomic             Coordinates (Angstroms)
 Number     Number       Type             X           Y           Z
 ---------------------------------------------------------------------
      1          6           0        0.500143   -0.345929    0.568720
      2          6           0        1.434269   -1.079603    1.307402
      3          6           0        2.799950   -0.977490    1.026268
      4          6           0        3.198241   -0.128351   -0.005050
      5          6           0        2.291851    0.615576   -0.758919
      6          6           0        0.931155    0.497832   -0.460269
      7          1           0       -0.558815   -0.431324    0.793915
      8          1           0        1.102418   -1.735663    2.107093
      9          1           0        3.544562   -1.534050    1.582336
     10          1           0        2.653000    1.261306   -1.550134
     11          1           0        0.207948    1.068811   -1.035595
     12          7           0        4.641388   -0.011975   -0.311946
     13          8           0        4.966664    0.743094   -1.225567
     14          8           0        5.419923   -0.678031    0.366942
     15          6           0       -3.979838    0.926427   -0.002645
     16          6           0       -2.795461    1.835416    0.327470
     17          6           0       -3.192546    3.307983    0.435465
     18          1           0       -4.434202    1.255373   -0.947258
     19          1           0       -4.750112    1.043569    0.772178
     20          1           0       -2.027065    1.715561   -0.447009
     21          1           0       -2.343747    1.504149    1.271309
     22          1           0       -3.942059    3.448255    1.221057
     23          1           0       -3.623577    3.660868   -0.507025
     24          1           0       -2.330785    3.939858    0.672027
     25          6           0       -3.598769   -0.548746   -0.113911
     26          6           0       -4.783146   -1.457735   -0.444026
     27          6           0       -4.386061   -2.930302   -0.552021
     28          1           0       -2.828495   -0.665888   -0.888735
     29          1           0       -3.144406   -0.877691    0.830701
     30          1           0       -5.234860   -1.126467   -1.387866
     31          1           0       -5.551542   -1.337880    0.330453
     32          1           0       -3.955030   -3.283187    0.390468
     33          1           0       -3.636548   -3.070574   -1.337613
     34          1           0       -5.247822   -3.562177   -0.788584
 ---------------------------------------------------------------------

 SCF Done:  E(RHF) =  -669.534983399     A.U. after   15 cycles
 E2 =    -0.2092785174D+01 EUMP2 =    -0.67162776857311D+03

 The electronic state is 1-A.
 Alpha  occ. eigenvalues --  -20.60674 -20.60669 -15.85727 -11.31059 -11.27636
 Alpha  occ. eigenvalues --  -11.27631 -11.27273 -11.26622 -11.26598 -11.22939
 Alpha  occ. eigenvalues --  -11.22686 -11.22554 -11.22515 -11.22054 -11.21896
 Alpha  occ. eigenvalues --   -1.59751  -1.39305  -1.19227  -1.09612  -1.08614
 Alpha  occ. eigenvalues --   -1.04646  -1.04581  -0.97013  -0.95460  -0.88028
 Alpha  occ. eigenvalues --   -0.86033  -0.82305  -0.80698  -0.79489  -0.77358
 Alpha  occ. eigenvalues --   -0.71945  -0.71074  -0.70303  -0.66247  -0.64873
 Alpha  occ. eigenvalues --   -0.64655  -0.62114  -0.61868  -0.60378  -0.58655
 Alpha  occ. eigenvalues --   -0.56285  -0.55129  -0.53668  -0.53433  -0.52953
 Alpha  occ. eigenvalues --   -0.52741  -0.50947  -0.48990  -0.48704  -0.48699
 Alpha  occ. eigenvalues --   -0.47710  -0.46914  -0.46891  -0.44871  -0.44718
 Alpha  occ. eigenvalues --   -0.37181  -0.36243
 Alpha virt. eigenvalues --    0.05169   0.11382   0.16632   0.19486   0.22499
 Alpha virt. eigenvalues --    0.23041   0.23990   0.25251   0.26853   0.28000
 Alpha virt. eigenvalues --    0.29562   0.30512   0.30893   0.31256   0.31554

 Mulliken charges:
               1
     1  C   -0.177158
     2  C   -0.221124
     3  C   -0.170722
     4  C    0.158149
     5  C   -0.171260
     6  C   -0.225264
     7  H    0.238447
     8  H    0.222854
     9  H    0.274985
    10  H    0.275150
    11  H    0.226832
    12  N    0.487987
    13  O   -0.460881
    14  O   -0.460844
    15  C   -0.297234
    16  C   -0.307364
    17  C   -0.476055
    18  H    0.153930
    19  H    0.154092
    20  H    0.146371
    21  H    0.150882
    22  H    0.159174
    23  H    0.158160
    24  H    0.163705
    25  C   -0.304497
    26  C   -0.299627
    27  C   -0.476810
    28  H    0.148288
    29  H    0.144324
    30  H    0.155494
    31  H    0.154889
    32  H    0.154101
    33  H    0.156762
    34  H    0.164265
 Sum of Mulliken charges =  -0.00000

 Dipole moment (field-independent basis, Debye):
    X=             -5.4457    Y=             -0.3579    Z=              1.0691  Tot=              5.5612
 Quadrupole moment (field-independent basis, Debye-Ang):
   XX=           -126.5316   YY=            -93.6529   ZZ=            -91.4904
   XY=             -1.4025   XZ=              4.3066   YZ=             -3.0241

 Normal termination of Gaussian 16 at Thu May  6 06:23:11 2021.
