 Gaussian 16, Revision A.03,
 Gaussian 16:  EM64L-G16RevA.03 25-Dec-2016

 -------------
 #p 6-31g* mp2
 -------------

 ------------------------------------------------------
 Input file generated by CHIRIPA (05-May-2021 14:55:19)
 ------------------------------------------------------
 Symbolic Z-matrix:
 Charge =  0 Multiplicity = 1

                         Standard orientation:
 ---------------------------------------------------------------------
 Center     Atomic      Atomic             Coordinates (Angstroms)
 Number     Number       Type             X           Y           Z
 ---------------------------------------------------------------------
      1          6           0        3.524337   -2.178889    0.993184
      2          6           0        2.226876   -1.727367    1.256329
      3          6           0        1.753150   -0.548768    0.672346
      4          6           0        2.607610    0.156592   -0.173618
      5          6           0        3.905358   -0.267383   -0.455367
      6          6           0        4.357967   -1.448743    0.139680
      7          1           0        3.884136   -3.095526    1.451134
      8          1           0        1.577258   -2.292364    1.918764
      9          1           0        0.753161   -0.176374    0.858795
     10          1           0        4.529644    0.317373   -1.120006
     11          1           0        5.366060   -1.797007   -0.066492
     12          7           0        2.117275    1.405784   -0.797711
     13          8           0        2.889714    2.009023   -1.539384
     14          8           0        0.969796    1.758008   -0.533385
     15          6           0       -3.277167    0.517589    0.682149
     16          6           0       -2.778099    1.901034    0.263825
     17          6           0       -2.454142    2.798744    1.458380
     18          1           0       -4.171436    0.631784    1.309992
     19          1           0       -2.514815    0.034519    1.308932
     20          1           0       -3.540582    2.380795   -0.363124
     21          1           0       -1.885025    1.783525   -0.363253
     22          1           0       -1.677006    2.344866    2.081803
     23          1           0       -3.341970    2.945529    2.081933
     24          1           0       -2.099173    3.782741    1.136500
     25          6           0       -3.605195   -0.391408   -0.501004
     26          6           0       -4.104263   -1.774853   -0.082681
     27          6           0       -4.428220   -2.672564   -1.277237
     28          1           0       -4.367547    0.091662   -1.127787
     29          1           0       -2.710925   -0.505603   -1.128847
     30          1           0       -4.997337   -1.657344    0.544397
     31          1           0       -3.341780   -2.254613    0.544268
     32          1           0       -3.540392   -2.819349   -1.900789
     33          1           0       -5.205356   -2.218685   -1.900659
     34          1           0       -4.783188   -3.656560   -0.955356
 ---------------------------------------------------------------------

 SCF Done:  E(RHF) =  -669.536042199     A.U. after   15 cycles
 E2 =    -0.2091422198D+01 EUMP2 =    -0.67162746439700D+03

 The electronic state is 1-A.
 Alpha  occ. eigenvalues --  -20.60942 -20.60928 -15.85982 -11.31301 -11.27869
 Alpha  occ. eigenvalues --  -11.27860 -11.27599 -11.26872 -11.26862 -11.21510
 Alpha  occ. eigenvalues --  -11.21099 -11.21006 -11.21003 -11.20671 -11.20287
 Alpha  occ. eigenvalues --   -1.60003  -1.39560  -1.19469  -1.08873  -1.08050
 Alpha  occ. eigenvalues --   -1.04866  -1.03074  -0.95718  -0.95558  -0.86585
 Alpha  occ. eigenvalues --   -0.86266  -0.82552  -0.79170  -0.77830  -0.77593
 Alpha  occ. eigenvalues --   -0.72211  -0.71319  -0.70578  -0.65133  -0.64878
 Alpha  occ. eigenvalues --   -0.64674  -0.62215  -0.60456  -0.58953  -0.57141
 Alpha  occ. eigenvalues --   -0.55369  -0.54861  -0.53197  -0.52958  -0.52240
 Alpha  occ. eigenvalues --   -0.51984  -0.49537  -0.48963  -0.48955  -0.47476
 Alpha  occ. eigenvalues --   -0.46210  -0.45389  -0.45281  -0.44901  -0.43356
 Alpha  occ. eigenvalues --   -0.37447  -0.36468
 Alpha virt. eigenvalues --    0.04917   0.11185   0.16411   0.19952   0.22699
 Alpha virt. eigenvalues --    0.24257   0.26235   0.27469   0.27987   0.28394
 Alpha virt. eigenvalues --    0.29134   0.30751   0.31558   0.32167   0.32383

 Mulliken charges:
               1
     1  C   -0.170530
     2  C   -0.218822
     3  C   -0.172235
     4  C    0.157796
     5  C   -0.170653
     6  C   -0.218595
     7  H    0.226100
     8  H    0.224053
     9  H    0.276938
    10  H    0.275872
    11  H    0.223880
    12  N    0.494490
    13  O   -0.458917
    14  O   -0.467052
    15  C   -0.296310
    16  C   -0.310553
    17  C   -0.471635
    18  H    0.147727
    19  H    0.138645
    20  H    0.149005
    21  H    0.178558
    22  H    0.150531
    23  H    0.148809
    24  H    0.165537
    25  C   -0.298706
    26  C   -0.298119
    27  C   -0.475405
    28  H    0.151013
    29  H    0.151245
    30  H    0.151910
    31  H    0.145792
    32  H    0.154725
    33  H    0.156472
    34  H    0.158436
 Sum of Mulliken charges =  -0.00000

 Dipole moment (field-independent basis, Debye):
    X=              1.9116    Y=             -4.2904    Z=              2.0595  Tot=              5.1287
 Quadrupole moment (field-independent basis, Debye-Ang):
   XX=            -81.4650   YY=            -97.1526   ZZ=            -95.9021
   XY=            -11.5860   XZ=              3.3288   YZ=             -0.0805

 Normal termination of Gaussian 16 at Wed May  5 15:51:14 2021.
