 Gaussian 16, Revision A.03,
 Gaussian 16:  EM64L-G16RevA.03 25-Dec-2016

 -------------
 #p 6-31g* mp2
 -------------

 ------------------------------------------------------
 Input file generated by CHIRIPA (05-May-2021 14:53:14)
 ------------------------------------------------------
 Symbolic Z-matrix:
 Charge =  0 Multiplicity = 1

                         Standard orientation:
 ---------------------------------------------------------------------
 Center     Atomic      Atomic             Coordinates (Angstroms)
 Number     Number       Type             X           Y           Z
 ---------------------------------------------------------------------
      1          6           0       -3.903826    0.111118   -0.549532
      2          6           0       -4.719053   -0.713987    0.446756
      3          6           0       -5.724427   -1.641336   -0.236649
      4          1           0       -4.588251    0.704400   -1.171242
      5          1           0       -3.373021   -0.568726   -1.230307
      6          1           0       -5.247072   -0.032811    1.126323
      7          1           0       -4.032598   -1.305230    1.066294
      8          1           0       -5.210774   -2.343862   -0.900892
      9          1           0       -6.432148   -1.064213   -0.840522
     10          1           0       -6.296360   -2.221696    0.494058
     11          6           0       -2.894397    1.043062    0.118497
     12          6           0       -2.079169    1.868166   -0.877792
     13          6           0       -1.073796    2.795515   -0.194387
     14          1           0       -3.425202    1.722905    0.799272
     15          1           0       -2.209972    0.449779    0.740206
     16          1           0       -2.765625    2.459409   -1.497330
     17          1           0       -1.551151    1.186990   -1.557359
     18          1           0       -0.366075    2.218392    0.409486
     19          1           0       -1.587449    3.498041    0.469856
     20          1           0       -0.501862    3.375875   -0.925094
     21          6           0        0.320476   -1.086573    0.881946
     22          6           0        0.976388   -1.827385   -0.106740
     23          6           0        2.270301   -1.484229   -0.509955
     24          6           0        2.881303   -0.389392    0.099387
     25          6           0        2.254001    0.368319    1.087142
     26          6           0        0.960248    0.006987    1.474686
     27          1           0       -0.684605   -1.360204    1.189086
     28          1           0        0.481976   -2.677146   -0.568808
     29          1           0        2.801203   -2.040426   -1.272979
     30          1           0        2.772602    1.210241    1.529449
     31          1           0        0.453281    0.584124    2.242762
     32          7           0        4.251025   -0.016487   -0.319183
     33          8           0        4.767582    0.952423    0.233102
     34          8           0        4.782122   -0.700176   -1.191618
 ---------------------------------------------------------------------

 SCF Done:  E(RHF) =  -669.534089472     A.U. after   15 cycles
 E2 =    -0.2094244488D+01 EUMP2 =    -0.67162833395996D+03

 The electronic state is 1-A.
 Alpha  occ. eigenvalues --  -20.60823 -20.60818 -15.85878 -11.31282 -11.27854
 Alpha  occ. eigenvalues --  -11.27850 -11.27594 -11.26880 -11.26864 -11.22448
 Alpha  occ. eigenvalues --  -11.22213 -11.22148 -11.22111 -11.21774 -11.21432
 Alpha  occ. eigenvalues --   -1.59898  -1.39450  -1.19470  -1.09189  -1.08846
 Alpha  occ. eigenvalues --   -1.04885  -1.04177  -0.96632  -0.95682  -0.87650
 Alpha  occ. eigenvalues --   -0.86275  -0.82516  -0.80260  -0.79019  -0.77548
 Alpha  occ. eigenvalues --   -0.72096  -0.71221  -0.70603  -0.65856  -0.65117
 Alpha  occ. eigenvalues --   -0.64859  -0.62243  -0.61574  -0.59995  -0.58255
 Alpha  occ. eigenvalues --   -0.56057  -0.55295  -0.53294  -0.53265  -0.53045
 Alpha  occ. eigenvalues --   -0.52892  -0.50573  -0.48859  -0.48848  -0.48560
 Alpha  occ. eigenvalues --   -0.47302  -0.46541  -0.46455  -0.44847  -0.44460
 Alpha  occ. eigenvalues --   -0.37397  -0.36409
 Alpha virt. eigenvalues --    0.04943   0.11074   0.16275   0.19392   0.22706
 Alpha virt. eigenvalues --    0.23646   0.25146   0.26325   0.26421   0.28186
 Alpha virt. eigenvalues --    0.29749   0.30767   0.31258   0.31502   0.31818

 Mulliken charges:
               1
     1  C   -0.299128
     2  C   -0.299079
     3  C   -0.475799
     4  H    0.154018
     5  H    0.147856
     6  H    0.154717
     7  H    0.143503
     8  H    0.154511
     9  H    0.158178
    10  H    0.161913
    11  C   -0.299823
    12  C   -0.298663
    13  C   -0.482074
    14  H    0.151356
    15  H    0.138962
    16  H    0.154217
    17  H    0.154131
    18  H    0.156761
    19  H    0.153323
    20  H    0.164467
    21  C   -0.170135
    22  C   -0.220225
    23  C   -0.170522
    24  C    0.158881
    25  C   -0.169906
    26  C   -0.220053
    27  H    0.227915
    28  H    0.223930
    29  H    0.276055
    30  H    0.276668
    31  H    0.226043
    32  N    0.488083
    33  O   -0.459899
    34  O   -0.460183
 Sum of Mulliken charges =  -0.00000

 Dipole moment (field-independent basis, Debye):
    X=             -4.8362    Y=             -1.2992    Z=              1.4011  Tot=              5.2000
 Quadrupole moment (field-independent basis, Debye-Ang):
   XX=           -122.8112   YY=            -91.1671   ZZ=            -92.8777
   XY=             -3.0632   XZ=              3.7233   YZ=              1.8808

 Normal termination of Gaussian 16 at Thu May  6 18:45:55 2021.
