 Gaussian 16, Revision A.03,
 Gaussian 16:  EM64L-G16RevA.03 25-Dec-2016

 -------------
 #p 6-31g* mp2
 -------------

 ------------------------------------------------------
 Input file generated by CHIRIPA (05-May-2021 14:57:22)
 ------------------------------------------------------
 Symbolic Z-matrix:
 Charge =  0 Multiplicity = 1

                         Standard orientation:
 ---------------------------------------------------------------------
 Center     Atomic      Atomic             Coordinates (Angstroms)
 Number     Number       Type             X           Y           Z
 ---------------------------------------------------------------------
      1          6           0       -1.633447   -1.115182    0.079741
      2          6           0       -2.771389   -1.921095   -0.030324
      3          6           0       -4.045965   -1.348104   -0.071379
      4          6           0       -4.146309    0.040453    0.000248
      5          6           0       -3.031543    0.870195    0.110313
      6          6           0       -1.766920    0.275439    0.149585
      7          1           0       -0.647191   -1.568749    0.110941
      8          1           0       -2.670750   -3.001351   -0.084755
      9          1           0       -4.943681   -1.948374   -0.156230
     10          1           0       -3.163674    1.944079    0.162586
     11          1           0       -0.884936    0.903799    0.235101
     12          7           0       -5.490377    0.658574   -0.042271
     13          8           0       -5.551925    1.884401    0.022509
     14          8           0       -6.456859   -0.094475   -0.139573
     15          6           0        4.320989    2.552942   -0.042952
     16          6           0        5.405407    1.670906   -0.093675
     17          6           0        5.197714    0.288501   -0.074498
     18          6           0        3.886487   -0.179450   -0.003804
     19          6           0        2.785367    0.673864    0.047960
     20          6           0        3.016730    2.052488    0.027579
     21          1           0        4.491524    3.625359   -0.058316
     22          1           0        6.419399    2.056728   -0.148491
     23          1           0        6.018978   -0.416824   -0.112685
     24          1           0        1.786030    0.259373    0.102190
     25          1           0        2.172644    2.735133    0.067086
     26          7           0        3.654082   -1.640939    0.017135
     27          8           0        2.489215   -2.027975    0.079763
     28          8           0        4.641193   -2.371745   -0.029477
 ---------------------------------------------------------------------

 SCF Done:  E(RHF) =  -868.338560918     A.U. after   16 cycles
 E2 =    -0.2599550774D+01 EUMP2 =    -0.87093811169255D+03

 The electronic state is 1-A.
 Alpha  occ. eigenvalues --  -20.61853 -20.61803 -20.60698 -20.60685 -15.86875
 Alpha  occ. eigenvalues --  -15.85751 -11.32112 -11.31062 -11.28776 -11.28595
 Alpha  occ. eigenvalues --  -11.28322 -11.27732 -11.27679 -11.27616 -11.27572
 Alpha  occ. eigenvalues --  -11.27235 -11.26764 -11.26518  -1.60883  -1.59772
 Alpha  occ. eigenvalues --   -1.40449  -1.39328  -1.20258  -1.19240  -1.09660
 Alpha  occ. eigenvalues --   -1.08614  -1.05657  -1.04662  -0.96529  -0.95453
 Alpha  occ. eigenvalues --   -0.87054  -0.86055  -0.83382  -0.82307  -0.78462
 Alpha  occ. eigenvalues --   -0.77394  -0.73109  -0.72189  -0.71969  -0.71368
 Alpha  occ. eigenvalues --   -0.71097  -0.70240  -0.65919  -0.65666  -0.64890
 Alpha  occ. eigenvalues --   -0.64705  -0.63025  -0.62019  -0.56121  -0.55015
 Alpha  occ. eigenvalues --   -0.53964  -0.53756  -0.52965  -0.52760  -0.49866
 Alpha  occ. eigenvalues --   -0.49814  -0.48726  -0.48722  -0.45880  -0.44746
 Alpha  occ. eigenvalues --   -0.38194  -0.37246  -0.37163  -0.36280
 Alpha virt. eigenvalues --    0.04103   0.05185   0.10419   0.11381   0.15639
 Alpha virt. eigenvalues --    0.16696   0.17694   0.22140   0.24814   0.26253
 Alpha virt. eigenvalues --    0.27784   0.28959   0.30624   0.31588   0.32121

 Mulliken charges:
               1
     1  C   -0.179090
     2  C   -0.220028
     3  C   -0.170112
     4  C    0.157569
     5  C   -0.170371
     6  C   -0.220525
     7  H    0.248486
     8  H    0.227902
     9  H    0.275826
    10  H    0.272764
    11  H    0.209623
    12  N    0.488219
    13  O   -0.462349
    14  O   -0.460021
    15  C   -0.169580
    16  C   -0.218180
    17  C   -0.169275
    18  C    0.159511
    19  C   -0.172588
    20  C   -0.218574
    21  H    0.229291
    22  H    0.227034
    23  H    0.277966
    24  H    0.269254
    25  H    0.222267
    26  N    0.492832
    27  O   -0.473845
    28  O   -0.454006
 Sum of Mulliken charges =  -0.00000

 Dipole moment (field-independent basis, Debye):
    X=              5.9452    Y=              2.8514    Z=              0.0532  Tot=              6.5938
 Quadrupole moment (field-independent basis, Debye-Ang):
   XX=           -130.8060   YY=           -102.7162   ZZ=           -106.5939
   XY=             31.3167   XZ=             -1.0618   YZ=              0.4192

 Normal termination of Gaussian 16 at Wed May  5 16:16:14 2021.
