 Gaussian 16, Revision A.03,
 Gaussian 16:  EM64L-G16RevA.03 25-Dec-2016

 -------------
 #p 6-31g* mp2
 -------------

 ------------------------------------------------------
 Input file generated by CHIRIPA (05-May-2021 14:57:26)
 ------------------------------------------------------
 Symbolic Z-matrix:
 Charge =  0 Multiplicity = 1

                         Standard orientation:
 ---------------------------------------------------------------------
 Center     Atomic      Atomic             Coordinates (Angstroms)
 Number     Number       Type             X           Y           Z
 ---------------------------------------------------------------------
      1          6           0        2.065872   -0.842538    0.796629
      2          6           0        3.214659   -1.145526    1.534874
      3          6           0        4.463508   -0.659787    1.136149
      4          6           0        4.527345    0.129632   -0.011036
      5          6           0        3.400922    0.448952   -0.767669
      6          6           0        2.162499   -0.047667   -0.350264
      7          1           0        1.099785   -1.224097    1.113624
      8          1           0        3.142617   -1.762599    2.425983
      9          1           0        5.368869   -0.878958    1.689054
     10          1           0        3.504347    1.066547   -1.651579
     11          1           0        1.272013    0.189252   -0.925547
     12          7           0        5.843927    0.649621   -0.443036
     13          8           0        5.873480    1.343018   -1.457415
     14          8           0        6.821381    0.353947    0.240922
     15          6           0       -6.275392    1.474940    0.384348
     16          6           0       -6.415766    0.383064   -0.478567
     17          6           0       -5.333763   -0.465164   -0.732193
     18          6           0       -4.120385   -0.190770   -0.103137
     19          6           0       -3.949074    0.889088    0.761645
     20          6           0       -5.044663    1.724028    1.000614
     21          1           0       -7.121195    2.128703    0.575677
     22          1           0       -7.370380    0.187194   -0.958561
     23          1           0       -5.414683   -1.317521   -1.395787
     24          1           0       -2.984966    1.058787    1.225454
     25          1           0       -4.932738    2.571254    1.671230
     26          7           0       -2.967725   -1.081718   -0.363880
     27          8           0       -1.909290   -0.818402    0.202706
     28          8           0       -3.144529   -2.026488   -1.129900
 ---------------------------------------------------------------------

 SCF Done:  E(RHF) =  -868.340625925     A.U. after   16 cycles
 E2 =    -0.2598079284D+01 EUMP2 =    -0.87093870520941D+03

 The electronic state is 1-A.
 Alpha  occ. eigenvalues --  -20.61939 -20.61871 -20.60078 -20.60073 -15.86939
 Alpha  occ. eigenvalues --  -15.85125 -11.31992 -11.30279 -11.28537 -11.28503
 Alpha  occ. eigenvalues --  -11.28194 -11.27464 -11.27447 -11.26863 -11.26812
 Alpha  occ. eigenvalues --  -11.26312 -11.25773 -11.25638  -1.60964  -1.59160
 Alpha  occ. eigenvalues --   -1.40529  -1.38719  -1.20132  -1.18413  -1.09581
 Alpha  occ. eigenvalues --   -1.07800  -1.05487  -1.03793  -0.96470  -0.94678
 Alpha  occ. eigenvalues --   -0.86899  -0.85167  -0.83319  -0.81535  -0.78398
 Alpha  occ. eigenvalues --   -0.76649  -0.73185  -0.72263  -0.71346  -0.71232
 Alpha  occ. eigenvalues --   -0.70482  -0.69392  -0.65788  -0.65482  -0.64038
 Alpha  occ. eigenvalues --   -0.63753  -0.62839  -0.61150  -0.55991  -0.54124
 Alpha  occ. eigenvalues --   -0.53832  -0.53572  -0.52133  -0.51855  -0.49939
 Alpha  occ. eigenvalues --   -0.49881  -0.48115  -0.48081  -0.46001  -0.44173
 Alpha  occ. eigenvalues --   -0.38089  -0.37076  -0.36322  -0.35424
 Alpha virt. eigenvalues --    0.04106   0.05886   0.10583   0.12252   0.15663
 Alpha virt. eigenvalues --    0.17457   0.20736   0.22553   0.26694   0.27529
 Alpha virt. eigenvalues --    0.28337   0.29422   0.30424   0.31810   0.32283

 Mulliken charges:
               1
     1  C   -0.175805
     2  C   -0.220267
     3  C   -0.172214
     4  C    0.157132
     5  C   -0.172872
     6  C   -0.221488
     7  H    0.245306
     8  H    0.220595
     9  H    0.272089
    10  H    0.272137
    11  H    0.230790
    12  N    0.488296
    13  O   -0.463028
    14  O   -0.463230
    15  C   -0.169635
    16  C   -0.218471
    17  C   -0.170177
    18  C    0.157364
    19  C   -0.170870
    20  C   -0.218375
    21  H    0.228476
    22  H    0.226092
    23  H    0.276929
    24  H    0.273674
    25  H    0.225792
    26  N    0.492283
    27  O   -0.475858
    28  O   -0.454663
 Sum of Mulliken charges =  -0.00000

 Dipole moment (field-independent basis, Debye):
    X=             -9.3956    Y=              1.2660    Z=              2.4131  Tot=              9.7828
 Quadrupole moment (field-independent basis, Debye-Ang):
   XX=           -111.8861   YY=           -104.9050   ZZ=           -101.0428
   XY=            -20.9637   XZ=              7.5861   YZ=             -0.1658

 Normal termination of Gaussian 16 at Fri May  7 02:01:50 2021.
