 Gaussian 16, Revision A.03,
 Gaussian 16:  EM64L-G16RevA.03 25-Dec-2016

 -------------
 #p 6-31g* mp2
 -------------

 ------------------------------------------------------
 Input file generated by CHIRIPA (05-May-2021 14:53:16)
 ------------------------------------------------------
 Symbolic Z-matrix:
 Charge =  0 Multiplicity = 1

                         Standard orientation:
 ---------------------------------------------------------------------
 Center     Atomic      Atomic             Coordinates (Angstroms)
 Number     Number       Type             X           Y           Z
 ---------------------------------------------------------------------
      1          6           0        5.114388   -0.233993   -0.001481
      2          6           0        6.019315    0.985272   -0.181710
      3          6           0        7.456256    0.606877   -0.542008
      4          1           0        5.532429   -0.880262    0.782435
      5          1           0        5.117673   -0.824524   -0.928119
      6          1           0        6.013235    1.574065    0.744520
      7          1           0        5.598968    1.628809   -0.965155
      8          1           0        7.481988    0.038706   -1.477487
      9          1           0        7.898609   -0.016349    0.241902
     10          1           0        8.085790    1.493518   -0.666158
     11          6           0        3.674696    0.128080    0.358961
     12          6           0        2.769768   -1.091185    0.539190
     13          6           0        1.332828   -0.712790    0.899488
     14          1           0        3.671410    0.718611    1.285599
     15          1           0        3.256654    0.774348   -0.424955
     16          1           0        3.190115   -1.734722    1.322634
     17          1           0        2.775849   -1.679978   -0.387040
     18          1           0        0.890475   -0.089564    0.115578
     19          1           0        1.307095   -0.144619    1.834966
     20          1           0        0.703293   -1.599431    1.023638
     21          6           0       -4.242368    2.418952    0.101910
     22          6           0       -2.893825    2.162326   -0.166597
     23          6           0       -2.434358    0.848938   -0.302433
     24          6           0       -3.355012   -0.188483   -0.162992
     25          6           0       -4.704751    0.034936    0.104543
     26          6           0       -5.141941    1.356311    0.236387
     27          1           0       -4.590639    3.442325    0.205880
     28          1           0       -2.192949    2.985615   -0.271538
     29          1           0       -1.395790    0.621799   -0.510289
     30          1           0       -5.379654   -0.806530    0.203833
     31          1           0       -6.189807    1.552626    0.444914
     32          7           0       -2.880388   -1.583136   -0.304683
     33          8           0       -3.711549   -2.479569   -0.177344
     34          8           0       -1.686202   -1.753423   -0.540396
 ---------------------------------------------------------------------

 SCF Done:  E(RHF) =  -669.535350821     A.U. after   15 cycles
 E2 =    -0.2091649844D+01 EUMP2 =    -0.67162700066480D+03

 The electronic state is 1-A.
 Alpha  occ. eigenvalues --  -20.60811 -20.60805 -15.85847 -11.31182 -11.27758
 Alpha  occ. eigenvalues --  -11.27729 -11.27500 -11.26768 -11.26753 -11.21455
 Alpha  occ. eigenvalues --  -11.21159 -11.21110 -11.21059 -11.20938 -11.20416
 Alpha  occ. eigenvalues --   -1.59881  -1.39436  -1.19357  -1.08761  -1.08141
 Alpha  occ. eigenvalues --   -1.04756  -1.03189  -0.95685  -0.95553  -0.86662
 Alpha  occ. eigenvalues --   -0.86154  -0.82435  -0.79279  -0.77970  -0.77467
 Alpha  occ. eigenvalues --   -0.72080  -0.71198  -0.70474  -0.65016  -0.64814
 Alpha  occ. eigenvalues --   -0.64731  -0.62125  -0.60584  -0.58986  -0.57232
 Alpha  occ. eigenvalues --   -0.55282  -0.54935  -0.53089  -0.52877  -0.52268
 Alpha  occ. eigenvalues --   -0.52052  -0.49627  -0.48834  -0.48804  -0.47577
 Alpha  occ. eigenvalues --   -0.46313  -0.45503  -0.45425  -0.44856  -0.43374
 Alpha  occ. eigenvalues --   -0.37340  -0.36355
 Alpha virt. eigenvalues --    0.05023   0.11284   0.16502   0.20930   0.23139
 Alpha virt. eigenvalues --    0.24363   0.25850   0.27095   0.27732   0.27875
 Alpha virt. eigenvalues --    0.29323   0.30491   0.31528   0.32027   0.32623

 Mulliken charges:
               1
     1  C   -0.298040
     2  C   -0.299193
     3  C   -0.475542
     4  H    0.149927
     5  H    0.150437
     6  H    0.150791
     7  H    0.150451
     8  H    0.155520
     9  H    0.155361
    10  H    0.159169
    11  C   -0.297621
    12  C   -0.300349
    13  C   -0.477176
    14  H    0.147023
    15  H    0.145664
    16  H    0.151361
    17  H    0.156157
    18  H    0.144845
    19  H    0.146748
    20  H    0.182497
    21  C   -0.170372
    22  C   -0.221449
    23  C   -0.173051
    24  C    0.155411
    25  C   -0.170154
    26  C   -0.219020
    27  H    0.225589
    28  H    0.223850
    29  H    0.285344
    30  H    0.275511
    31  H    0.223364
    32  N    0.488328
    33  O   -0.460133
    34  O   -0.461250
 Sum of Mulliken charges =  -0.00000

 Dipole moment (field-independent basis, Debye):
    X=             -1.7846    Y=              4.7621    Z=              0.4915  Tot=              5.1092
 Quadrupole moment (field-independent basis, Debye-Ang):
   XX=            -80.8518   YY=            -96.4525   ZZ=            -94.8423
   XY=            -14.8094   XZ=             -1.8943   YZ=             -1.3544

 Normal termination of Gaussian 16 at Thu May  6 18:52:51 2021.
