 Gaussian 16, Revision A.03,
 Gaussian 16:  EM64L-G16RevA.03 25-Dec-2016

 -------------
 #p 6-31g* mp2
 -------------

 ------------------------------------------------------
 Input file generated by CHIRIPA (05-May-2021 14:51:07)
 ------------------------------------------------------
 Symbolic Z-matrix:
 Charge =  0 Multiplicity = 1

                         Standard orientation:
 ---------------------------------------------------------------------
 Center     Atomic      Atomic             Coordinates (Angstroms)
 Number     Number       Type             X           Y           Z
 ---------------------------------------------------------------------
      1          6           0       -3.165627    0.009200   -0.293934
      2          6           0       -4.435382   -0.614293   -0.874419
      3          6           0       -4.858016    0.027390   -2.196318
      4          1           0       -3.328188    1.085496   -0.145252
      5          1           0       -2.351327   -0.085790   -1.025567
      6          1           0       -5.246692   -0.519389   -0.141354
      7          1           0       -4.269845   -1.689265   -1.021558
      8          1           0       -4.067926   -0.079832   -2.946559
      9          1           0       -5.050323    1.096691   -2.061354
     10          1           0       -5.767812   -0.433452   -2.593503
     11          6           0       -2.730447   -0.621694    1.027549
     12          6           0       -1.460692    0.001800    1.608035
     13          6           0       -1.038058   -0.639884    2.929934
     14          1           0       -3.544747   -0.526704    1.759182
     15          1           0       -2.567886   -1.697990    0.878868
     16          1           0       -1.626229    1.076771    1.755173
     17          1           0       -0.649382   -0.093105    0.874970
     18          1           0       -0.845751   -1.709185    2.794970
     19          1           0       -1.828148   -0.532661    3.680175
     20          1           0       -0.128262   -0.179042    3.327119
     21          6           0        2.813045    1.008198   -0.636016
     22          6           0        2.091427    1.912616    0.363623
     23          6           0        1.828450    3.313578   -0.189500
     24          1           0        3.765117    1.475470   -0.922656
     25          1           0        2.212399    0.934520   -1.553181
     26          1           0        2.692592    1.983456    1.279155
     27          1           0        1.141051    1.443047    0.648062
     28          1           0        1.209166    3.261905   -1.090843
     29          1           0        2.769523    3.805384   -0.456164
     30          1           0        1.311780    3.943341    0.541463
     31          6           0        3.083029   -0.395705   -0.097599
     32          6           0        3.804647   -1.300123   -1.097239
     33          6           0        4.067624   -2.701084   -0.544115
     34          1           0        3.683675   -0.322026    0.819565
     35          1           0        2.130957   -0.862976    0.189040
     36          1           0        4.755023   -0.830553   -1.381677
     37          1           0        3.203482   -1.370961   -2.012770
     38          1           0        3.126551   -3.192890   -0.277452
     39          1           0        4.686908   -2.649411    0.357227
     40          1           0        4.584294   -3.330848   -1.275079
 ---------------------------------------------------------------------

 SCF Done:  E(RHF) =  -470.733162111     A.U. after   11 cycles
 E2 =    -0.1583229726D+01 EUMP2 =    -0.47231639183676D+03

 The electronic state is 1-A.
 Alpha  occ. eigenvalues --  -11.21659 -11.21639 -11.21613 -11.21505 -11.21455
 Alpha  occ. eigenvalues --  -11.21403 -11.21395 -11.21337 -11.21102 -11.21102
 Alpha  occ. eigenvalues --  -11.21083 -11.21026  -1.08488  -1.08412  -1.03586
 Alpha  occ. eigenvalues --   -1.03499  -0.96019  -0.95963  -0.87036  -0.86978
 Alpha  occ. eigenvalues --   -0.79714  -0.79522  -0.78365  -0.78161  -0.65192
 Alpha  occ. eigenvalues --   -0.64986  -0.61025  -0.60872  -0.59433  -0.59284
 Alpha  occ. eigenvalues --   -0.57645  -0.57557  -0.55308  -0.55250  -0.52715
 Alpha  occ. eigenvalues --   -0.52651  -0.52443  -0.52387  -0.49980  -0.49899
 Alpha  occ. eigenvalues --   -0.48117  -0.47810  -0.46817  -0.46546  -0.46040
 Alpha  occ. eigenvalues --   -0.45788  -0.45737  -0.45298  -0.43824  -0.43765
 Alpha virt. eigenvalues --    0.20711   0.23237   0.23853   0.24428   0.25699
 Alpha virt. eigenvalues --    0.26728   0.26976   0.27858   0.28026   0.29104
 Alpha virt. eigenvalues --    0.30650   0.31378   0.31579   0.31902   0.32108

 Mulliken charges:
               1
     1  C   -0.298352
     2  C   -0.299672
     3  C   -0.475734
     4  H    0.149933
     5  H    0.148843
     6  H    0.152125
     7  H    0.151975
     8  H    0.155090
     9  H    0.155314
    10  H    0.160418
    11  C   -0.297414
    12  C   -0.305892
    13  C   -0.476329
    14  H    0.149850
    15  H    0.149557
    16  H    0.152522
    17  H    0.156097
    18  H    0.155080
    19  H    0.155468
    20  H    0.161769
    21  C   -0.297649
    22  C   -0.309417
    23  C   -0.475008
    24  H    0.149633
    25  H    0.148825
    26  H    0.151104
    27  H    0.163115
    28  H    0.155024
    29  H    0.154810
    30  H    0.159853
    31  C   -0.300585
    32  C   -0.299572
    33  C   -0.475635
    34  H    0.149790
    35  H    0.150678
    36  H    0.152196
    37  H    0.151677
    38  H    0.154904
    39  H    0.155344
    40  H    0.160266
 Sum of Mulliken charges =  -0.00000

 Dipole moment (field-independent basis, Debye):
    X=             -0.0311    Y=             -0.0072    Z=              0.0224  Tot=              0.0390
 Quadrupole moment (field-independent basis, Debye-Ang):
   XX=            -83.8940   YY=            -85.5263   ZZ=            -85.3511
   XY=              0.2690   XZ=             -0.4430   YZ=              1.0972

 Normal termination of Gaussian 16 at Thu May  6 09:59:21 2021.
