 Gaussian 16, Revision A.03,
 Gaussian 16:  EM64L-G16RevA.03 25-Dec-2016

 -------------
 #p 6-31g* mp2
 -------------

 ------------------------------------------------------
 Input file generated by CHIRIPA (05-May-2021 14:51:09)
 ------------------------------------------------------
 Symbolic Z-matrix:
 Charge =  0 Multiplicity = 1

                         Standard orientation:
 ---------------------------------------------------------------------
 Center     Atomic      Atomic             Coordinates (Angstroms)
 Number     Number       Type             X           Y           Z
 ---------------------------------------------------------------------
      1          6           0        2.276166   -1.457970   -0.407217
      2          6           0        1.089309   -2.245413    0.148922
      3          6           0        0.810036   -3.527134   -0.636566
      4          1           0        2.082543   -1.209832   -1.459777
      5          1           0        3.169355   -2.097881   -0.396137
      6          1           0        0.198930   -1.603756    0.138083
      7          1           0        1.285697   -2.491539    1.200335
      8          1           0        1.681455   -4.189540   -0.615387
      9          1           0        0.588513   -3.296713   -1.683674
     10          1           0       -0.042285   -4.074417   -0.221970
     11          6           0        2.567798   -0.174025    0.367486
     12          6           0        3.754655    0.613417   -0.188652
     13          6           0        4.033928    1.895139    0.596835
     14          1           0        1.674609    0.465885    0.356406
     15          1           0        2.761421   -0.422163    1.420046
     16          1           0        3.558267    0.859544   -1.240066
     17          1           0        4.645034   -0.028239   -0.177814
     18          1           0        4.255451    1.664717    1.643943
     19          1           0        3.162509    2.557545    0.575656
     20          1           0        4.886249    2.442422    0.182239
     21          6           0       -2.537427    0.206824    0.465974
     22          6           0       -3.301070   -0.919458   -0.231394
     23          6           0       -3.524245   -2.131236    0.673913
     24          1           0       -1.568286   -0.176362    0.813651
     25          1           0       -3.091630    0.515397    1.363213
     26          1           0       -2.746291   -1.224870   -1.127809
     27          1           0       -4.268426   -0.533495   -0.577621
     28          1           0       -4.097678   -1.847891    1.562446
     29          1           0       -2.566894   -2.543194    1.009132
     30          1           0       -4.071920   -2.924337    0.155353
     31          6           0       -2.306537    1.425171   -0.426243
     32          6           0       -1.542894    2.551454    0.271125
     33          6           0       -1.319719    3.763231   -0.634182
     34          1           0       -1.752335    1.116599   -1.323483
     35          1           0       -3.275678    1.808357   -0.773920
     36          1           0       -0.575539    2.165491    0.617351
     37          1           0       -2.097675    2.856865    1.167540
     38          1           0       -2.277070    4.175189   -0.969401
     39          1           0       -0.746286    3.479887   -1.522715
     40          1           0       -0.772044    4.556332   -0.115623
 ---------------------------------------------------------------------

 SCF Done:  E(RHF) =  -470.733287039     A.U. after   11 cycles
 E2 =    -0.1584189589D+01 EUMP2 =    -0.47231747662763D+03

 The electronic state is 1-A.
 Alpha  occ. eigenvalues --  -11.21661 -11.21652 -11.21649 -11.21619 -11.21475
 Alpha  occ. eigenvalues --  -11.21435 -11.21415 -11.21364 -11.21127 -11.21115
 Alpha  occ. eigenvalues --  -11.21101 -11.21073  -1.08516  -1.08446  -1.03605
 Alpha  occ. eigenvalues --   -1.03541  -0.96035  -0.96003  -0.87062  -0.87009
 Alpha  occ. eigenvalues --   -0.79684  -0.79595  -0.78403  -0.78192  -0.65371
 Alpha  occ. eigenvalues --   -0.64881  -0.61165  -0.60800  -0.59419  -0.59342
 Alpha  occ. eigenvalues --   -0.57652  -0.57604  -0.55325  -0.55293  -0.52723
 Alpha  occ. eigenvalues --   -0.52700  -0.52500  -0.52391  -0.50062  -0.49877
 Alpha  occ. eigenvalues --   -0.48051  -0.47871  -0.46838  -0.46559  -0.46257
 Alpha  occ. eigenvalues --   -0.45817  -0.45779  -0.45204  -0.43841  -0.43811
 Alpha virt. eigenvalues --    0.19139   0.21538   0.23848   0.25063   0.25512
 Alpha virt. eigenvalues --    0.26292   0.26819   0.27309   0.28776   0.29360
 Alpha virt. eigenvalues --    0.31038   0.31288   0.31666   0.31673   0.32069

 Mulliken charges:
               1
     1  C   -0.297599
     2  C   -0.309391
     3  C   -0.476167
     4  H    0.149391
     5  H    0.150080
     6  H    0.160565
     7  H    0.152121
     8  H    0.155563
     9  H    0.155039
    10  H    0.161384
    11  C   -0.303178
    12  C   -0.299486
    13  C   -0.475983
    14  H    0.152758
    15  H    0.150088
    16  H    0.151953
    17  H    0.152286
    18  H    0.155312
    19  H    0.155409
    20  H    0.160508
    21  C   -0.305447
    22  C   -0.299749
    23  C   -0.477777
    24  H    0.155514
    25  H    0.150183
    26  H    0.152024
    27  H    0.152185
    28  H    0.155237
    29  H    0.157247
    30  H    0.160323
    31  C   -0.297968
    32  C   -0.303937
    33  C   -0.475668
    34  H    0.148759
    35  H    0.150102
    36  H    0.154876
    37  H    0.152575
    38  H    0.155535
    39  H    0.154872
    40  H    0.160461
 Sum of Mulliken charges =  -0.00000

 Dipole moment (field-independent basis, Debye):
    X=              0.0074    Y=             -0.0058    Z=              0.0108  Tot=              0.0143
 Quadrupole moment (field-independent basis, Debye-Ang):
   XX=            -83.6717   YY=            -86.1257   ZZ=            -84.7974
   XY=             -1.2554   XZ=              0.0749   YZ=             -0.1308

 Normal termination of Gaussian 16 at Thu May  6 02:10:33 2021.
