 Gaussian 16, Revision A.03,
 Gaussian 16:  EM64L-G16RevA.03 25-Dec-2016

 -------------
 #p 6-31g* mp2
 -------------

 ------------------------------------------------------
 Input file generated by CHIRIPA (05-May-2021 14:51:09)
 ------------------------------------------------------
 Symbolic Z-matrix:
 Charge =  0 Multiplicity = 1

                         Standard orientation:
 ---------------------------------------------------------------------
 Center     Atomic      Atomic             Coordinates (Angstroms)
 Number     Number       Type             X           Y           Z
 ---------------------------------------------------------------------
      1          6           0       -3.268632   -0.401926    0.270283
      2          6           0       -4.141679    0.002361   -0.918131
      3          6           0       -5.311475    0.900136   -0.513939
      4          1           0       -3.889787   -0.919323    1.014199
      5          1           0       -2.884775    0.504095    0.759338
      6          1           0       -4.522653   -0.904180   -1.405632
      7          1           0       -3.518335    0.518687   -1.659390
      8          1           0       -4.947033    1.820865   -0.046991
      9          1           0       -5.957057    0.389913    0.208209
     10          1           0       -5.922427    1.177141   -1.378732
     11          6           0       -2.095001   -1.299536   -0.117807
     12          6           0       -1.221954   -1.703823    1.070606
     13          6           0       -0.052158   -2.601598    0.666415
     14          1           0       -2.478859   -2.205557   -0.606862
     15          1           0       -1.473846   -0.782139   -0.861724
     16          1           0       -1.845299   -2.220149    1.811866
     17          1           0       -0.840980   -0.797281    1.558107
     18          1           0        0.593423   -2.091375   -0.055734
     19          1           0       -0.416601   -3.522327    0.199467
     20          1           0        0.558793   -2.878602    1.531208
     21          6           0        3.379836    0.555086    0.017548
     22          6           0        3.599607   -0.740582   -0.764073
     23          6           0        5.000710   -1.319877   -0.566281
     24          1           0        4.130979    1.294556   -0.292150
     25          1           0        3.551192    0.364124    1.085989
     26          1           0        3.426536   -0.547556   -1.830564
     27          1           0        2.847733   -1.476990   -0.452616
     28          1           0        5.180650   -1.540514    0.490858
     29          1           0        5.762742   -0.605799   -0.894920
     30          1           0        5.136131   -2.245782   -1.133927
     31          6           0        1.983798    1.146376   -0.170024
     32          6           0        1.764026    2.442044    0.611597
     33          6           0        0.362924    3.021339    0.413806
     34          1           0        1.812442    1.337338   -1.238465
     35          1           0        1.232655    0.406906    0.139674
     36          1           0        2.515900    3.178451    0.300141
     37          1           0        1.937098    2.249018    1.678088
     38          1           0       -0.399108    2.307261    0.742444
     39          1           0        0.182984    3.241976   -0.643333
     40          1           0        0.227503    3.947244    0.981451
 ---------------------------------------------------------------------

 SCF Done:  E(RHF) =  -470.732927252     A.U. after   11 cycles
 E2 =    -0.1584423582D+01 EUMP2 =    -0.47231735083405D+03

 The electronic state is 1-A.
 Alpha  occ. eigenvalues --  -11.21662 -11.21653 -11.21593 -11.21573 -11.21430
 Alpha  occ. eigenvalues --  -11.21420 -11.21367 -11.21361 -11.21150 -11.21104
 Alpha  occ. eigenvalues --  -11.21056 -11.21055  -1.08490  -1.08423  -1.03560
 Alpha  occ. eigenvalues --   -1.03552  -0.96025  -0.95987  -0.87048  -0.86999
 Alpha  occ. eigenvalues --   -0.79675  -0.79571  -0.78310  -0.78237  -0.65339
 Alpha  occ. eigenvalues --   -0.64873  -0.60975  -0.60943  -0.59381  -0.59369
 Alpha  occ. eigenvalues --   -0.57626  -0.57604  -0.55410  -0.55191  -0.52721
 Alpha  occ. eigenvalues --   -0.52690  -0.52443  -0.52414  -0.50066  -0.49871
 Alpha  occ. eigenvalues --   -0.48010  -0.47904  -0.46829  -0.46531  -0.46005
 Alpha  occ. eigenvalues --   -0.45772  -0.45694  -0.45387  -0.43807  -0.43805
 Alpha virt. eigenvalues --    0.19168   0.22478   0.23961   0.24230   0.25648
 Alpha virt. eigenvalues --    0.26265   0.26918   0.27716   0.28643   0.29514
 Alpha virt. eigenvalues --    0.30852   0.31608   0.31666   0.31932   0.32172

 Mulliken charges:
               1
     1  C   -0.300194
     2  C   -0.299603
     3  C   -0.475849
     4  H    0.149670
     5  H    0.150957
     6  H    0.151835
     7  H    0.152486
     8  H    0.155624
     9  H    0.155021
    10  H    0.160248
    11  C   -0.299746
    12  C   -0.301452
    13  C   -0.484252
    14  H    0.149793
    15  H    0.151595
    16  H    0.152720
    17  H    0.151963
    18  H    0.163079
    19  H    0.156029
    20  H    0.159794
    21  C   -0.297465
    22  C   -0.307443
    23  C   -0.475168
    24  H    0.149747
    25  H    0.149494
    26  H    0.151311
    27  H    0.159959
    28  H    0.155177
    29  H    0.154993
    30  H    0.160373
    31  C   -0.306903
    32  C   -0.299219
    33  C   -0.478332
    34  H    0.149112
    35  H    0.157917
    36  H    0.152440
    37  H    0.152054
    38  H    0.156112
    39  H    0.155332
    40  H    0.160791
 Sum of Mulliken charges =  -0.00000

 Dipole moment (field-independent basis, Debye):
    X=             -0.0038    Y=             -0.0119    Z=             -0.0092  Tot=              0.0155
 Quadrupole moment (field-independent basis, Debye-Ang):
   XX=            -86.0820   YY=            -84.4863   ZZ=            -84.1596
   XY=              1.7682   XZ=             -0.2373   YZ=             -0.6064

 Normal termination of Gaussian 16 at Wed May  5 22:58:43 2021.
