 Gaussian 16, Revision A.03,
 Gaussian 16:  EM64L-G16RevA.03 25-Dec-2016

 -------------
 #p 6-31g* mp2
 -------------

 ------------------------------------------------------
 Input file generated by CHIRIPA (05-May-2021 14:55:20)
 ------------------------------------------------------
 Symbolic Z-matrix:
 Charge =  0 Multiplicity = 1

                         Standard orientation:
 ---------------------------------------------------------------------
 Center     Atomic      Atomic             Coordinates (Angstroms)
 Number     Number       Type             X           Y           Z
 ---------------------------------------------------------------------
      1          6           0        2.100619   -2.477230    1.120585
      2          6           0        1.062611   -2.181482    0.230869
      3          6           0        1.099363   -1.016368   -0.540951
      4          6           0        2.194183   -0.165501   -0.397125
      5          6           0        3.243759   -0.432486    0.480598
      6          6           0        3.185967   -1.603329    1.242395
      7          1           0        2.063897   -3.384544    1.716260
      8          1           0        0.218471   -2.858332    0.134192
      9          1           0        0.309346   -0.762988   -1.237435
     10          1           0        4.072121    0.261551    0.555079
     11          1           0        3.993520   -1.830451    1.932553
     12          7           0        2.244228    1.070985   -1.208911
     13          8           0        3.219841    1.804290   -1.063718
     14          8           0        1.306893    1.283426   -1.975010
     15          6           0       -3.429143    0.250999   -0.031633
     16          6           0       -3.466164   -1.249751   -0.322085
     17          6           0       -4.734938   -1.677916   -1.060109
     18          1           0       -4.311190    0.524728    0.563354
     19          1           0       -3.507435    0.802722   -0.978664
     20          1           0       -3.386432   -1.798490    0.625093
     21          1           0       -2.583826   -1.519973   -0.916287
     22          1           0       -4.817213   -1.156513   -2.019260
     23          1           0       -5.624380   -1.436611   -0.469122
     24          1           0       -4.740601   -2.754408   -1.257572
     25          6           0       -2.166851    0.694382    0.705767
     26          6           0       -2.129830    2.195132    0.996218
     27          6           0       -0.861056    2.623296    1.734243
     28          1           0       -2.088558    0.142659    1.652797
     29          1           0       -1.284803    0.420652    0.110779
     30          1           0       -3.012167    2.465354    1.590421
     31          1           0       -2.209562    2.743870    0.049040
     32          1           0        0.028387    2.381991    1.143255
     33          1           0       -0.778779    2.101893    2.693393
     34          1           0       -0.855392    3.699789    1.931706
 ---------------------------------------------------------------------

 SCF Done:  E(RHF) =  -669.535082146     A.U. after   15 cycles
 E2 =    -0.2093574095D+01 EUMP2 =    -0.67162865624176D+03

 The electronic state is 1-A.
 Alpha  occ. eigenvalues --  -20.60857 -20.60850 -15.85901 -11.31219 -11.27782
 Alpha  occ. eigenvalues --  -11.27776 -11.27513 -11.26783 -11.26764 -11.22070
 Alpha  occ. eigenvalues --  -11.21511 -11.21402 -11.21385 -11.21339 -11.20806
 Alpha  occ. eigenvalues --   -1.59928  -1.39482  -1.19391  -1.08792  -1.08526
 Alpha  occ. eigenvalues --   -1.04787  -1.03595  -0.96027  -0.95635  -0.87050
 Alpha  occ. eigenvalues --   -0.86190  -0.82466  -0.79705  -0.78363  -0.77498
 Alpha  occ. eigenvalues --   -0.72116  -0.71254  -0.70515  -0.65213  -0.65041
 Alpha  occ. eigenvalues --   -0.64742  -0.62136  -0.60982  -0.59427  -0.57645
 Alpha  occ. eigenvalues --   -0.55356  -0.55239  -0.53146  -0.52895  -0.52735
 Alpha  occ. eigenvalues --   -0.52422  -0.49974  -0.48879  -0.48869  -0.48012
 Alpha  occ. eigenvalues --   -0.46749  -0.45883  -0.45751  -0.44849  -0.43846
 Alpha  occ. eigenvalues --   -0.37357  -0.36323
 Alpha virt. eigenvalues --    0.04976   0.11180   0.16481   0.19795   0.22975
 Alpha virt. eigenvalues --    0.24016   0.25108   0.26675   0.27681   0.28059
 Alpha virt. eigenvalues --    0.29575   0.30949   0.31238   0.31763   0.32448

 Mulliken charges:
               1
     1  C   -0.170728
     2  C   -0.218530
     3  C   -0.171304
     4  C    0.158667
     5  C   -0.170882
     6  C   -0.218305
     7  H    0.225773
     8  H    0.225291
     9  H    0.276215
    10  H    0.275743
    11  H    0.223562
    12  N    0.488772
    13  O   -0.459392
    14  O   -0.462068
    15  C   -0.298754
    16  C   -0.299469
    17  C   -0.475573
    18  H    0.150680
    19  H    0.154622
    20  H    0.149620
    21  H    0.141847
    22  H    0.158513
    23  H    0.157268
    24  H    0.158569
    25  C   -0.303011
    26  C   -0.299332
    27  C   -0.475072
    28  H    0.145939
    29  H    0.152069
    30  H    0.149920
    31  H    0.159062
    32  H    0.156767
    33  H    0.151158
    34  H    0.162365
 Sum of Mulliken charges =  -0.00000

 Dipole moment (field-independent basis, Debye):
    X=             -0.1758    Y=             -4.2611    Z=              2.8343  Tot=              5.1207
 Quadrupole moment (field-independent basis, Debye-Ang):
   XX=            -92.0389   YY=            -93.6655   ZZ=            -96.4273
   XY=             -8.9931   XZ=              7.8952   YZ=              1.2389

 Normal termination of Gaussian 16 at Wed May  5 17:23:26 2021.
