 Gaussian 16, Revision A.03,
 Gaussian 16:  EM64L-G16RevA.03 25-Dec-2016

 -------------
 #p 6-31g* mp2
 -------------

 ------------------------------------------------------
 Input file generated by CHIRIPA (05-May-2021 14:57:23)
 ------------------------------------------------------
 Symbolic Z-matrix:
 Charge =  0 Multiplicity = 1

                         Standard orientation:
 ---------------------------------------------------------------------
 Center     Atomic      Atomic             Coordinates (Angstroms)
 Number     Number       Type             X           Y           Z
 ---------------------------------------------------------------------
      1          6           0       -6.291775   -0.958525    0.066918
      2          6           0       -6.208182    0.376526   -0.341951
      3          6           0       -4.969350    1.020271   -0.415673
      4          6           0       -3.829230    0.295650   -0.071666
      5          6           0       -3.879889   -1.035434    0.339355
      6          6           0       -5.129411   -1.659009    0.405668
      7          1           0       -7.258282   -1.450767    0.121309
      8          1           0       -7.109227    0.923001   -0.605631
      9          1           0       -4.875846    2.052992   -0.728982
     10          1           0       -2.964167   -1.554157    0.595867
     11          1           0       -5.191312   -2.695913    0.723539
     12          7           0       -2.512075    0.966477   -0.145791
     13          8           0       -1.522415    0.306108    0.162630
     14          8           0       -2.494289    2.139938   -0.510907
     15          6           0        6.477023    0.405526   -0.270317
     16          6           0        5.969617   -0.788505   -0.793150
     17          6           0        4.624451   -1.125964   -0.616519
     18          6           0        3.811321   -0.242188    0.091330
     19          6           0        4.287207    0.954793    0.624302
     20          6           0        5.635682    1.271836    0.435496
     21          1           0        7.523265    0.659741   -0.412258
     22          1           0        6.620691   -1.463202   -1.341722
     23          1           0        4.205468   -2.043865   -1.010636
     24          1           0        3.613704    1.607242    1.166633
     25          1           0        6.026997    2.199814    0.842650
     26          7           0        2.385503   -0.588634    0.284766
     27          8           0        1.689801    0.206963    0.912190
     28          8           0        1.990646   -1.649215   -0.194706
 ---------------------------------------------------------------------

 SCF Done:  E(RHF) =  -868.335135837     A.U. after   16 cycles
 E2 =    -0.2600265092D+01 EUMP2 =    -0.87093540092877D+03

 The electronic state is 1-A.
 Alpha  occ. eigenvalues --  -20.59684 -20.59570 -20.59556 -20.59423 -15.84693
 Alpha  occ. eigenvalues --  -15.84539 -11.30402 -11.30259 -11.27034 -11.26989
 Alpha  occ. eigenvalues --  -11.26912 -11.26833 -11.26822 -11.26713 -11.26125
 Alpha  occ. eigenvalues --  -11.26096 -11.26002 -11.25955  -1.58691  -1.58579
 Alpha  occ. eigenvalues --   -1.38242  -1.38113  -1.18610  -1.18476  -1.07942
 Alpha  occ. eigenvalues --   -1.07813  -1.04065  -1.03927  -0.94724  -0.94572
 Alpha  occ. eigenvalues --   -0.85448  -0.85310  -0.81558  -0.81392  -0.76539
 Alpha  occ. eigenvalues --   -0.76389  -0.70989  -0.70639  -0.70028  -0.69930
 Alpha  occ. eigenvalues --   -0.69722  -0.69584  -0.64257  -0.64121  -0.64067
 Alpha  occ. eigenvalues --   -0.63938  -0.61409  -0.61263  -0.54563  -0.54436
 Alpha  occ. eigenvalues --   -0.52376  -0.52247  -0.52165  -0.52024  -0.47852
 Alpha  occ. eigenvalues --   -0.47664  -0.47523  -0.47277  -0.43561  -0.43445
 Alpha  occ. eigenvalues --   -0.36614  -0.36490  -0.35684  -0.35549
 Alpha virt. eigenvalues --    0.06009   0.06142   0.11964   0.12099   0.17435
 Alpha virt. eigenvalues --    0.17563   0.22043   0.22186   0.27930   0.28076
 Alpha virt. eigenvalues --    0.28970   0.29134   0.31564   0.31707   0.33241

 Mulliken charges:
               1
     1  C   -0.172076
     2  C   -0.218850
     3  C   -0.171986
     4  C    0.158247
     5  C   -0.171834
     6  C   -0.219022
     7  H    0.222301
     8  H    0.220074
     9  H    0.273429
    10  H    0.282125
    11  H    0.221647
    12  N    0.485842
    13  O   -0.441080
    14  O   -0.469311
    15  C   -0.172019
    16  C   -0.218589
    17  C   -0.171749
    18  C    0.159453
    19  C   -0.170923
    20  C   -0.218620
    21  H    0.222823
    22  H    0.220570
    23  H    0.273676
    24  H    0.277636
    25  H    0.221641
    26  N    0.487164
    27  O   -0.444573
    28  O   -0.465995
 Sum of Mulliken charges =  -0.00000

 Dipole moment (field-independent basis, Debye):
    X=              0.4706    Y=             -1.1479    Z=             -0.2874  Tot=              1.2734
 Quadrupole moment (field-independent basis, Debye-Ang):
   XX=            -34.5811   YY=           -100.5299   ZZ=           -104.7449
   XY=              8.9482   XZ=             -2.4769   YZ=              1.6024

 Normal termination of Gaussian 16 at Wed May  5 17:51:14 2021.
