 Gaussian 16, Revision A.03,
 Gaussian 16:  EM64L-G16RevA.03 25-Dec-2016

 -------------
 #p 6-31g* mp2
 -------------

 ------------------------------------------------------
 Input file generated by CHIRIPA (05-May-2021 14:53:16)
 ------------------------------------------------------
 Symbolic Z-matrix:
 Charge =  0 Multiplicity = 1

                         Standard orientation:
 ---------------------------------------------------------------------
 Center     Atomic      Atomic             Coordinates (Angstroms)
 Number     Number       Type             X           Y           Z
 ---------------------------------------------------------------------
      1          6           0        3.092789    0.941469   -0.256266
      2          6           0        2.596095    2.055325    0.666017
      3          6           0        1.460985    2.872315    0.048082
      4          1           0        3.430326    1.382290   -1.204259
      5          1           0        2.253068    0.276771   -0.502111
      6          1           0        3.436804    2.716935    0.911163
      7          1           0        2.259880    1.611820    1.611997
      8          1           0        0.604363    2.230079   -0.180681
      9          1           0        1.787974    3.341473   -0.885497
     10          1           0        1.121200    3.662998    0.724268
     11          6           0        4.227522    0.115905    0.347515
     12          6           0        4.724215   -0.997951   -0.574769
     13          6           0        5.859326   -1.814941    0.043167
     14          1           0        5.067243    0.780603    0.593360
     15          1           0        3.889984   -0.324916    1.295508
     16          1           0        5.060431   -0.554446   -1.520749
     17          1           0        3.883507   -1.659561   -0.819914
     18          1           0        5.532336   -2.284099    0.976746
     19          1           0        6.715948   -1.172705    0.271930
     20          1           0        6.199111   -2.605623   -0.633019
     21          6           0       -3.782626    1.930730   -0.178878
     22          6           0       -4.639419    0.855433    0.078345
     23          6           0       -4.138955   -0.447425    0.159864
     24          6           0       -2.770252   -0.639623   -0.021796
     25          6           0       -1.891087    0.411088   -0.279415
     26          6           0       -2.413608    1.705522   -0.356624
     27          1           0       -4.179965    2.939548   -0.240530
     28          1           0       -5.703052    1.027356    0.216808
     29          1           0       -4.779738   -1.298088    0.357815
     30          1           0       -0.835403    0.208344   -0.412989
     31          1           0       -1.745850    2.538703   -0.556511
     32          7           0       -2.228758   -2.014442    0.062222
     33          8           0       -1.019047   -2.157291   -0.101579
     34          8           0       -3.024299   -2.923143    0.290287
 ---------------------------------------------------------------------

 SCF Done:  E(RHF) =  -669.535120215     A.U. after   15 cycles
 E2 =    -0.2092013958D+01 EUMP2 =    -0.67162713417306D+03

 The electronic state is 1-A.
 Alpha  occ. eigenvalues --  -20.60785 -20.60779 -15.85835 -11.31175 -11.27734
 Alpha  occ. eigenvalues --  -11.27725 -11.27462 -11.26749 -11.26691 -11.22009
 Alpha  occ. eigenvalues --  -11.21904 -11.21553 -11.21388 -11.21311 -11.20828
 Alpha  occ. eigenvalues --   -1.59858  -1.39413  -1.19339  -1.08737  -1.08540
 Alpha  occ. eigenvalues --   -1.04746  -1.03692  -0.96181  -0.95580  -0.87214
 Alpha  occ. eigenvalues --   -0.86135  -0.82422  -0.79785  -0.78291  -0.77465
 Alpha  occ. eigenvalues --   -0.72056  -0.71179  -0.70461  -0.65191  -0.64983
 Alpha  occ. eigenvalues --   -0.64746  -0.62209  -0.61006  -0.59581  -0.57745
 Alpha  occ. eigenvalues --   -0.55516  -0.55196  -0.53074  -0.52990  -0.52754
 Alpha  occ. eigenvalues --   -0.52568  -0.50123  -0.48811  -0.48807  -0.48082
 Alpha  occ. eigenvalues --   -0.46781  -0.45846  -0.45710  -0.44824  -0.43917
 Alpha  occ. eigenvalues --   -0.37316  -0.36333
 Alpha virt. eigenvalues --    0.05059   0.11315   0.16541   0.19657   0.22720
 Alpha virt. eigenvalues --    0.23997   0.25531   0.26179   0.27187   0.28237
 Alpha virt. eigenvalues --    0.29548   0.30097   0.31317   0.31431   0.32113

 Mulliken charges:
               1
     1  C   -0.302296
     2  C   -0.300002
     3  C   -0.481340
     4  H    0.149302
     5  H    0.154019
     6  H    0.154412
     7  H    0.155670
     8  H    0.145674
     9  H    0.158219
    10  H    0.161216
    11  C   -0.298429
    12  C   -0.301557
    13  C   -0.476008
    14  H    0.148393
    15  H    0.152983
    16  H    0.150226
    17  H    0.159255
    18  H    0.157109
    19  H    0.153333
    20  H    0.161181
    21  C   -0.170996
    22  C   -0.218666
    23  C   -0.170880
    24  C    0.158908
    25  C   -0.176797
    26  C   -0.222105
    27  H    0.225739
    28  H    0.223361
    29  H    0.275412
    30  H    0.278883
    31  H    0.229329
    32  N    0.488535
    33  O   -0.461917
    34  O   -0.460166
 Sum of Mulliken charges =  -0.00000

 Dipole moment (field-independent basis, Debye):
    X=             -1.7882    Y=              4.7943    Z=             -0.2611  Tot=              5.1236
 Quadrupole moment (field-independent basis, Debye-Ang):
   XX=            -79.8241   YY=           -100.9208   ZZ=            -95.3800
   XY=             -9.6684   XZ=             -0.5380   YZ=             -0.3006

 Normal termination of Gaussian 16 at Thu May  6 12:13:40 2021.
