 Gaussian 16, Revision A.03,
 Gaussian 16:  EM64L-G16RevA.03 25-Dec-2016

 -------------
 #p 6-31g* mp2
 -------------

 ------------------------------------------------------
 Input file generated by CHIRIPA (05-May-2021 14:51:10)
 ------------------------------------------------------
 Symbolic Z-matrix:
 Charge =  0 Multiplicity = 1

                         Standard orientation:
 ---------------------------------------------------------------------
 Center     Atomic      Atomic             Coordinates (Angstroms)
 Number     Number       Type             X           Y           Z
 ---------------------------------------------------------------------
      1          6           0       -3.561416   -0.204163    0.124086
      2          6           0       -3.822331   -1.254652   -0.955905
      3          6           0       -4.387869   -2.557266   -0.389197
      4          1           0       -2.864068   -0.616036    0.866387
      5          1           0       -4.499168    0.003678    0.657768
      6          1           0       -2.884659   -1.459436   -1.488306
      7          1           0       -4.518989   -0.840162   -1.695825
      8          1           0       -5.336686   -2.373703    0.125246
      9          1           0       -3.693070   -2.996495    0.333944
     10          1           0       -4.566870   -3.294132   -1.178403
     11          6           0       -2.995908    1.103637   -0.426903
     12          6           0       -2.734993    2.154126    0.653087
     13          6           0       -2.169454    3.456739    0.086379
     14          1           0       -2.058155    0.895795   -0.960585
     15          1           0       -3.693256    1.515509   -1.169205
     16          1           0       -2.038334    1.739636    1.393007
     17          1           0       -3.672665    2.358909    1.185488
     18          1           0       -2.864254    3.895968   -0.636762
     19          1           0       -1.220637    3.273176   -0.428064
     20          1           0       -1.990453    4.193606    0.875585
     21          6           0        3.734657   -0.004617   -0.269742
     22          6           0        5.222304   -0.232572    0.000314
     23          6           0        6.121798    0.665228   -0.849779
     24          1           0        3.530506   -0.181509   -1.334626
     25          1           0        3.491159    1.049152   -0.075638
     26          1           0        5.462633   -1.285911   -0.192911
     27          1           0        5.422901   -0.055302    1.064716
     28          1           0        5.910796    1.720951   -0.650964
     29          1           0        5.950753    0.483351   -1.915737
     30          1           0        7.181003    0.485727   -0.640673
     31          6           0        2.822666   -0.894857    0.572560
     32          6           0        1.335020   -0.666902    0.302504
     33          6           0        0.435525   -1.564701    1.152597
     34          1           0        3.066165   -1.948625    0.378456
     35          1           0        3.026818   -0.717965    1.637443
     36          1           0        1.134423   -0.844171   -0.761898
     37          1           0        1.094691    0.386437    0.495729
     38          1           0        0.606571   -1.382824    2.218555
     39          1           0        0.646528   -2.620424    0.953782
     40          1           0       -0.623679   -1.385200    0.943491
 ---------------------------------------------------------------------

 SCF Done:  E(RHF) =  -470.733382092     A.U. after   11 cycles
 E2 =    -0.1583139292D+01 EUMP2 =    -0.47231652138372D+03

 The electronic state is 1-A.
 Alpha  occ. eigenvalues --  -11.21688 -11.21631 -11.21601 -11.21598 -11.21455
 Alpha  occ. eigenvalues --  -11.21398 -11.21393 -11.21338 -11.21142 -11.21093
 Alpha  occ. eigenvalues --  -11.21071 -11.21060  -1.08487  -1.08427  -1.03584
 Alpha  occ. eigenvalues --   -1.03526  -0.96043  -0.95966  -0.87060  -0.86983
 Alpha  occ. eigenvalues --   -0.79652  -0.79585  -0.78299  -0.78237  -0.65131
 Alpha  occ. eigenvalues --   -0.65087  -0.61009  -0.60901  -0.59408  -0.59336
 Alpha  occ. eigenvalues --   -0.57665  -0.57569  -0.55318  -0.55261  -0.52755
 Alpha  occ. eigenvalues --   -0.52668  -0.52477  -0.52362  -0.49970  -0.49915
 Alpha  occ. eigenvalues --   -0.48006  -0.47874  -0.46679  -0.46619  -0.45862
 Alpha  occ. eigenvalues --   -0.45781  -0.45752  -0.45683  -0.43805  -0.43770
 Alpha virt. eigenvalues --    0.19632   0.23033   0.23612   0.24949   0.26220
 Alpha virt. eigenvalues --    0.26487   0.26850   0.27777   0.27984   0.29232
 Alpha virt. eigenvalues --    0.30343   0.31388   0.31762   0.31792   0.32143

 Mulliken charges:
               1
     1  C   -0.304084
     2  C   -0.300141
     3  C   -0.475953
     4  H    0.154097
     5  H    0.150192
     6  H    0.152143
     7  H    0.152128
     8  H    0.155211
     9  H    0.155601
    10  H    0.160226
    11  C   -0.299444
    12  C   -0.300115
    13  C   -0.475968
    14  H    0.151065
    15  H    0.149747
    16  H    0.152394
    17  H    0.151936
    18  H    0.155249
    19  H    0.155379
    20  H    0.160093
    21  C   -0.298361
    22  C   -0.299696
    23  C   -0.475753
    24  H    0.149694
    25  H    0.149626
    26  H    0.152002
    27  H    0.152038
    28  H    0.155283
    29  H    0.155229
    30  H    0.160372
    31  C   -0.298539
    32  C   -0.299721
    33  C   -0.484019
    34  H    0.149813
    35  H    0.149911
    36  H    0.151744
    37  H    0.152110
    38  H    0.155541
    39  H    0.155713
    40  H    0.167258
 Sum of Mulliken charges =  -0.00000

 Dipole moment (field-independent basis, Debye):
    X=              0.0122    Y=             -0.0043    Z=              0.0001  Tot=              0.0129
 Quadrupole moment (field-independent basis, Debye-Ang):
   XX=            -84.5948   YY=            -85.4853   ZZ=            -84.5895
   XY=             -1.2310   XZ=              0.6348   YZ=              1.0569

 Normal termination of Gaussian 16 at Wed May  5 21:23:36 2021.
