 Gaussian 16, Revision A.03,
 Gaussian 16:  EM64L-G16RevA.03 25-Dec-2016

 -------------
 #p 6-31g* mp2
 -------------

 ------------------------------------------------------
 Input file generated by CHIRIPA (05-May-2021 14:55:19)
 ------------------------------------------------------
 Symbolic Z-matrix:
 Charge =  0 Multiplicity = 1

                         Standard orientation:
 ---------------------------------------------------------------------
 Center     Atomic      Atomic             Coordinates (Angstroms)
 Number     Number       Type             X           Y           Z
 ---------------------------------------------------------------------
      1          6           0       -4.620119    0.937093   -0.595127
      2          6           0       -3.554737    1.597054    0.026110
      3          6           0       -2.422661    0.887247    0.437360
      4          6           0       -2.389276   -0.487809    0.210654
      5          6           0       -3.434629   -1.173845   -0.405691
      6          6           0       -4.556776   -0.443815   -0.808669
      7          1           0       -5.495686    1.496343   -0.911382
      8          1           0       -3.601181    2.669414    0.193240
      9          1           0       -1.583661    1.373018    0.920602
     10          1           0       -3.359363   -2.243584   -0.558701
     11          1           0       -5.382675   -0.958985   -1.290889
     12          7           0       -1.196054   -1.249955    0.641647
     13          8           0       -1.191099   -2.460742    0.430443
     14          8           0       -0.288354   -0.622106    1.182502
     15          6           0        3.879741   -0.038992   -0.257509
     16          6           0        3.407294   -1.493097   -0.276432
     17          6           0        4.558585   -2.486719   -0.434661
     18          1           0        4.425325    0.174738   -1.186812
     19          1           0        4.596951    0.095554    0.564016
     20          1           0        2.690139   -1.624529   -1.096816
     21          1           0        2.862606   -1.703334    0.652940
     22          1           0        5.271598   -2.384661    0.389838
     23          1           0        5.098152   -2.305409   -1.369859
     24          1           0        4.198343   -3.520141   -0.445695
     25          6           0        2.740250    0.966221   -0.099922
     26          6           0        3.212697    2.420325   -0.080999
     27          6           0        2.061405    3.413947    0.077229
     28          1           0        2.023040    0.831675   -0.921447
     29          1           0        2.194666    0.752491    0.829381
     30          1           0        3.757385    2.630563   -1.010371
     31          1           0        3.929852    2.551757    0.739385
     32          1           0        1.521839    3.232638    1.012428
     33          1           0        1.348393    3.311890   -0.747270
     34          1           0        2.421648    4.447370    0.088265
 ---------------------------------------------------------------------

 SCF Done:  E(RHF) =  -669.536148009     A.U. after   15 cycles
 E2 =    -0.2091730093D+01 EUMP2 =    -0.67162787810182D+03

 The electronic state is 1-A.
 Alpha  occ. eigenvalues --  -20.60925 -20.60899 -15.85942 -11.31261 -11.27826
 Alpha  occ. eigenvalues --  -11.27815 -11.27563 -11.26833 -11.26820 -11.20945
 Alpha  occ. eigenvalues --  -11.20762 -11.20345 -11.20242 -11.20222 -11.20016
 Alpha  occ. eigenvalues --   -1.59969  -1.39526  -1.19430  -1.08835  -1.07429
 Alpha  occ. eigenvalues --   -1.04825  -1.02642  -0.95679  -0.95127  -0.86226
 Alpha  occ. eigenvalues --   -0.86162  -0.82516  -0.78694  -0.77585  -0.77139
 Alpha  occ. eigenvalues --   -0.72167  -0.71279  -0.70538  -0.65087  -0.64827
 Alpha  occ. eigenvalues --   -0.64065  -0.62171  -0.60052  -0.58516  -0.56701
 Alpha  occ. eigenvalues --   -0.55331  -0.54436  -0.53159  -0.52916  -0.51869
 Alpha  occ. eigenvalues --   -0.51560  -0.49115  -0.48941  -0.48916  -0.47012
 Alpha  occ. eigenvalues --   -0.45703  -0.45157  -0.44668  -0.44391  -0.42849
 Alpha  occ. eigenvalues --   -0.37410  -0.36426
 Alpha virt. eigenvalues --    0.04952   0.11225   0.16436   0.21110   0.23582
 Alpha virt. eigenvalues --    0.24780   0.26915   0.27509   0.27797   0.28911
 Alpha virt. eigenvalues --    0.29149   0.31035   0.31873   0.32359   0.32656

 Mulliken charges:
               1
     1  C   -0.170641
     2  C   -0.218765
     3  C   -0.171002
     4  C    0.157744
     5  C   -0.170840
     6  C   -0.218645
     7  H    0.225891
     8  H    0.224135
     9  H    0.276591
    10  H    0.275680
    11  H    0.223654
    12  N    0.491849
    13  O   -0.459521
    14  O   -0.463069
    15  C   -0.298599
    16  C   -0.300142
    17  C   -0.475814
    18  H    0.143588
    19  H    0.146121
    20  H    0.150278
    21  H    0.169120
    22  H    0.152028
    23  H    0.149960
    24  H    0.160572
    25  C   -0.301677
    26  C   -0.298695
    27  C   -0.475130
    28  H    0.143974
    29  H    0.171048
    30  H    0.148795
    31  H    0.150685
    32  H    0.152892
    33  H    0.150396
    34  H    0.157539
 Sum of Mulliken charges =  -0.00000

 Dipole moment (field-independent basis, Debye):
    X=             -4.4394    Y=              2.5298    Z=             -1.3723  Tot=              5.2907
 Quadrupole moment (field-independent basis, Debye-Ang):
   XX=            -75.8534   YY=            -95.3076   ZZ=            -94.6439
   XY=             -2.0971   XZ=              4.3873   YZ=              2.8289

 Normal termination of Gaussian 16 at Thu May  6 10:48:15 2021.
