 Gaussian 16, Revision A.03,
 Gaussian 16:  EM64L-G16RevA.03 25-Dec-2016

 -------------
 #p 6-31g* mp2
 -------------

 ------------------------------------------------------
 Input file generated by CHIRIPA (05-May-2021 14:57:26)
 ------------------------------------------------------
 Symbolic Z-matrix:
 Charge =  0 Multiplicity = 1

                         Standard orientation:
 ---------------------------------------------------------------------
 Center     Atomic      Atomic             Coordinates (Angstroms)
 Number     Number       Type             X           Y           Z
 ---------------------------------------------------------------------
      1          6           0       -2.834029    1.673710    1.995816
      2          6           0       -3.820057    1.699008    1.004035
      3          6           0       -3.826073    0.742675   -0.015739
      4          6           0       -2.826561   -0.229054   -0.013094
      5          6           0       -1.830659   -0.280690    0.960972
      6          6           0       -1.844222    0.685684    1.971163
      7          1           0       -2.836960    2.420513    2.784279
      8          1           0       -4.589988    2.465150    1.020665
      9          1           0       -4.577514    0.738937   -0.795958
     10          1           0       -1.076158   -1.056763    0.917878
     11          1           0       -1.077211    0.663593    2.740091
     12          7           0       -2.822566   -1.246796   -1.087611
     13          8           0       -1.931015   -2.092469   -1.062894
     14          8           0       -3.711062   -1.179557   -1.934187
     15          6           0        2.503232    2.041514   -1.693634
     16          6           0        3.648764    1.953309   -0.895825
     17          6           0        3.838741    0.860682   -0.044577
     18          6           0        2.858541   -0.130120   -0.016119
     19          6           0        1.706530   -0.070815   -0.798835
     20          6           0        1.537474    1.030952   -1.642682
     21          1           0        2.363780    2.893842   -2.352029
     22          1           0        4.400449    2.736641   -0.933331
     23          1           0        4.716140    0.767183    0.583791
     24          1           0        0.974747   -0.867316   -0.739707
     25          1           0        0.646851    1.096810   -2.261146
     26          7           0        3.048586   -1.291674    0.881141
     27          8           0        2.170227   -2.151368    0.887858
     28          8           0        4.072305   -1.320409    1.560707
 ---------------------------------------------------------------------

 SCF Done:  E(RHF) =  -868.339229428     A.U. after   16 cycles
 E2 =    -0.2600527922D+01 EUMP2 =    -0.87093975734955D+03

 The electronic state is 1-A.
 Alpha  occ. eigenvalues --  -20.61187 -20.61176 -20.60921 -20.60914 -15.86204
 Alpha  occ. eigenvalues --  -15.85954 -11.31449 -11.31220 -11.28018 -11.27923
 Alpha  occ. eigenvalues --  -11.27808 -11.27708 -11.27688 -11.27516 -11.27005
 Alpha  occ. eigenvalues --  -11.26925 -11.26808 -11.26728  -1.60252  -1.59993
 Alpha  occ. eigenvalues --   -1.39806  -1.39547  -1.19610  -1.19391  -1.09029
 Alpha  occ. eigenvalues --   -1.08810  -1.04979  -1.04760  -0.95879  -0.95651
 Alpha  occ. eigenvalues --   -0.86392  -0.86167  -0.82696  -0.82475  -0.77797
 Alpha  occ. eigenvalues --   -0.77508  -0.72413  -0.72164  -0.71585  -0.71323
 Alpha  occ. eigenvalues --   -0.70718  -0.70464  -0.65250  -0.65037  -0.64993
 Alpha  occ. eigenvalues --   -0.64729  -0.62390  -0.62001  -0.55488  -0.55275
 Alpha  occ. eigenvalues --   -0.53374  -0.53113  -0.53060  -0.52790  -0.49184
 Alpha  occ. eigenvalues --   -0.49163  -0.48932  -0.48919  -0.45222  -0.44968
 Alpha  occ. eigenvalues --   -0.37605  -0.37392  -0.36716  -0.36215
 Alpha virt. eigenvalues --    0.04628   0.05002   0.10905   0.11361   0.16209
 Alpha virt. eigenvalues --    0.16469   0.20870   0.21725   0.26247   0.27452
 Alpha virt. eigenvalues --    0.27793   0.28820   0.30504   0.31196   0.31659

 Mulliken charges:
               1
     1  C   -0.170844
     2  C   -0.218972
     3  C   -0.172113
     4  C    0.154971
     5  C   -0.180462
     6  C   -0.219070
     7  H    0.226650
     8  H    0.223648
     9  H    0.275098
    10  H    0.287367
    11  H    0.228654
    12  N    0.487006
    13  O   -0.461121
    14  O   -0.458845
    15  C   -0.171048
    16  C   -0.219163
    17  C   -0.171588
    18  C    0.155974
    19  C   -0.181677
    20  C   -0.219602
    21  H    0.225660
    22  H    0.222905
    23  H    0.274742
    24  H    0.289024
    25  H    0.227065
    26  N    0.487397
    27  O   -0.461499
    28  O   -0.460154
 Sum of Mulliken charges =  -0.00000

 Dipole moment (field-independent basis, Debye):
    X=             -0.7496    Y=              7.6639    Z=              0.6538  Tot=              7.7282
 Quadrupole moment (field-independent basis, Debye-Ang):
   XX=           -102.0037   YY=           -107.0179   ZZ=           -104.5201
   XY=              1.5639   XZ=            -16.7120   YZ=             -0.8159

 Normal termination of Gaussian 16 at Thu May  6 00:26:39 2021.
