 Gaussian 16, Revision A.03,
 Gaussian 16:  EM64L-G16RevA.03 25-Dec-2016

 -------------
 #p 6-31g* mp2
 -------------

 ------------------------------------------------------
 Input file generated by CHIRIPA (05-May-2021 14:53:13)
 ------------------------------------------------------
 Symbolic Z-matrix:
 Charge =  0 Multiplicity = 1

                         Standard orientation:
 ---------------------------------------------------------------------
 Center     Atomic      Atomic             Coordinates (Angstroms)
 Number     Number       Type             X           Y           Z
 ---------------------------------------------------------------------
      1          6           0        2.712521    0.541301    0.733734
      2          6           0        2.492326    2.052294    0.653742
      3          6           0        1.420994    2.545887    1.626576
      4          1           0        1.763543    0.027476    0.527896
      5          1           0        2.996852    0.273082    1.760676
      6          1           0        2.209841    2.317761   -0.373072
      7          1           0        3.441982    2.562578    0.859606
      8          1           0        1.699541    2.309639    2.658661
      9          1           0        0.460400    2.063431    1.418979
     10          1           0        1.279793    3.628689    1.552665
     11          6           0        3.780589    0.032726   -0.232862
     12          6           0        4.000784   -1.478267   -0.152870
     13          6           0        5.072116   -1.971861   -1.125704
     14          1           0        3.496258    0.300945   -1.259804
     15          1           0        4.729567    0.546551   -0.027024
     16          1           0        3.051129   -1.988551   -0.358734
     17          1           0        4.283269   -1.743734    0.873944
     18          1           0        6.032710   -1.489405   -0.918107
     19          1           0        4.793569   -1.735612   -2.157789
     20          1           0        5.213318   -3.054663   -1.051793
     21          6           0       -2.932161   -2.493110    0.834615
     22          6           0       -4.010263   -1.633670    0.598864
     23          6           0       -3.802733   -0.374238    0.028503
     24          6           0       -2.498108   -0.004882   -0.295256
     25          6           0       -1.403372   -0.838724   -0.072658
     26          6           0       -1.634443   -2.093599    0.498695
     27          1           0       -3.102518   -3.469696    1.278071
     28          1           0       -5.019167   -1.941283    0.858733
     29          1           0       -4.619190    0.310912   -0.164851
     30          1           0       -0.409026   -0.504123   -0.342359
     31          1           0       -0.795270   -2.758975    0.680646
     32          7           0       -2.265944    1.326009   -0.899596
     33          8           0       -1.106959    1.627809   -1.175836
     34          8           0       -3.247354    2.042163   -1.085594
 ---------------------------------------------------------------------

 SCF Done:  E(RHF) =  -669.535869457     A.U. after   15 cycles
 E2 =    -0.2092465387D+01 EUMP2 =    -0.67162833484362D+03

 The electronic state is 1-A.
 Alpha  occ. eigenvalues --  -20.60918 -20.60912 -15.85943 -11.31259 -11.27818
 Alpha  occ. eigenvalues --  -11.27807 -11.27553 -11.26830 -11.26817 -11.21804
 Alpha  occ. eigenvalues --  -11.21393 -11.21332 -11.21200 -11.21072 -11.20419
 Alpha  occ. eigenvalues --   -1.59973  -1.39530  -1.19427  -1.08831  -1.08345
 Alpha  occ. eigenvalues --   -1.04823  -1.03337  -0.95796  -0.95674  -0.86820
 Alpha  occ. eigenvalues --   -0.86225  -0.82508  -0.79444  -0.78169  -0.77554
 Alpha  occ. eigenvalues --   -0.72170  -0.71286  -0.70544  -0.65093  -0.65051
 Alpha  occ. eigenvalues --   -0.64756  -0.62181  -0.60699  -0.59203  -0.57404
 Alpha  occ. eigenvalues --   -0.55341  -0.55064  -0.53151  -0.52929  -0.52472
 Alpha  occ. eigenvalues --   -0.52223  -0.49759  -0.48928  -0.48917  -0.47751
 Alpha  occ. eigenvalues --   -0.46487  -0.45723  -0.45558  -0.44873  -0.43631
 Alpha  occ. eigenvalues --   -0.37403  -0.36416
 Alpha virt. eigenvalues --    0.04933   0.11167   0.16429   0.19722   0.22995
 Alpha virt. eigenvalues --    0.24276   0.25287   0.27190   0.27930   0.28138
 Alpha virt. eigenvalues --    0.29971   0.30683   0.31590   0.31952   0.32151

 Mulliken charges:
               1
     1  C   -0.299656
     2  C   -0.300145
     3  C   -0.475261
     4  H    0.139385
     5  H    0.148034
     6  H    0.165461
     7  H    0.149188
     8  H    0.147857
     9  H    0.158916
    10  H    0.163400
    11  C   -0.299171
    12  C   -0.297621
    13  C   -0.475658
    14  H    0.153707
    15  H    0.151461
    16  H    0.142773
    17  H    0.151383
    18  H    0.156791
    19  H    0.156802
    20  H    0.158800
    21  C   -0.170572
    22  C   -0.218631
    23  C   -0.170280
    24  C    0.158477
    25  C   -0.179021
    26  C   -0.221063
    27  H    0.226023
    28  H    0.223785
    29  H    0.275767
    30  H    0.286790
    31  H    0.224309
    32  N    0.487631
    33  O   -0.460977
    34  O   -0.458688
 Sum of Mulliken charges =  -0.00000

 Dipole moment (field-independent basis, Debye):
    X=             -0.8844    Y=             -4.5558    Z=              2.0249  Tot=              5.0634
 Quadrupole moment (field-independent basis, Debye-Ang):
   XX=            -85.5891   YY=            -95.1598   ZZ=            -96.9556
   XY=             11.5637   XZ=             -4.6973   YZ=              0.9184

 Normal termination of Gaussian 16 at Thu May  6 20:19:47 2021.
