 Gaussian 16, Revision A.03,
 Gaussian 16:  EM64L-G16RevA.03 25-Dec-2016

 -------------
 #p 6-31g* mp2
 -------------

 ------------------------------------------------------
 Input file generated by CHIRIPA (05-May-2021 14:53:18)
 ------------------------------------------------------
 Symbolic Z-matrix:
 Charge =  0 Multiplicity = 1

                         Standard orientation:
 ---------------------------------------------------------------------
 Center     Atomic      Atomic             Coordinates (Angstroms)
 Number     Number       Type             X           Y           Z
 ---------------------------------------------------------------------
      1          6           0       -3.309709   -0.112249   -0.709270
      2          6           0       -4.176250   -0.769815    0.365299
      3          6           0       -4.974339   -1.960870   -0.165959
      4          1           0       -3.951143    0.215097   -1.538939
      5          1           0       -2.620555   -0.861090   -1.123636
      6          1           0       -4.862616   -0.019618    0.778485
      7          1           0       -3.532701   -1.095462    1.192593
      8          1           0       -4.302242   -2.729740   -0.560580
      9          1           0       -5.639714   -1.647783   -0.977041
     10          1           0       -5.586764   -2.415882    0.618744
     11          6           0       -2.505835    1.080005   -0.193474
     12          6           0       -1.639294    1.737570   -1.268044
     13          6           0       -0.841205    2.928625   -0.736785
     14          1           0       -3.194989    1.828846    0.220891
     15          1           0       -1.864400    0.752658    0.636195
     16          1           0       -2.282842    2.063217   -2.095337
     17          1           0       -0.952927    0.987373   -1.681229
     18          1           0       -0.175830    2.615539    0.074297
     19          1           0       -1.513301    3.697495   -0.342164
     20          1           0       -0.228779    3.383637   -1.521488
     21          6           0        3.893487   -0.911529   -1.505079
     22          6           0        4.070166    0.239897   -0.730790
     23          6           0        3.177766    0.545444    0.301106
     24          6           0        2.114908   -0.326453    0.532231
     25          6           0        1.912093   -1.481267   -0.221798
     26          6           0        2.816912   -1.766928   -1.248564
     27          1           0        4.591549   -1.141161   -2.304687
     28          1           0        4.905346    0.906029   -0.927742
     29          1           0        3.290910    1.430116    0.915900
     30          1           0        1.070032   -2.126157   -0.001641
     31          1           0        2.677223   -2.661845   -1.848276
     32          7           0        1.163590   -0.013510    1.621938
     33          8           0        0.235241   -0.797813    1.805444
     34          8           0        1.364308    1.010153    2.271911
 ---------------------------------------------------------------------

 SCF Done:  E(RHF) =  -669.536882752     A.U. after   15 cycles
 E2 =    -0.2092747246D+01 EUMP2 =    -0.67162962999821D+03

 The electronic state is 1-A.
 Alpha  occ. eigenvalues --  -20.61131 -20.61123 -15.86115 -11.31370 -11.27925
 Alpha  occ. eigenvalues --  -11.27910 -11.27641 -11.26909 -11.26897 -11.21013
 Alpha  occ. eigenvalues --  -11.20806 -11.20673 -11.20507 -11.20464 -11.20396
 Alpha  occ. eigenvalues --   -1.60165  -1.39724  -1.19525  -1.08945  -1.07678
 Alpha  occ. eigenvalues --   -1.04909  -1.02868  -0.95799  -0.95310  -0.86335
 Alpha  occ. eigenvalues --   -0.86312  -0.82636  -0.78918  -0.77702  -0.77470
 Alpha  occ. eigenvalues --   -0.72343  -0.71483  -0.70633  -0.65183  -0.64911
 Alpha  occ. eigenvalues --   -0.64288  -0.62257  -0.60268  -0.58688  -0.56920
 Alpha  occ. eigenvalues --   -0.55418  -0.54613  -0.53238  -0.53000  -0.52048
 Alpha  occ. eigenvalues --   -0.51739  -0.49291  -0.49123  -0.49093  -0.47237
 Alpha  occ. eigenvalues --   -0.45939  -0.45269  -0.45037  -0.44675  -0.43088
 Alpha  occ. eigenvalues --   -0.37492  -0.36501
 Alpha virt. eigenvalues --    0.04781   0.11123   0.16245   0.21202   0.23362
 Alpha virt. eigenvalues --    0.24735   0.26928   0.27241   0.28174   0.28381
 Alpha virt. eigenvalues --    0.28775   0.30861   0.31751   0.32337   0.32463

 Mulliken charges:
               1
     1  C   -0.294596
     2  C   -0.302269
     3  C   -0.474876
     4  H    0.145062
     5  H    0.143679
     6  H    0.150627
     7  H    0.163509
     8  H    0.151896
     9  H    0.152347
    10  H    0.159375
    11  C   -0.309197
    12  C   -0.299889
    13  C   -0.479197
    14  H    0.147639
    15  H    0.172156
    16  H    0.148710
    17  H    0.145039
    18  H    0.161148
    19  H    0.156231
    20  H    0.153833
    21  C   -0.170221
    22  C   -0.218471
    23  C   -0.170493
    24  C    0.158841
    25  C   -0.171052
    26  C   -0.218519
    27  H    0.226388
    28  H    0.224267
    29  H    0.276404
    30  H    0.275692
    31  H    0.224196
    32  N    0.487649
    33  O   -0.458431
    34  O   -0.457478
 Sum of Mulliken charges =  -0.00000

 Dipole moment (field-independent basis, Debye):
    X=              3.5751    Y=             -1.1583    Z=             -3.6017  Tot=              5.2053
 Quadrupole moment (field-independent basis, Debye-Ang):
   XX=            -79.8253   YY=            -91.5240   ZZ=            -99.4468
   XY=             -2.1395   XZ=             -6.4175   YZ=              1.6273

 Normal termination of Gaussian 16 at Thu May  6 17:20:37 2021.
