 Gaussian 16, Revision A.03,
 Gaussian 16:  EM64L-G16RevA.03 25-Dec-2016

 -------------
 #p 6-31g* mp2
 -------------

 ------------------------------------------------------
 Input file generated by CHIRIPA (05-May-2021 14:55:23)
 ------------------------------------------------------
 Symbolic Z-matrix:
 Charge =  0 Multiplicity = 1

                         Standard orientation:
 ---------------------------------------------------------------------
 Center     Atomic      Atomic             Coordinates (Angstroms)
 Number     Number       Type             X           Y           Z
 ---------------------------------------------------------------------
      1          6           0       -2.467501    2.350233   -0.394674
      2          6           0       -1.610318    1.262537   -0.198013
      3          6           0       -2.122345   -0.033321   -0.083431
      4          6           0       -3.502883   -0.205951   -0.170631
      5          6           0       -4.382755    0.857477   -0.366169
      6          6           0       -3.848549    2.144594   -0.477977
      7          1           0       -2.061131    3.353492   -0.482607
      8          1           0       -0.537355    1.419256   -0.132930
      9          1           0       -1.481543   -0.893264    0.069170
     10          1           0       -5.447888    0.669819   -0.426951
     11          1           0       -4.516639    2.987438   -0.630669
     12          7           0       -4.056683   -1.573191   -0.050796
     13          8           0       -5.276695   -1.698742   -0.131079
     14          8           0       -3.260254   -2.493394    0.121143
     15          6           0        5.028868    0.223278   -0.045497
     16          6           0        5.927188   -0.903315   -0.557153
     17          6           0        7.247894   -0.391162   -1.132677
     18          1           0        4.825389    0.923337   -0.867360
     19          1           0        5.568796    0.792702    0.723678
     20          1           0        5.385218   -1.471296   -1.324149
     21          1           0        6.128395   -1.600876    0.265976
     22          1           0        7.812306    0.158073   -0.372163
     23          1           0        7.064905    0.288389   -1.971322
     24          1           0        7.874588   -1.213112   -1.492556
     25          6           0        3.704853   -0.272908    0.532874
     26          6           0        2.806533    0.853687    1.044530
     27          6           0        1.485826    0.341533    1.620054
     28          1           0        3.164925   -0.842331   -0.236301
     29          1           0        3.908332   -0.972966    1.354737
     30          1           0        2.605325    1.551247    0.221401
     31          1           0        3.348504    1.421666    1.811526
     32          1           0        1.668816   -0.338018    2.458698
     33          1           0        0.921415   -0.207702    0.859540
     34          1           0        0.859133    1.163482    1.979933
 ---------------------------------------------------------------------

 SCF Done:  E(RHF) =  -669.534535994     A.U. after   15 cycles
 E2 =    -0.2091948999D+01 EUMP2 =    -0.67162648499291D+03

 The electronic state is 1-A.
 Alpha  occ. eigenvalues --  -20.60704 -20.60699 -15.85755 -11.31107 -11.27670
 Alpha  occ. eigenvalues --  -11.27649 -11.27397 -11.26691 -11.26588 -11.22474
 Alpha  occ. eigenvalues --  -11.22099 -11.22002 -11.21962 -11.21853 -11.21370
 Alpha  occ. eigenvalues --   -1.59779  -1.39333  -1.19270  -1.09032  -1.08669
 Alpha  occ. eigenvalues --   -1.04685  -1.04158  -0.96626  -0.95509  -0.87655
 Alpha  occ. eigenvalues --   -0.86066  -0.82348  -0.80239  -0.78795  -0.77391
 Alpha  occ. eigenvalues --   -0.71974  -0.71101  -0.70392  -0.65702  -0.64923
 Alpha  occ. eigenvalues --   -0.64695  -0.62247  -0.61382  -0.59994  -0.58207
 Alpha  occ. eigenvalues --   -0.55928  -0.55146  -0.53398  -0.53063  -0.52972
 Alpha  occ. eigenvalues --   -0.52650  -0.50537  -0.48733  -0.48728  -0.48538
 Alpha  occ. eigenvalues --   -0.47266  -0.46345  -0.46245  -0.44742  -0.44390
 Alpha  occ. eigenvalues --   -0.37255  -0.36256
 Alpha virt. eigenvalues --    0.05133   0.11349   0.16602   0.19899   0.22656
 Alpha virt. eigenvalues --    0.23838   0.25203   0.26146   0.26915   0.27920
 Alpha virt. eigenvalues --    0.29082   0.30206   0.30896   0.31316   0.31833

 Mulliken charges:
               1
     1  C   -0.172599
     2  C   -0.221831
     3  C   -0.175758
     4  C    0.159220
     5  C   -0.171325
     6  C   -0.218468
     7  H    0.225169
     8  H    0.233230
     9  H    0.276458
    10  H    0.275214
    11  H    0.222954
    12  N    0.488487
    13  O   -0.460756
    14  O   -0.460731
    15  C   -0.298691
    16  C   -0.300304
    17  C   -0.476047
    18  H    0.149000
    19  H    0.150456
    20  H    0.153116
    21  H    0.153446
    22  H    0.155535
    23  H    0.155118
    24  H    0.161952
    25  C   -0.298816
    26  C   -0.302545
    27  C   -0.484018
    28  H    0.150364
    29  H    0.153233
    30  H    0.147560
    31  H    0.156373
    32  H    0.165702
    33  H    0.148636
    34  H    0.160666
 Sum of Mulliken charges =  -0.00000

 Dipole moment (field-independent basis, Debye):
    X=              2.1809    Y=              4.7782    Z=             -0.3443  Tot=              5.2637
 Quadrupole moment (field-independent basis, Debye-Ang):
   XX=           -104.3951   YY=            -96.7443   ZZ=            -94.5620
   XY=            -19.7515   XZ=              2.7816   YZ=             -0.9904

 Normal termination of Gaussian 16 at Thu May  6 01:33:18 2021.
