 Gaussian 16, Revision A.03,
 Gaussian 16:  EM64L-G16RevA.03 25-Dec-2016

 -------------
 #p 6-31g* mp2
 -------------

 ------------------------------------------------------
 Input file generated by CHIRIPA (05-May-2021 14:53:15)
 ------------------------------------------------------
 Symbolic Z-matrix:
 Charge =  0 Multiplicity = 1

                         Standard orientation:
 ---------------------------------------------------------------------
 Center     Atomic      Atomic             Coordinates (Angstroms)
 Number     Number       Type             X           Y           Z
 ---------------------------------------------------------------------
      1          6           0        4.694493   -0.292460   -0.441432
      2          6           0        5.556164   -1.352529    0.245416
      3          6           0        6.388154   -2.169655   -0.743469
      4          1           0        4.029154   -0.782580   -1.165346
      5          1           0        5.343810    0.379921   -1.019087
      6          1           0        4.905545   -2.021880    0.822720
      7          1           0        6.219394   -0.859848    0.967916
      8          1           0        7.060579   -1.518560   -1.311378
      9          1           0        5.739264   -2.687194   -1.457399
     10          1           0        6.996501   -2.921500   -0.231118
     11          6           0        3.856960    0.532611    0.534030
     12          6           0        2.995289    1.592680   -0.152817
     13          6           0        2.163299    2.409806    0.836067
     14          1           0        3.207643   -0.139770    1.111686
     15          1           0        4.522299    1.022731    1.257944
     16          1           0        2.332059    1.099999   -0.875318
     17          1           0        3.645908    2.262031   -0.730122
     18          1           0        2.812189    2.927345    1.549997
     19          1           0        1.490874    1.758711    1.403976
     20          1           0        1.554952    3.161651    0.323716
     21          6           0       -1.407290    1.520779   -0.184719
     22          6           0       -1.254486    0.306223    0.492055
     23          6           0       -2.318771   -0.595994    0.580661
     24          6           0       -3.527298   -0.249902   -0.021810
     25          6           0       -3.710682    0.952414   -0.703057
     26          6           0       -2.632740    1.839437   -0.779066
     27          1           0       -0.575222    2.215742   -0.248657
     28          1           0       -0.303933    0.056103    0.954587
     29          1           0       -2.227953   -1.543126    1.098455
     30          1           0       -4.670343    1.173868   -1.154087
     31          1           0       -2.754289    2.781959   -1.305302
     32          7           0       -4.661239   -1.196995    0.065325
     33          8           0       -5.715734   -0.868552   -0.473933
     34          8           0       -4.474054   -2.249837    0.671231
 ---------------------------------------------------------------------

 SCF Done:  E(RHF) =  -669.534885335     A.U. after   15 cycles
 E2 =    -0.2092007079D+01 EUMP2 =    -0.67162689241425D+03

 The electronic state is 1-A.
 Alpha  occ. eigenvalues --  -20.60716 -20.60711 -15.85770 -11.31118 -11.27698
 Alpha  occ. eigenvalues --  -11.27691 -11.27349 -11.26688 -11.26676 -11.22784
 Alpha  occ. eigenvalues --  -11.22566 -11.22356 -11.22191 -11.22099 -11.21532
 Alpha  occ. eigenvalues --   -1.59793  -1.39347  -1.19289  -1.09331  -1.08678
 Alpha  occ. eigenvalues --   -1.04700  -1.04455  -0.96933  -0.95513  -0.87945
 Alpha  occ. eigenvalues --   -0.86091  -0.82357  -0.80530  -0.79070  -0.77415
 Alpha  occ. eigenvalues --   -0.71989  -0.71116  -0.70418  -0.65997  -0.64938
 Alpha  occ. eigenvalues --   -0.64717  -0.62153  -0.61723  -0.60380  -0.58512
 Alpha  occ. eigenvalues --   -0.56238  -0.55169  -0.53567  -0.53315  -0.53019
 Alpha  occ. eigenvalues --   -0.52778  -0.50841  -0.48853  -0.48744  -0.48720
 Alpha  occ. eigenvalues --   -0.47556  -0.46621  -0.46513  -0.44756  -0.44686
 Alpha  occ. eigenvalues --   -0.37251  -0.36306
 Alpha virt. eigenvalues --    0.05127   0.11308   0.16617   0.18811   0.22572
 Alpha virt. eigenvalues --    0.24030   0.24513   0.25991   0.26613   0.27592
 Alpha virt. eigenvalues --    0.29179   0.30034   0.31207   0.31467   0.31944

 Mulliken charges:
               1
     1  C   -0.299163
     2  C   -0.300309
     3  C   -0.476282
     4  H    0.150893
     5  H    0.151444
     6  H    0.152344
     7  H    0.153040
     8  H    0.155986
     9  H    0.156291
    10  H    0.162319
    11  C   -0.298378
    12  C   -0.303445
    13  C   -0.484260
    14  H    0.146322
    15  H    0.153088
    16  H    0.151679
    17  H    0.157385
    18  H    0.165428
    19  H    0.151534
    20  H    0.155863
    21  C   -0.174722
    22  C   -0.225392
    23  C   -0.170847
    24  C    0.158119
    25  C   -0.170636
    26  C   -0.220479
    27  H    0.236300
    28  H    0.225245
    29  H    0.275303
    30  H    0.275282
    31  H    0.223379
    32  N    0.488026
    33  O   -0.460613
    34  O   -0.460746
 Sum of Mulliken charges =  -0.00000

 Dipole moment (field-independent basis, Debye):
    X=              4.3002    Y=              3.3549    Z=             -0.3177  Tot=              5.4633
 Quadrupole moment (field-independent basis, Debye-Ang):
   XX=           -120.5764   YY=            -94.6703   ZZ=            -94.3303
   XY=            -13.8957   XZ=              3.2094   YZ=             -2.2205

 Normal termination of Gaussian 16 at Thu May  6 17:11:37 2021.
