 Gaussian 16, Revision A.03,
 Gaussian 16:  EM64L-G16RevA.03 25-Dec-2016

 -------------
 #p 6-31g* mp2
 -------------

 ------------------------------------------------------
 Input file generated by CHIRIPA (05-May-2021 14:55:24)
 ------------------------------------------------------
 Symbolic Z-matrix:
 Charge =  0 Multiplicity = 1

                         Standard orientation:
 ---------------------------------------------------------------------
 Center     Atomic      Atomic             Coordinates (Angstroms)
 Number     Number       Type             X           Y           Z
 ---------------------------------------------------------------------
      1          6           0       -1.541815   -1.787625    0.771206
      2          6           0       -2.837474   -2.310053    0.701499
      3          6           0       -3.900934   -1.515162    0.263609
      4          6           0       -3.631634   -0.196190   -0.098438
      5          6           0       -2.351789    0.353235   -0.039963
      6          6           0       -1.303528   -0.459989    0.400906
      7          1           0       -0.721597   -2.412236    1.112527
      8          1           0       -3.025480   -3.340763    0.988442
      9          1           0       -4.913741   -1.894095    0.199959
     10          1           0       -2.195453    1.384385   -0.332719
     11          1           0       -0.298325   -0.051589    0.454026
     12          7           0       -4.749427    0.655030   -0.563589
     13          8           0       -4.485935    1.813933   -0.876881
     14          8           0       -5.867879    0.147194   -0.606074
     15          6           0        3.851305    0.629006    0.506370
     16          6           0        3.217361    1.979399    0.170902
     17          6           0        2.095909    2.362313    1.137087
     18          1           0        3.073807   -0.147066    0.493996
     19          1           0        4.244616    0.661093    1.531881
     20          1           0        2.826591    1.945228   -0.854158
     21          1           0        3.996494    2.752315    0.183888
     22          1           0        2.475033    2.424076    2.162294
     23          1           0        1.298484    1.612404    1.118350
     24          1           0        1.656796    3.330993    0.878823
     25          6           0        4.974060    0.232385   -0.450626
     26          6           0        5.608005   -1.118008   -0.115157
     27          6           0        6.729457   -1.500922   -1.081343
     28          1           0        4.580749    0.200298   -1.476136
     29          1           0        5.751559    1.008457   -0.438252
     30          1           0        4.828872   -1.890925   -0.128144
     31          1           0        5.998775   -1.083837    0.909902
     32          1           0        7.526882   -0.751014   -1.062606
     33          1           0        6.350332   -1.562686   -2.106550
     34          1           0        7.168569   -2.469602   -0.823078
 ---------------------------------------------------------------------

 SCF Done:  E(RHF) =  -669.535446694     A.U. after   15 cycles
 E2 =    -0.2090917350D+01 EUMP2 =    -0.67162636404307D+03

 The electronic state is 1-A.
 Alpha  occ. eigenvalues --  -20.60745 -20.60740 -15.85799 -11.31166 -11.27741
 Alpha  occ. eigenvalues --  -11.27732 -11.27486 -11.26757 -11.26739 -11.22384
 Alpha  occ. eigenvalues --  -11.22197 -11.22186 -11.22010 -11.22005 -11.21547
 Alpha  occ. eigenvalues --   -1.59820  -1.39374  -1.19342  -1.09145  -1.08737
 Alpha  occ. eigenvalues --   -1.04748  -1.04231  -0.96687  -0.95570  -0.87701
 Alpha  occ. eigenvalues --   -0.86147  -0.82405  -0.80291  -0.78947  -0.77451
 Alpha  occ. eigenvalues --   -0.72017  -0.71143  -0.70451  -0.65799  -0.64995
 Alpha  occ. eigenvalues --   -0.64766  -0.62159  -0.61579  -0.60047  -0.58284
 Alpha  occ. eigenvalues --   -0.56008  -0.55244  -0.53359  -0.53164  -0.53070
 Alpha  occ. eigenvalues --   -0.52798  -0.50623  -0.48785  -0.48771  -0.48592
 Alpha  occ. eigenvalues --   -0.47325  -0.46494  -0.46403  -0.44778  -0.44479
 Alpha  occ. eigenvalues --   -0.37325  -0.36348
 Alpha virt. eigenvalues --    0.05086   0.11289   0.16557   0.18943   0.22580
 Alpha virt. eigenvalues --    0.23581   0.25260   0.26484   0.26932   0.28401
 Alpha virt. eigenvalues --    0.28729   0.29944   0.31063   0.31428   0.32045

 Mulliken charges:
               1
     1  C   -0.172289
     2  C   -0.218528
     3  C   -0.171008
     4  C    0.158639
     5  C   -0.173179
     6  C   -0.225850
     7  H    0.226010
     8  H    0.223332
     9  H    0.275573
    10  H    0.275969
    11  H    0.233678
    12  N    0.488131
    13  O   -0.460337
    14  O   -0.460605
    15  C   -0.297197
    16  C   -0.300979
    17  C   -0.479710
    18  H    0.141066
    19  H    0.151767
    20  H    0.152805
    21  H    0.156603
    22  H    0.159888
    23  H    0.145622
    24  H    0.165861
    25  C   -0.298855
    26  C   -0.299671
    27  C   -0.476100
    28  H    0.150687
    29  H    0.152291
    30  H    0.149639
    31  H    0.152738
    32  H    0.156657
    33  H    0.156046
    34  H    0.161309
 Sum of Mulliken charges =  -0.00000

 Dipole moment (field-independent basis, Debye):
    X=              4.1381    Y=             -2.9244    Z=              1.6337  Tot=              5.3240
 Quadrupole moment (field-independent basis, Debye-Ang):
   XX=           -121.0827   YY=            -90.5371   ZZ=            -95.8433
   XY=             13.9438   XZ=             -5.9213   YZ=             -0.5188

 Normal termination of Gaussian 16 at Thu May  6 11:03:39 2021.
