 Gaussian 16, Revision A.03,
 Gaussian 16:  EM64L-G16RevA.03 25-Dec-2016

 -------------
 #p 6-31g* mp2
 -------------

 ------------------------------------------------------
 Input file generated by CHIRIPA (05-May-2021 14:51:14)
 ------------------------------------------------------
 Symbolic Z-matrix:
 Charge =  0 Multiplicity = 1

                         Standard orientation:
 ---------------------------------------------------------------------
 Center     Atomic      Atomic             Coordinates (Angstroms)
 Number     Number       Type             X           Y           Z
 ---------------------------------------------------------------------
      1          6           0       -3.085740   -0.337643    0.078019
      2          6           0       -3.169875    0.760040   -0.983112
      3          6           0       -4.609560    1.161477   -1.305523
      4          1           0       -3.644377   -1.217724   -0.268865
      5          1           0       -3.584752    0.008326    0.993818
      6          1           0       -2.669645    0.412635   -1.896181
      7          1           0       -2.610813    1.637541   -0.633745
      8          1           0       -5.115848    1.533223   -0.408819
      9          1           0       -5.175014    0.301358   -1.678427
     10          1           0       -4.646404    1.947383   -2.066348
     11          6           0       -1.652918   -0.749731    0.411083
     12          6           0       -1.568783   -1.847414    1.472213
     13          6           0       -0.129098   -2.248851    1.794625
     14          1           0       -1.153907   -1.095700   -0.504716
     15          1           0       -1.094281    0.130350    0.757967
     16          1           0       -2.127846   -2.724915    1.122847
     17          1           0       -2.069014   -1.500009    2.385282
     18          1           0        0.436356   -1.388732    2.167529
     19          1           0        0.377190   -2.620597    0.897920
     20          1           0       -0.092254   -3.034757    2.555450
     21          6           0        2.461839    1.301828   -0.234767
     22          6           0        1.697126    1.991467    0.895540
     23          6           0        1.892153    3.507949    0.901922
     24          1           0        3.531308    1.535018   -0.140934
     25          1           0        2.134324    1.718620   -1.197270
     26          1           0        2.024989    1.572523    1.855545
     27          1           0        0.629377    1.756452    0.799117
     28          1           0        1.547349    3.944673   -0.040937
     29          1           0        2.950891    3.759699    1.021493
     30          1           0        1.336761    3.980716    1.717944
     31          6           0        2.276819   -0.214454   -0.254334
     32          6           0        3.041533   -0.904093   -1.384642
     33          6           0        2.846506   -2.420575   -1.391024
     34          1           0        2.604335   -0.631246    0.708169
     35          1           0        1.207350   -0.447644   -0.348167
     36          1           0        4.109280   -0.669078   -1.288219
     37          1           0        2.713670   -0.485149   -2.344646
     38          1           0        1.787767   -2.672325   -1.510594
     39          1           0        3.191308   -2.857299   -0.448165
     40          1           0        3.401897   -2.893342   -2.207046
 ---------------------------------------------------------------------

 SCF Done:  E(RHF) =  -470.731084070     A.U. after   11 cycles
 E2 =    -0.1586259387D+01 EUMP2 =    -0.47231734345706D+03

 The electronic state is 1-A.
 Alpha  occ. eigenvalues --  -11.21664 -11.21598 -11.21594 -11.21536 -11.21445
 Alpha  occ. eigenvalues --  -11.21386 -11.21313 -11.21145 -11.21114 -11.21078
 Alpha  occ. eigenvalues --  -11.21075 -11.20931  -1.08516  -1.08332  -1.03561
 Alpha  occ. eigenvalues --   -1.03493  -0.95992  -0.95945  -0.87017  -0.86961
 Alpha  occ. eigenvalues --   -0.79719  -0.79538  -0.78630  -0.77834  -0.65125
 Alpha  occ. eigenvalues --   -0.65008  -0.61025  -0.60841  -0.59410  -0.59292
 Alpha  occ. eigenvalues --   -0.57642  -0.57537  -0.55292  -0.55222  -0.52691
 Alpha  occ. eigenvalues --   -0.52653  -0.52481  -0.52345  -0.49989  -0.49838
 Alpha  occ. eigenvalues --   -0.48200  -0.47835  -0.46807  -0.46612  -0.46502
 Alpha  occ. eigenvalues --   -0.45639  -0.45559  -0.44692  -0.43801  -0.43722
 Alpha virt. eigenvalues --    0.21022   0.22193   0.23468   0.24074   0.25128
 Alpha virt. eigenvalues --    0.25903   0.26727   0.27312   0.28417   0.30535
 Alpha virt. eigenvalues --    0.30925   0.31180   0.31658   0.31863   0.32406

 Mulliken charges:
               1
     1  C   -0.296478
     2  C   -0.300073
     3  C   -0.475688
     4  H    0.149832
     5  H    0.149739
     6  H    0.151524
     7  H    0.151429
     8  H    0.155418
     9  H    0.155415
    10  H    0.160386
    11  C   -0.310366
    12  C   -0.298379
    13  C   -0.481213
    14  H    0.149121
    15  H    0.158921
    16  H    0.151531
    17  H    0.151609
    18  H    0.158237
    19  H    0.160298
    20  H    0.158853
    21  C   -0.297161
    22  C   -0.307220
    23  C   -0.475051
    24  H    0.148992
    25  H    0.148859
    26  H    0.151201
    27  H    0.157507
    28  H    0.155289
    29  H    0.155431
    30  H    0.159714
    31  C   -0.308664
    32  C   -0.299055
    33  C   -0.477248
    34  H    0.150245
    35  H    0.163755
    36  H    0.151391
    37  H    0.151062
    38  H    0.154216
    39  H    0.156341
    40  H    0.160280
 Sum of Mulliken charges =  -0.00000

 Dipole moment (field-independent basis, Debye):
    X=             -0.0237    Y=             -0.0097    Z=              0.0086  Tot=              0.0270
 Quadrupole moment (field-independent basis, Debye-Ang):
   XX=            -85.1810   YY=            -85.7568   ZZ=            -84.0785
   XY=              0.2115   XZ=              0.2387   YZ=              0.4516

 Normal termination of Gaussian 16 at Thu May  6 04:01:31 2021.
