 Gaussian 16, Revision A.03,
 Gaussian 16:  EM64L-G16RevA.03 25-Dec-2016

 -------------
 #p 6-31g* mp2
 -------------

 ------------------------------------------------------
 Input file generated by CHIRIPA (05-May-2021 14:57:25)
 ------------------------------------------------------
 Symbolic Z-matrix:
 Charge =  0 Multiplicity = 1

                         Standard orientation:
 ---------------------------------------------------------------------
 Center     Atomic      Atomic             Coordinates (Angstroms)
 Number     Number       Type             X           Y           Z
 ---------------------------------------------------------------------
      1          6           0        1.630534   -1.771197    0.547870
      2          6           0        1.631798   -1.006133   -0.623110
      3          6           0        2.678102   -0.118088   -0.889894
      4          6           0        3.711738   -0.019844    0.040285
      5          6           0        3.738996   -0.768478    1.215911
      6          6           0        2.682283   -1.650141    1.462032
      7          1           0        0.813698   -2.458573    0.747089
      8          1           0        0.816314   -1.098078   -1.334853
      9          1           0        2.704242    0.486216   -1.788533
     10          1           0        4.565795   -0.655024    1.906526
     11          1           0        2.683939   -2.243040    2.372259
     12          7           0        4.824923    0.916911   -0.231209
     13          8           0        5.723836    0.985061    0.604224
     14          8           0        4.777445    1.565253   -1.274299
     15          6           0       -3.883330    2.585978    0.565616
     16          6           0       -4.807468    1.611874    0.957551
     17          6           0       -4.620869    0.272541    0.602710
     18          6           0       -3.493946   -0.058926   -0.147934
     19          6           0       -2.555312    0.888568   -0.553535
     20          6           0       -2.762179    2.221858   -0.187348
     21          1           0       -4.036157    3.624057    0.845672
     22          1           0       -5.679085    1.891759    1.542355
     23          1           0       -5.320517   -0.501898    0.892803
     24          1           0       -1.696083    0.579045   -1.136062
     25          1           0       -2.042826    2.976229   -0.493128
     26          7           0       -3.285674   -1.473620   -0.529593
     27          8           0       -2.284715   -1.739875   -1.191278
     28          8           0       -4.127334   -2.289414   -0.159828
 ---------------------------------------------------------------------

 SCF Done:  E(RHF) =  -868.339961906     A.U. after   16 cycles
 E2 =    -0.2598863637D+01 EUMP2 =    -0.87093882554329D+03

 The electronic state is 1-A.
 Alpha  occ. eigenvalues --  -20.61788 -20.61723 -20.60629 -20.60622 -15.86790
 Alpha  occ. eigenvalues --  -15.85677 -11.31889 -11.30924 -11.28457 -11.28399
 Alpha  occ. eigenvalues --  -11.28079 -11.27486 -11.27472 -11.27359 -11.27349
 Alpha  occ. eigenvalues --  -11.27060 -11.26435 -11.26320  -1.60819  -1.59708
 Alpha  occ. eigenvalues --   -1.40385  -1.39265  -1.20028  -1.19066  -1.09465
 Alpha  occ. eigenvalues --   -1.08451  -1.05390  -1.04452  -0.96349  -0.95315
 Alpha  occ. eigenvalues --   -0.86801  -0.85825  -0.83194  -0.82159  -0.78285
 Alpha  occ. eigenvalues --   -0.77244  -0.73020  -0.72129  -0.71893  -0.71130
 Alpha  occ. eigenvalues --   -0.71033  -0.70101  -0.65684  -0.65386  -0.64696
 Alpha  occ. eigenvalues --   -0.64397  -0.62752  -0.61786  -0.55883  -0.54847
 Alpha  occ. eigenvalues --   -0.53730  -0.53481  -0.52791  -0.52503  -0.49784
 Alpha  occ. eigenvalues --   -0.49731  -0.48661  -0.48637  -0.45845  -0.44698
 Alpha  occ. eigenvalues --   -0.37980  -0.37023  -0.36959  -0.36078
 Alpha virt. eigenvalues --    0.04223   0.05276   0.10661   0.11562   0.15774
 Alpha virt. eigenvalues --    0.16779   0.20223   0.21964   0.25551   0.27158
 Alpha virt. eigenvalues --    0.28589   0.28838   0.30247   0.31104   0.32350

 Mulliken charges:
               1
     1  C   -0.172886
     2  C   -0.229299
     3  C   -0.174231
     4  C    0.158198
     5  C   -0.171927
     6  C   -0.219288
     7  H    0.235509
     8  H    0.238768
     9  H    0.272372
    10  H    0.274171
    11  H    0.222988
    12  N    0.488098
    13  O   -0.461264
    14  O   -0.462546
    15  C   -0.169754
    16  C   -0.218395
    17  C   -0.170648
    18  C    0.157435
    19  C   -0.169614
    20  C   -0.218454
    21  H    0.228883
    22  H    0.225803
    23  H    0.276434
    24  H    0.270414
    25  H    0.227290
    26  N    0.490259
    27  O   -0.472893
    28  O   -0.455422
 Sum of Mulliken charges =  -0.00000

 Dipole moment (field-independent basis, Debye):
    X=             -5.0297    Y=              1.6892    Z=              2.3975  Tot=              5.8223
 Quadrupole moment (field-independent basis, Debye-Ang):
   XX=           -124.9399   YY=           -105.2781   ZZ=           -101.2641
   XY=            -29.7429   XZ=             -1.6482   YZ=             -2.9564

 Normal termination of Gaussian 16 at Thu May  6 09:52:31 2021.
