 Gaussian 16, Revision A.03,
 Gaussian 16:  EM64L-G16RevA.03 25-Dec-2016

 -------------
 #p 6-31g* mp2
 -------------

 ------------------------------------------------------
 Input file generated by CHIRIPA (05-May-2021 14:53:12)
 ------------------------------------------------------
 Symbolic Z-matrix:
 Charge =  0 Multiplicity = 1

                         Standard orientation:
 ---------------------------------------------------------------------
 Center     Atomic      Atomic             Coordinates (Angstroms)
 Number     Number       Type             X           Y           Z
 ---------------------------------------------------------------------
      1          6           0        4.227478    0.226772    0.257104
      2          6           0        3.586018    1.614630    0.276149
      3          6           0        2.139704    1.590645    0.771522
      4          1           0        3.630289   -0.437454   -0.382517
      5          1           0        4.192612   -0.199550    1.269245
      6          1           0        3.623328    2.038778   -0.735445
      7          1           0        4.184910    2.275680    0.915647
      8          1           0        2.087820    1.191801    1.789772
      9          1           0        1.523047    0.953553    0.129299
     10          1           0        1.700559    2.593132    0.777048
     11          6           0        5.673411    0.234395   -0.235792
     12          6           0        6.314871   -1.153463   -0.254837
     13          6           0        7.761186   -1.129478   -0.750210
     14          1           0        5.708278    0.660717   -1.247932
     15          1           0        6.270600    0.898620    0.403830
     16          1           0        5.715979   -1.814514   -0.894334
     17          1           0        6.277561   -1.577611    0.756757
     18          1           0        8.377842   -0.492386   -0.107987
     19          1           0        7.813069   -0.730635   -1.768460
     20          1           0        8.200331   -2.131965   -0.755736
     21          6           0       -1.415078   -0.309844    0.570086
     22          6           0       -2.248187   -1.409134    0.802494
     23          6           0       -3.608569   -1.348518    0.485899
     24          6           0       -4.104629   -0.167605   -0.064244
     25          6           0       -3.300140    0.944529   -0.307652
     26          6           0       -1.942784    0.861414    0.016729
     27          1           0       -0.359476   -0.365671    0.819049
     28          1           0       -1.841111   -2.320039    1.232129
     29          1           0       -4.276085   -2.184654    0.655362
     30          1           0       -3.734884    1.838959   -0.737083
     31          1           0       -1.298145    1.716698   -0.164858
     32          7           0       -5.543203   -0.091524   -0.403531
     33          8           0       -5.955791    0.960350   -0.887236
     34          8           0       -6.230931   -1.085205   -0.179335
 ---------------------------------------------------------------------

 SCF Done:  E(RHF) =  -669.535561148     A.U. after   15 cycles
 E2 =    -0.2091098287D+01 EUMP2 =    -0.67162665943477D+03

 The electronic state is 1-A.
 Alpha  occ. eigenvalues --  -20.60694 -20.60689 -15.85747 -11.31092 -11.27661
 Alpha  occ. eigenvalues --  -11.27655 -11.27334 -11.26661 -11.26636 -11.22630
 Alpha  occ. eigenvalues --  -11.22485 -11.22273 -11.22192 -11.22059 -11.21552
 Alpha  occ. eigenvalues --   -1.59771  -1.39325  -1.19258  -1.09253  -1.08651
 Alpha  occ. eigenvalues --   -1.04661  -1.04387  -0.96871  -0.95491  -0.87898
 Alpha  occ. eigenvalues --   -0.86052  -0.82329  -0.80472  -0.79025  -0.77382
 Alpha  occ. eigenvalues --   -0.71965  -0.71094  -0.70372  -0.65878  -0.64907
 Alpha  occ. eigenvalues --   -0.64667  -0.62026  -0.61763  -0.60254  -0.58466
 Alpha  occ. eigenvalues --   -0.56185  -0.55171  -0.53563  -0.53241  -0.52989
 Alpha  occ. eigenvalues --   -0.52741  -0.50803  -0.48780  -0.48722  -0.48707
 Alpha  occ. eigenvalues --   -0.47475  -0.46577  -0.46466  -0.44735  -0.44620
 Alpha  occ. eigenvalues --   -0.37229  -0.36270
 Alpha virt. eigenvalues --    0.05147   0.11369   0.16631   0.20083   0.22274
 Alpha virt. eigenvalues --    0.23762   0.25564   0.26006   0.26561   0.27611
 Alpha virt. eigenvalues --    0.29378   0.29954   0.30691   0.31489   0.32159

 Mulliken charges:
               1
     1  C   -0.299424
     2  C   -0.299236
     3  C   -0.483904
     4  H    0.148370
     5  H    0.149607
     6  H    0.155167
     7  H    0.156436
     8  H    0.157369
     9  H    0.149103
    10  H    0.163097
    11  C   -0.298912
    12  C   -0.300229
    13  C   -0.476157
    14  H    0.151179
    15  H    0.151385
    16  H    0.152166
    17  H    0.152186
    18  H    0.156088
    19  H    0.156169
    20  H    0.161790
    21  C   -0.175597
    22  C   -0.219039
    23  C   -0.170969
    24  C    0.158237
    25  C   -0.171111
    26  C   -0.221329
    27  H    0.232376
    28  H    0.223142
    29  H    0.275132
    30  H    0.275171
    31  H    0.225133
    32  N    0.488073
    33  O   -0.460740
    34  O   -0.460728
 Sum of Mulliken charges =  -0.00000

 Dipole moment (field-independent basis, Debye):
    X=              5.3761    Y=             -0.2210    Z=              1.2010  Tot=              5.5130
 Quadrupole moment (field-independent basis, Debye-Ang):
   XX=           -137.0163   YY=            -90.2237   ZZ=            -94.3463
   XY=              1.2742   XZ=             -4.8464   YZ=             -1.8616

 Normal termination of Gaussian 16 at Wed May  5 21:44:00 2021.
