 Gaussian 16, Revision A.03,
 Gaussian 16:  EM64L-G16RevA.03 25-Dec-2016

 -------------
 #p 6-31g* mp2
 -------------

 ------------------------------------------------------
 Input file generated by CHIRIPA (05-May-2021 14:53:17)
 ------------------------------------------------------
 Symbolic Z-matrix:
 Charge =  0 Multiplicity = 1

                         Standard orientation:
 ---------------------------------------------------------------------
 Center     Atomic      Atomic             Coordinates (Angstroms)
 Number     Number       Type             X           Y           Z
 ---------------------------------------------------------------------
      1          6           0       -3.804341    0.048860    0.374101
      2          6           0       -4.406194   -1.178702   -0.310625
      3          6           0       -5.433474   -1.898878    0.563351
      4          1           0       -3.333396   -0.259460    1.317549
      5          1           0       -4.612217    0.744323    0.640676
      6          1           0       -3.597289   -1.871014   -0.577071
      7          1           0       -4.875594   -0.867453   -1.252646
      8          1           0       -6.260098   -1.227935    0.818556
      9          1           0       -4.974530   -2.237199    1.497969
     10          1           0       -5.850979   -2.773270    0.054440
     11          6           0       -2.775621    0.779468   -0.487104
     12          6           0       -2.173768    2.007031    0.197621
     13          6           0       -1.146488    2.727207   -0.676355
     14          1           0       -1.967745    0.084005   -0.753680
     15          1           0       -3.246566    1.087789   -1.430552
     16          1           0       -1.704368    1.695782    1.139642
     17          1           0       -2.982673    2.699343    0.464067
     18          1           0       -1.605432    3.065528   -1.610973
     19          1           0       -0.319864    2.056264   -0.931559
     20          1           0       -0.728983    3.601598   -0.167444
     21          6           0        2.569827    2.159074    0.494054
     22          6           0        2.442902    1.685023   -0.815787
     23          6           0        2.441904    0.311556   -1.076820
     24          6           0        2.570343   -0.563578    0.000646
     25          6           0        2.698533   -0.122157    1.316703
     26          6           0        2.697013    1.255564    1.554250
     27          1           0        2.569625    3.227669    0.687708
     28          1           0        2.343969    2.384382   -1.641107
     29          1           0        2.345171   -0.082694   -2.081125
     30          1           0        2.795478   -0.843732    2.118794
     31          1           0        2.795745    1.620863    2.572511
     32          7           0        2.570619   -2.019858   -0.263266
     33          8           0        2.685190   -2.770238    0.703399
     34          8           0        2.456259   -2.383336   -1.431787
 ---------------------------------------------------------------------

 SCF Done:  E(RHF) =  -669.534827992     A.U. after   15 cycles
 E2 =    -0.2092560469D+01 EUMP2 =    -0.67162738846037D+03

 The electronic state is 1-A.
 Alpha  occ. eigenvalues --  -20.60834 -20.60829 -15.85888 -11.31272 -11.27829
 Alpha  occ. eigenvalues --  -11.27822 -11.27554 -11.26851 -11.26821 -11.21839
 Alpha  occ. eigenvalues --  -11.21525 -11.21488 -11.21388 -11.21378 -11.20974
 Alpha  occ. eigenvalues --   -1.59910  -1.39462  -1.19446  -1.08834  -1.08505
 Alpha  occ. eigenvalues --   -1.04855  -1.03623  -0.96092  -0.95659  -0.87125
 Alpha  occ. eigenvalues --   -0.86233  -0.82495  -0.79703  -0.78306  -0.77541
 Alpha  occ. eigenvalues --   -0.72104  -0.71235  -0.70531  -0.65143  -0.65089
 Alpha  occ. eigenvalues --   -0.64839  -0.62193  -0.61033  -0.59476  -0.57700
 Alpha  occ. eigenvalues --   -0.55465  -0.55326  -0.53245  -0.52938  -0.52769
 Alpha  occ. eigenvalues --   -0.52453  -0.49992  -0.48865  -0.48859  -0.48013
 Alpha  occ. eigenvalues --   -0.46719  -0.45855  -0.45759  -0.44864  -0.43887
 Alpha  occ. eigenvalues --   -0.37374  -0.36388
 Alpha virt. eigenvalues --    0.04969   0.11174   0.16405   0.21123   0.22814
 Alpha virt. eigenvalues --    0.24245   0.26557   0.26879   0.27346   0.27837
 Alpha virt. eigenvalues --    0.28596   0.30518   0.31412   0.31909   0.32149

 Mulliken charges:
               1
     1  C   -0.298380
     2  C   -0.300495
     3  C   -0.475844
     4  H    0.149979
     5  H    0.148643
     6  H    0.155566
     7  H    0.151468
     8  H    0.154021
     9  H    0.155867
    10  H    0.161387
    11  C   -0.299102
    12  C   -0.298070
    13  C   -0.481825
    14  H    0.151916
    15  H    0.149415
    16  H    0.151395
    17  H    0.151472
    18  H    0.153746
    19  H    0.162200
    20  H    0.151371
    21  C   -0.167053
    22  C   -0.219647
    23  C   -0.172656
    24  C    0.158837
    25  C   -0.171209
    26  C   -0.218959
    27  H    0.226461
    28  H    0.226100
    29  H    0.276185
    30  H    0.275794
    31  H    0.223872
    32  N    0.487997
    33  O   -0.460269
    34  O   -0.460185
 Sum of Mulliken charges =  -0.00000

 Dipole moment (field-independent basis, Debye):
    X=              0.0595    Y=              5.0561    Z=              0.9381  Tot=              5.1428
 Quadrupole moment (field-independent basis, Debye-Ang):
   XX=            -95.4797   YY=           -101.3772   ZZ=            -90.0875
   XY=             12.6932   XZ=              3.7061   YZ=             -1.3735

 Normal termination of Gaussian 16 at Thu May  6 10:42:15 2021.
