 Gaussian 16, Revision A.03,
 Gaussian 16:  EM64L-G16RevA.03 25-Dec-2016

 -------------
 #p 6-31g* mp2
 -------------

 ------------------------------------------------------
 Input file generated by CHIRIPA (05-May-2021 14:53:15)
 ------------------------------------------------------
 Symbolic Z-matrix:
 Charge =  0 Multiplicity = 1

                         Standard orientation:
 ---------------------------------------------------------------------
 Center     Atomic      Atomic             Coordinates (Angstroms)
 Number     Number       Type             X           Y           Z
 ---------------------------------------------------------------------
      1          6           0       -4.602992    0.313165   -0.149766
      2          6           0       -4.798327   -1.202991   -0.182925
      3          6           0       -6.222554   -1.607325   -0.564873
      4          1           0       -5.314086    0.752581    0.563119
      5          1           0       -4.851373    0.729513   -1.135847
      6          1           0       -4.548322   -1.616516    0.802524
      7          1           0       -4.086555   -1.638868   -0.895673
      8          1           0       -6.479400   -1.222184   -1.556991
      9          1           0       -6.943791   -1.199706    0.150854
     10          1           0       -6.339945   -2.695336   -0.582474
     11          6           0       -3.184243    0.733027    0.230488
     12          6           0       -2.988908    2.249183    0.263648
     13          6           0       -1.564681    2.653517    0.645596
     14          1           0       -2.935861    0.316680    1.216570
     15          1           0       -2.473149    0.293612   -0.482397
     16          1           0       -3.700679    2.685060    0.976395
     17          1           0       -3.238913    2.662709   -0.721802
     18          1           0       -0.843444    2.245898   -0.070132
     19          1           0       -1.307834    2.268377    1.637714
     20          1           0       -1.447289    3.741529    0.663196
     21          6           0        1.039142   -1.886241    0.382847
     22          6           0        2.331331   -2.401350    0.529243
     23          6           0        3.448322   -1.591815    0.302231
     24          6           0        3.235507   -0.265822   -0.071593
     25          6           0        1.960626    0.276606   -0.225669
     26          6           0        0.858233   -0.551261    0.006522
     27          1           0        0.177106   -2.522227    0.561206
     28          1           0        2.474840   -3.437735    0.821398
     29          1           0        4.459773   -1.964817    0.408313
     30          1           0        1.849311    1.313705   -0.517995
     31          1           0       -0.144137   -0.148519   -0.107932
     32          7           0        4.410287    0.600899   -0.314662
     33          8           0        4.195999    1.765741   -0.643080
     34          8           0        5.523126    0.098982   -0.172157
 ---------------------------------------------------------------------

 SCF Done:  E(RHF) =  -669.535084594     A.U. after   15 cycles
 E2 =    -0.2092218879D+01 EUMP2 =    -0.67162730347356D+03

 The electronic state is 1-A.
 Alpha  occ. eigenvalues --  -20.60679 -20.60673 -15.85729 -11.31075 -11.27643
 Alpha  occ. eigenvalues --  -11.27618 -11.27363 -11.26660 -11.26557 -11.22533
 Alpha  occ. eigenvalues --  -11.22471 -11.22431 -11.22231 -11.22032 -11.21729
 Alpha  occ. eigenvalues --   -1.59754  -1.39308  -1.19238  -1.09368  -1.08637
 Alpha  occ. eigenvalues --   -1.04647  -1.04387  -0.96853  -0.95478  -0.87865
 Alpha  occ. eigenvalues --   -0.86041  -0.82322  -0.80467  -0.79227  -0.77353
 Alpha  occ. eigenvalues --   -0.71949  -0.71077  -0.70352  -0.66017  -0.64891
 Alpha  occ. eigenvalues --   -0.64642  -0.62122  -0.61676  -0.60194  -0.58467
 Alpha  occ. eigenvalues --   -0.56149  -0.55141  -0.53504  -0.53301  -0.52962
 Alpha  occ. eigenvalues --   -0.52749  -0.50796  -0.48799  -0.48705  -0.48667
 Alpha  occ. eigenvalues --   -0.47485  -0.46695  -0.46639  -0.44718  -0.44663
 Alpha  occ. eigenvalues --   -0.37222  -0.36235
 Alpha virt. eigenvalues --    0.05164   0.11394   0.16647   0.19574   0.22412
 Alpha virt. eigenvalues --    0.23624   0.25189   0.25527   0.26213   0.28255
 Alpha virt. eigenvalues --    0.29198   0.30001   0.30991   0.31240   0.31425

 Mulliken charges:
               1
     1  C   -0.297476
     2  C   -0.300543
     3  C   -0.476127
     4  H    0.153380
     5  H    0.152728
     6  H    0.150910
     7  H    0.149583
     8  H    0.157192
     9  H    0.157153
    10  H    0.161518
    11  C   -0.305133
    12  C   -0.300376
    13  C   -0.479721
    14  H    0.149877
    15  H    0.143282
    16  H    0.156753
    17  H    0.155679
    18  H    0.146829
    19  H    0.158719
    20  H    0.168659
    21  C   -0.174276
    22  C   -0.218518
    23  C   -0.171505
    24  C    0.159257
    25  C   -0.175528
    26  C   -0.227676
    27  H    0.225774
    28  H    0.222820
    29  H    0.275089
    30  H    0.276256
    31  H    0.238804
    32  N    0.488171
    33  O   -0.460590
    34  O   -0.460963
 Sum of Mulliken charges =  -0.00000

 Dipole moment (field-independent basis, Debye):
    X=             -4.4424    Y=             -2.9264    Z=              0.9021  Tot=              5.3956
 Quadrupole moment (field-independent basis, Debye-Ang):
   XX=           -120.0056   YY=            -90.2123   ZZ=            -94.5429
   XY=            -12.2412   XZ=              3.2950   YZ=             -0.9669

 Normal termination of Gaussian 16 at Thu May  6 17:11:28 2021.
