 Gaussian 16, Revision A.03,
 Gaussian 16:  EM64L-G16RevA.03 25-Dec-2016

 -------------
 #p 6-31g* mp2
 -------------

 ------------------------------------------------------
 Input file generated by CHIRIPA (05-May-2021 14:51:08)
 ------------------------------------------------------
 Symbolic Z-matrix:
 Charge =  0 Multiplicity = 1

                         Standard orientation:
 ---------------------------------------------------------------------
 Center     Atomic      Atomic             Coordinates (Angstroms)
 Number     Number       Type             X           Y           Z
 ---------------------------------------------------------------------
      1          6           0        3.377822   -0.189662    0.541452
      2          6           0        2.344968   -1.309403    0.673281
      3          6           0        1.132273   -0.899600    1.509478
      4          1           0        3.708062    0.115768    1.543749
      5          1           0        2.899236    0.689684    0.088570
      6          1           0        2.825707   -2.186843    1.124508
      7          1           0        2.017291   -1.612334   -0.329453
      8          1           0        0.626867   -0.039119    1.059212
      9          1           0        1.439877   -0.616892    2.521435
     10          1           0        0.406647   -1.714902    1.590780
     11          6           0        4.595988   -0.584136   -0.291729
     12          6           0        5.628841    0.535605   -0.423559
     13          6           0        6.841537    0.125801   -1.259756
     14          1           0        5.074574   -1.463482    0.161152
     15          1           0        4.265748   -0.889566   -1.294026
     16          1           0        5.956519    0.838536    0.579175
     17          1           0        5.148103    1.413044   -0.874786
     18          1           0        6.533933   -0.156907   -2.271713
     19          1           0        7.346942   -0.734679   -0.809490
     20          1           0        7.567162    0.941103   -1.341057
     21          6           0       -4.358581   -0.277370   -0.188386
     22          6           0       -5.826206   -0.115445   -0.585683
     23          6           0       -6.556373   -1.453168   -0.708756
     24          1           0       -3.851181   -0.906589   -0.932410
     25          1           0       -4.302033   -0.816326    0.767504
     26          1           0       -5.880019    0.424260   -1.539852
     27          1           0       -6.330126    0.513619    0.159272
     28          1           0       -6.532366   -1.994129    0.242762
     29          1           0       -6.079701   -2.083996   -1.466016
     30          1           0       -7.603933   -1.314041   -0.993577
     31          6           0       -3.615228    1.051168   -0.061337
     32          6           0       -2.147604    0.889244    0.335961
     33          6           0       -1.417436    2.226967    0.459034
     34          1           0       -3.671776    1.590124   -1.017225
     35          1           0       -4.122629    1.680388    0.682688
     36          1           0       -1.643684    0.260179   -0.408994
     37          1           0       -2.093791    0.349538    1.290129
     38          1           0       -1.894108    2.857794    1.216293
     39          1           0       -1.441444    2.767927   -0.492484
     40          1           0       -0.369877    2.087839    0.743855
 ---------------------------------------------------------------------

 SCF Done:  E(RHF) =  -470.732775291     A.U. after   11 cycles
 E2 =    -0.1583069292D+01 EUMP2 =    -0.47231584458277D+03

 The electronic state is 1-A.
 Alpha  occ. eigenvalues --  -11.21596 -11.21593 -11.21573 -11.21568 -11.21396
 Alpha  occ. eigenvalues --  -11.21396 -11.21337 -11.21336 -11.21083 -11.21068
 Alpha  occ. eigenvalues --  -11.21065 -11.20966  -1.08436  -1.08404  -1.03571
 Alpha  occ. eigenvalues --   -1.03469  -0.96037  -0.95905  -0.87009  -0.86964
 Alpha  occ. eigenvalues --   -0.79653  -0.79515  -0.78268  -0.78194  -0.65063
 Alpha  occ. eigenvalues --   -0.65042  -0.60974  -0.60913  -0.59398  -0.59310
 Alpha  occ. eigenvalues --   -0.57785  -0.57430  -0.55267  -0.55189  -0.52738
 Alpha  occ. eigenvalues --   -0.52645  -0.52501  -0.52223  -0.49919  -0.49858
 Alpha  occ. eigenvalues --   -0.47925  -0.47852  -0.46619  -0.46593  -0.45806
 Alpha  occ. eigenvalues --   -0.45746  -0.45699  -0.45659  -0.43807  -0.43734
 Alpha virt. eigenvalues --    0.21628   0.23064   0.23461   0.25024   0.26283
 Alpha virt. eigenvalues --    0.26546   0.27074   0.27139   0.27967   0.29090
 Alpha virt. eigenvalues --    0.30703   0.30964   0.31587   0.31822   0.32142

 Mulliken charges:
               1
     1  C   -0.298561
     2  C   -0.299442
     3  C   -0.484813
     4  H    0.149638
     5  H    0.149058
     6  H    0.151661
     7  H    0.151467
     8  H    0.167185
     9  H    0.154153
    10  H    0.160198
    11  C   -0.298218
    12  C   -0.299672
    13  C   -0.475698
    14  H    0.149598
    15  H    0.149568
    16  H    0.151940
    17  H    0.151971
    18  H    0.155138
    19  H    0.155168
    20  H    0.160246
    21  C   -0.298258
    22  C   -0.299658
    23  C   -0.475695
    24  H    0.149550
    25  H    0.149633
    26  H    0.151867
    27  H    0.151961
    28  H    0.155204
    29  H    0.155131
    30  H    0.160236
    31  C   -0.298222
    32  C   -0.301116
    33  C   -0.480607
    34  H    0.149250
    35  H    0.149632
    36  H    0.151879
    37  H    0.154902
    38  H    0.155935
    39  H    0.155144
    40  H    0.162646
 Sum of Mulliken charges =  -0.00000

 Dipole moment (field-independent basis, Debye):
    X=             -0.0219    Y=              0.0057    Z=              0.0084  Tot=              0.0241
 Quadrupole moment (field-independent basis, Debye-Ang):
   XX=            -85.9087   YY=            -85.5348   ZZ=            -83.4337
   XY=             -0.5959   XZ=              0.5418   YZ=             -0.4033

 Normal termination of Gaussian 16 at Thu May  6 03:42:19 2021.
