 Gaussian 16, Revision A.03,
 Gaussian 16:  EM64L-G16RevA.03 25-Dec-2016

 -------------
 #p 6-31g* mp2
 -------------

 ------------------------------------------------------
 Input file generated by CHIRIPA (05-May-2021 14:55:22)
 ------------------------------------------------------
 Symbolic Z-matrix:
 Charge =  0 Multiplicity = 1

                         Standard orientation:
 ---------------------------------------------------------------------
 Center     Atomic      Atomic             Coordinates (Angstroms)
 Number     Number       Type             X           Y           Z
 ---------------------------------------------------------------------
      1          6           0       -4.561163    1.072697   -1.031596
      2          6           0       -4.694327    0.658267    0.297703
      3          6           0       -3.643550    0.001865    0.945431
      4          6           0       -2.468411   -0.224801    0.230616
      5          6           0       -2.305235    0.175947   -1.094550
      6          6           0       -3.369144    0.830641   -1.722263
      7          1           0       -5.382532    1.581943   -1.526992
      8          1           0       -5.618909    0.844909    0.836552
      9          1           0       -3.719728   -0.329702    1.973866
     10          1           0       -1.371385   -0.024240   -1.605693
     11          1           0       -3.262906    1.151369   -2.754683
     12          7           0       -1.349050   -0.918800    0.905741
     13          8           0       -0.324035   -1.106561    0.254030
     14          8           0       -1.517904   -1.261855    2.073833
     15          6           0        3.504220    0.701855    0.354659
     16          6           0        3.572602    2.090675   -0.281334
     17          6           0        3.790016    3.201518    0.746553
     18          1           0        2.691618    0.683624    1.093774
     19          1           0        4.434533    0.513505    0.908227
     20          1           0        2.643007    2.275794   -0.834687
     21          1           0        4.385013    2.105545   -1.019157
     22          1           0        4.726492    3.044289    1.291432
     23          1           0        2.974588    3.215506    1.476952
     24          1           0        3.835780    4.185857    0.270273
     25          6           0        3.287192   -0.419176   -0.660188
     26          6           0        3.218810   -1.807996   -0.024194
     27          6           0        3.001396   -2.918841   -1.052080
     28          1           0        2.356879   -0.230827   -1.213754
     29          1           0        4.099794   -0.400945   -1.399301
     30          1           0        2.406399   -1.822867    0.713631
     31          1           0        4.148406   -1.993116    0.529159
     32          1           0        3.816825   -2.932828   -1.782479
     33          1           0        2.064920   -2.761612   -1.596959
     34          1           0        2.955632   -3.903180   -0.575800
 ---------------------------------------------------------------------

 SCF Done:  E(RHF) =  -669.536456764     A.U. after   15 cycles
 E2 =    -0.2091778175D+01 EUMP2 =    -0.67162823493904D+03

 The electronic state is 1-A.
 Alpha  occ. eigenvalues --  -20.61095 -20.61086 -15.86114 -11.31382 -11.27940
 Alpha  occ. eigenvalues --  -11.27934 -11.27664 -11.26933 -11.26923 -11.20908
 Alpha  occ. eigenvalues --  -11.20518 -11.20339 -11.20154 -11.19979 -11.19771
 Alpha  occ. eigenvalues --   -1.60146  -1.39704  -1.19545  -1.08959  -1.07319
 Alpha  occ. eigenvalues --   -1.04933  -1.02450  -0.95809  -0.94948  -0.86336
 Alpha  occ. eigenvalues --   -0.85978  -0.82646  -0.78563  -0.77706  -0.77084
 Alpha  occ. eigenvalues --   -0.72352  -0.71453  -0.70653  -0.65210  -0.64936
 Alpha  occ. eigenvalues --   -0.63904  -0.62281  -0.59808  -0.58361  -0.56548
 Alpha  occ. eigenvalues --   -0.55438  -0.54231  -0.53266  -0.53024  -0.51693
 Alpha  occ. eigenvalues --   -0.51381  -0.49157  -0.49093  -0.48865  -0.46879
 Alpha  occ. eigenvalues --   -0.45563  -0.45134  -0.44642  -0.44424  -0.42708
 Alpha  occ. eigenvalues --   -0.37520  -0.36531
 Alpha virt. eigenvalues --    0.04810   0.11124   0.16310   0.21066   0.23722
 Alpha virt. eigenvalues --    0.25158   0.26659   0.27454   0.28429   0.28836
 Alpha virt. eigenvalues --    0.29023   0.30920   0.31952   0.32693   0.32762

 Mulliken charges:
               1
     1  C   -0.170384
     2  C   -0.218574
     3  C   -0.170443
     4  C    0.157538
     5  C   -0.170783
     6  C   -0.218516
     7  H    0.226392
     8  H    0.224153
     9  H    0.276036
    10  H    0.275535
    11  H    0.224301
    12  N    0.492147
    13  O   -0.464000
    14  O   -0.458143
    15  C   -0.299425
    16  C   -0.298059
    17  C   -0.474980
    18  H    0.157137
    19  H    0.146370
    20  H    0.147308
    21  H    0.149190
    22  H    0.154795
    23  H    0.154917
    24  H    0.156222
    25  C   -0.295100
    26  C   -0.304384
    27  C   -0.474577
    28  H    0.150624
    29  H    0.141493
    30  H    0.178864
    31  H    0.143155
    32  H    0.146634
    33  H    0.157058
    34  H    0.157499
 Sum of Mulliken charges =  -0.00000

 Dipole moment (field-independent basis, Debye):
    X=             -4.3424    Y=              2.3766    Z=             -2.2263  Tot=              5.4278
 Quadrupole moment (field-independent basis, Debye-Ang):
   XX=            -74.3863   YY=            -98.1101   ZZ=            -93.0462
   XY=             -5.3963   XZ=              2.7093   YZ=             -0.1274

 Normal termination of Gaussian 16 at Wed May  5 15:58:28 2021.
