 Gaussian 16, Revision A.03,
 Gaussian 16:  EM64L-G16RevA.03 25-Dec-2016

 -------------
 #p 6-31g* mp2
 -------------

 ------------------------------------------------------
 Input file generated by CHIRIPA (05-May-2021 14:53:15)
 ------------------------------------------------------
 Symbolic Z-matrix:
 Charge =  0 Multiplicity = 1

                         Standard orientation:
 ---------------------------------------------------------------------
 Center     Atomic      Atomic             Coordinates (Angstroms)
 Number     Number       Type             X           Y           Z
 ---------------------------------------------------------------------
      1          6           0        3.246221    0.376557    0.594597
      2          6           0        3.205805    1.886605    0.831462
      3          6           0        1.924029    2.341301    1.530101
      4          1           0        2.375087    0.082720   -0.006843
      5          1           0        3.149482   -0.141520    1.558772
      6          1           0        3.303982    2.401694   -0.132727
      7          1           0        4.077239    2.176909    1.432247
      8          1           0        1.823122    1.853952    2.505247
      9          1           0        1.045471    2.080014    0.931380
     10          1           0        1.916130    3.424067    1.689526
     11          6           0        4.521484   -0.093321   -0.103003
     12          6           0        4.561900   -1.603370   -0.339868
     13          6           0        5.843676   -2.058065   -1.038506
     14          1           0        4.618223    0.424756   -1.067178
     15          1           0        5.392618    0.200515    0.498437
     16          1           0        3.690466   -1.893673   -0.940653
     17          1           0        4.463723   -2.118458    0.624321
     18          1           0        6.722234   -1.796779   -0.439786
     19          1           0        5.944583   -1.570717   -2.013653
     20          1           0        5.851575   -3.140831   -1.197932
     21          6           0       -4.268623   -2.057630    0.833397
     22          6           0       -4.982146   -0.982460    0.293566
     23          6           0       -4.308667    0.101640   -0.277138
     24          6           0       -2.914926    0.077589   -0.291164
     25          6           0       -2.175773   -0.978960    0.238599
     26          6           0       -2.870179   -2.052457    0.804242
     27          1           0       -4.799925   -2.895666    1.274768
     28          1           0       -6.068236   -0.983776    0.314819
     29          1           0       -4.836124    0.946943   -0.702190
     30          1           0       -1.093531   -0.949186    0.202773
     31          1           0       -2.313435   -2.886090    1.222734
     32          7           0       -2.190867    1.219665   -0.892663
     33          8           0       -0.962620    1.174447   -0.892659
     34          8           0       -2.865307    2.138415   -1.352732
 ---------------------------------------------------------------------

 SCF Done:  E(RHF) =  -669.536495013     A.U. after   15 cycles
 E2 =    -0.2091090803D+01 EUMP2 =    -0.67162758581581D+03

 The electronic state is 1-A.
 Alpha  occ. eigenvalues --  -20.60991 -20.60974 -15.86012 -11.31294 -11.27855
 Alpha  occ. eigenvalues --  -11.27849 -11.27590 -11.26857 -11.26846 -11.21318
 Alpha  occ. eigenvalues --  -11.20920 -11.20831 -11.20805 -11.20743 -11.19979
 Alpha  occ. eigenvalues --   -1.60038  -1.39597  -1.19461  -1.08872  -1.07881
 Alpha  occ. eigenvalues --   -1.04852  -1.02933  -0.95722  -0.95374  -0.86397
 Alpha  occ. eigenvalues --   -0.86254  -0.82557  -0.79036  -0.77709  -0.77589
 Alpha  occ. eigenvalues --   -0.72240  -0.71346  -0.70571  -0.65121  -0.64856
 Alpha  occ. eigenvalues --   -0.64499  -0.62200  -0.60311  -0.58790  -0.56991
 Alpha  occ. eigenvalues --   -0.55360  -0.54639  -0.53185  -0.52944  -0.52080
 Alpha  occ. eigenvalues --   -0.51808  -0.49325  -0.49000  -0.48968  -0.47345
 Alpha  occ. eigenvalues --   -0.46083  -0.45264  -0.45169  -0.44859  -0.43206
 Alpha  occ. eigenvalues --   -0.37438  -0.36451
 Alpha virt. eigenvalues --    0.04876   0.11203   0.16346   0.21050   0.23283
 Alpha virt. eigenvalues --    0.24672   0.26207   0.27413   0.27675   0.28641
 Alpha virt. eigenvalues --    0.28923   0.30765   0.31724   0.32207   0.32515

 Mulliken charges:
               1
     1  C   -0.300692
     2  C   -0.297119
     3  C   -0.487769
     4  H    0.155661
     5  H    0.143455
     6  H    0.155375
     7  H    0.147153
     8  H    0.145779
     9  H    0.179833
    10  H    0.157936
    11  C   -0.297805
    12  C   -0.299148
    13  C   -0.475314
    14  H    0.151598
    15  H    0.148216
    16  H    0.150690
    17  H    0.148832
    18  H    0.154800
    19  H    0.156136
    20  H    0.158050
    21  C   -0.170476
    22  C   -0.218625
    23  C   -0.170688
    24  C    0.158091
    25  C   -0.170892
    26  C   -0.218711
    27  H    0.226041
    28  H    0.223815
    29  H    0.275794
    30  H    0.276515
    31  H    0.224166
    32  N    0.490608
    33  O   -0.463205
    34  O   -0.458103
 Sum of Mulliken charges =  -0.00000

 Dipole moment (field-independent basis, Debye):
    X=             -2.8079    Y=             -3.9748    Z=              1.9886  Tot=              5.2572
 Quadrupole moment (field-independent basis, Debye-Ang):
   XX=            -77.1975   YY=            -95.2442   ZZ=            -96.3461
   XY=              9.9891   XZ=             -4.0278   YZ=              0.0580

 Normal termination of Gaussian 16 at Thu May  6 08:59:38 2021.
