 Gaussian 16, Revision A.03,
 Gaussian 16:  EM64L-G16RevA.03 25-Dec-2016

 -------------
 #p 6-31g* mp2
 -------------

 ------------------------------------------------------
 Input file generated by CHIRIPA (05-May-2021 14:57:26)
 ------------------------------------------------------
 Symbolic Z-matrix:
 Charge =  0 Multiplicity = 1

                         Standard orientation:
 ---------------------------------------------------------------------
 Center     Atomic      Atomic             Coordinates (Angstroms)
 Number     Number       Type             X           Y           Z
 ---------------------------------------------------------------------
      1          6           0       -3.931190    1.796724   -0.735954
      2          6           0       -2.533100    1.778930   -0.696613
      3          6           0       -1.847359    0.610832   -0.350414
      4          6           0       -2.594724   -0.526419   -0.048094
      5          6           0       -3.988344   -0.540300   -0.078393
      6          6           0       -4.653078    0.639093   -0.427262
      7          1           0       -4.455730    2.708518   -1.005927
      8          1           0       -1.969871    2.676470   -0.935863
      9          1           0       -0.765595    0.569165   -0.312108
     10          1           0       -4.522385   -1.450727    0.165206
     11          1           0       -5.738915    0.649989   -0.456992
     12          7           0       -1.879881   -1.769011    0.319825
     13          8           0       -2.561454   -2.757663    0.581860
     14          8           0       -0.651549   -1.730775    0.339199
     15          6           0        1.653799    2.286973    1.284488
     16          6           0        2.272425    2.464535    0.042597
     17          6           0        2.862276    1.382727   -0.617947
     18          6           0        2.814894    0.131623   -0.004936
     19          6           0        2.206056   -0.077250    1.231583
     20          6           0        1.622644    1.018883    1.873978
     21          1           0        1.198090    3.132910    1.790565
     22          1           0        2.298133    3.448210   -0.417585
     23          1           0        3.347828    1.491987   -1.580090
     24          1           0        2.196356   -1.069836    1.665282
     25          1           0        1.142906    0.878030    2.838372
     26          7           0        3.435934   -1.021221   -0.694617
     27          8           0        3.380743   -2.113305   -0.133421
     28          8           0        3.966137   -0.810906   -1.783328
 ---------------------------------------------------------------------

 SCF Done:  E(RHF) =  -868.337774485     A.U. after   16 cycles
 E2 =    -0.2601977370D+01 EUMP2 =    -0.87093975185513D+03

 The electronic state is 1-A.
 Alpha  occ. eigenvalues --  -20.60987 -20.60962 -20.60300 -20.60232 -15.86029
 Alpha  occ. eigenvalues --  -15.85332 -11.31390 -11.30917 -11.27980 -11.27920
 Alpha  occ. eigenvalues --  -11.27753 -11.27651 -11.27466 -11.27439 -11.27013
 Alpha  occ. eigenvalues --  -11.26990 -11.26733 -11.26556  -1.60049  -1.59336
 Alpha  occ. eigenvalues --   -1.39604  -1.38881  -1.19582  -1.19184  -1.08983
 Alpha  occ. eigenvalues --   -1.08545  -1.04983  -1.04596  -0.95811  -0.95316
 Alpha  occ. eigenvalues --   -0.86385  -0.85980  -0.82646  -0.82132  -0.77691
 Alpha  occ. eigenvalues --   -0.77110  -0.72265  -0.71554  -0.71376  -0.70693
 Alpha  occ. eigenvalues --   -0.70647  -0.70277  -0.65238  -0.64997  -0.64816
 Alpha  occ. eigenvalues --   -0.64592  -0.62336  -0.61900  -0.55509  -0.55145
 Alpha  occ. eigenvalues --   -0.53343  -0.53279  -0.52705  -0.52669  -0.48999
 Alpha  occ. eigenvalues --   -0.48994  -0.48340  -0.48278  -0.45014  -0.44235
 Alpha  occ. eigenvalues --   -0.37587  -0.37270  -0.36577  -0.36154
 Alpha virt. eigenvalues --    0.04823   0.05437   0.10975   0.11515   0.16252
 Alpha virt. eigenvalues --    0.16872   0.21062   0.21615   0.26909   0.27496
 Alpha virt. eigenvalues --    0.27967   0.28514   0.30634   0.31077   0.32085

 Mulliken charges:
               1
     1  C   -0.170469
     2  C   -0.221275
     3  C   -0.174985
     4  C    0.156385
     5  C   -0.170227
     6  C   -0.219148
     7  H    0.225177
     8  H    0.220135
     9  H    0.283589
    10  H    0.276336
    11  H    0.223972
    12  N    0.489885
    13  O   -0.458158
    14  O   -0.464132
    15  C   -0.178196
    16  C   -0.225596
    17  C   -0.173722
    18  C    0.155532
    19  C   -0.151914
    20  C   -0.225064
    21  H    0.222648
    22  H    0.219732
    23  H    0.275082
    24  H    0.286508
    25  H    0.225302
    26  N    0.488979
    27  O   -0.451450
    28  O   -0.464925
 Sum of Mulliken charges =  -0.00000

 Dipole moment (field-independent basis, Debye):
    X=             -4.6609    Y=              8.0152    Z=              1.2534  Tot=              9.3562
 Quadrupole moment (field-independent basis, Debye-Ang):
   XX=           -100.5992   YY=           -106.7762   ZZ=           -102.9180
   XY=              3.7227   XZ=              9.0645   YZ=             -2.3175

 Normal termination of Gaussian 16 at Thu May  6 22:53:33 2021.
