 Gaussian 16, Revision A.03,
 Gaussian 16:  EM64L-G16RevA.03 25-Dec-2016

 -------------
 #p 6-31g* mp2
 -------------

 ------------------------------------------------------
 Input file generated by CHIRIPA (05-May-2021 14:51:14)
 ------------------------------------------------------
 Symbolic Z-matrix:
 Charge =  0 Multiplicity = 1

                         Standard orientation:
 ---------------------------------------------------------------------
 Center     Atomic      Atomic             Coordinates (Angstroms)
 Number     Number       Type             X           Y           Z
 ---------------------------------------------------------------------
      1          6           0        4.555567   -0.282774   -0.350888
      2          6           0        4.846149   -1.429134    0.618343
      3          6           0        6.251381   -2.006706    0.446515
      4          1           0        4.682676   -0.641331   -1.381531
      5          1           0        5.300166    0.511492   -0.202198
      6          1           0        4.100393   -2.220404    0.468822
      7          1           0        4.718147   -1.067857    1.646793
      8          1           0        7.008678   -1.234468    0.616074
      9          1           0        6.387415   -2.393564   -0.568590
     10          1           0        6.437860   -2.824833    1.149191
     11          6           0        3.154595    0.305057   -0.191331
     12          6           0        2.864013    1.451417   -1.160562
     13          6           0        1.458781    2.028989   -0.988734
     14          1           0        2.409996   -0.489209   -0.340021
     15          1           0        3.027487    0.663614    0.839312
     16          1           0        2.992015    1.090140   -2.189012
     17          1           0        3.609769    2.242687   -1.011041
     18          1           0        1.322747    2.415846    0.026371
     19          1           0        0.701484    1.256751   -1.158293
     20          1           0        1.272302    2.847116   -1.691410
     21          6           0       -4.226210   -0.677336    0.314479
     22          6           0       -5.330633   -0.825466   -0.732561
     23          6           0       -6.063971   -2.163413   -0.633035
     24          1           0       -3.507694   -1.500378    0.199232
     25          1           0       -4.664185   -0.782803    1.316700
     26          1           0       -4.890932   -0.718372   -1.732465
     27          1           0       -6.046500   -0.001867   -0.614931
     28          1           0       -6.529028   -2.275500    0.351729
     29          1           0       -5.366893   -2.996077   -0.772155
     30          1           0       -6.849233   -2.248153   -1.390693
     31          6           0       -3.483952    0.655052    0.227740
     32          6           0       -2.379529    0.803182    1.274780
     33          6           0       -1.646191    2.141131    1.175254
     34          1           0       -3.045977    0.760519   -0.774481
     35          1           0       -4.202468    1.478094    0.342988
     36          1           0       -1.663662   -0.020416    1.157151
     37          1           0       -2.819231    0.696089    2.274685
     38          1           0       -2.343270    2.973794    1.314374
     39          1           0       -1.181135    2.253218    0.190490
     40          1           0       -0.860929    2.225871    1.932911
 ---------------------------------------------------------------------

 SCF Done:  E(RHF) =  -470.732568733     A.U. after   11 cycles
 E2 =    -0.1582798190D+01 EUMP2 =    -0.47231536692308D+03

 The electronic state is 1-A.
 Alpha  occ. eigenvalues --  -11.21611 -11.21598 -11.21583 -11.21527 -11.21416
 Alpha  occ. eigenvalues --  -11.21371 -11.21356 -11.21310 -11.21079 -11.21059
 Alpha  occ. eigenvalues --  -11.21052 -11.20883  -1.08441  -1.08385  -1.03558
 Alpha  occ. eigenvalues --   -1.03455  -0.96048  -0.95871  -0.87108  -0.86852
 Alpha  occ. eigenvalues --   -0.79691  -0.79462  -0.78261  -0.78191  -0.65070
 Alpha  occ. eigenvalues --   -0.65021  -0.60939  -0.60893  -0.59370  -0.59283
 Alpha  occ. eigenvalues --   -0.57632  -0.57524  -0.55286  -0.55237  -0.52751
 Alpha  occ. eigenvalues --   -0.52654  -0.52457  -0.52213  -0.49944  -0.49835
 Alpha  occ. eigenvalues --   -0.47992  -0.47751  -0.46641  -0.46536  -0.45824
 Alpha  occ. eigenvalues --   -0.45726  -0.45707  -0.45602  -0.43791  -0.43728
 Alpha virt. eigenvalues --    0.21861   0.23006   0.23673   0.24890   0.26145
 Alpha virt. eigenvalues --    0.26555   0.27313   0.27437   0.27746   0.29357
 Alpha virt. eigenvalues --    0.29793   0.31184   0.31613   0.32042   0.32392

 Mulliken charges:
               1
     1  C   -0.298271
     2  C   -0.299625
     3  C   -0.475711
     4  H    0.149634
     5  H    0.149604
     6  H    0.151831
     7  H    0.151981
     8  H    0.155221
     9  H    0.155169
    10  H    0.160282
    11  C   -0.298047
    12  C   -0.300583
    13  C   -0.478312
    14  H    0.149052
    15  H    0.149667
    16  H    0.151593
    17  H    0.151968
    18  H    0.160276
    19  H    0.154076
    20  H    0.160035
    21  C   -0.298196
    22  C   -0.299607
    23  C   -0.475667
    24  H    0.149332
    25  H    0.149539
    26  H    0.151788
    27  H    0.151961
    28  H    0.155183
    29  H    0.155054
    30  H    0.160178
    31  C   -0.298438
    32  C   -0.299781
    33  C   -0.481200
    34  H    0.149147
    35  H    0.149690
    36  H    0.151468
    37  H    0.151429
    38  H    0.153652
    39  H    0.166427
    40  H    0.158202
 Sum of Mulliken charges =  -0.00000

 Dipole moment (field-independent basis, Debye):
    X=              0.0269    Y=              0.0240    Z=             -0.0111  Tot=              0.0377
 Quadrupole moment (field-independent basis, Debye-Ang):
   XX=            -85.6833   YY=            -85.2612   ZZ=            -83.9737
   XY=             -0.0694   XZ=             -0.1529   YZ=              0.6620

 Normal termination of Gaussian 16 at Wed May  5 23:16:15 2021.
