 Gaussian 16, Revision A.03,
 Gaussian 16:  EM64L-G16RevA.03 25-Dec-2016

 -------------
 #p 6-31g* mp2
 -------------

 ------------------------------------------------------
 Input file generated by CHIRIPA (05-May-2021 14:53:14)
 ------------------------------------------------------
 Symbolic Z-matrix:
 Charge =  0 Multiplicity = 1

                         Standard orientation:
 ---------------------------------------------------------------------
 Center     Atomic      Atomic             Coordinates (Angstroms)
 Number     Number       Type             X           Y           Z
 ---------------------------------------------------------------------
      1          6           0        4.155020   -0.623371   -0.244899
      2          6           0        2.818338   -0.806694    0.474587
      3          6           0        1.935501   -1.869611   -0.180088
      4          1           0        3.966071   -0.350829   -1.292259
      5          1           0        4.688392   -1.583879   -0.263200
      6          1           0        2.288258    0.154192    0.492741
      7          1           0        3.010492   -1.078644    1.520406
      8          1           0        2.440936   -2.840752   -0.184662
      9          1           0        1.714599   -1.600912   -1.218165
     10          1           0        0.985023   -1.984329    0.350280
     11          6           0        5.048678    0.435897    0.397794
     12          6           0        6.385360    0.619219   -0.321692
     13          6           0        7.268197    1.682137    0.332983
     14          1           0        4.515306    1.396404    0.416095
     15          1           0        5.237627    0.163355    1.445155
     16          1           0        6.193206    0.891169   -1.367511
     17          1           0        6.915440   -0.341666   -0.339846
     18          1           0        7.489100    1.413438    1.371060
     19          1           0        6.762762    2.653278    0.337557
     20          1           0        8.218675    1.796854   -0.197385
     21          6           0       -5.511543    1.689770    0.223715
     22          6           0       -4.313291    2.119362   -0.356080
     23          6           0       -3.244865    1.232364   -0.518097
     24          6           0       -3.409929   -0.083049   -0.087127
     25          6           0       -4.591241   -0.541203    0.494153
     26          6           0       -5.646456    0.363197    0.646237
     27          1           0       -6.336390    2.385571    0.345716
     28          1           0       -4.205681    3.149014   -0.685140
     29          1           0       -2.306157    1.538343   -0.963766
     30          1           0       -4.668645   -1.573738    0.812430
     31          1           0       -6.575875    0.026783    1.096848
     32          7           0       -2.285827   -1.031285   -0.253388
     33          8           0       -2.456465   -2.184994    0.134526
     34          8           0       -1.255405   -0.602850   -0.768470
 ---------------------------------------------------------------------

 SCF Done:  E(RHF) =  -669.535819918     A.U. after   15 cycles
 E2 =    -0.2091234215D+01 EUMP2 =    -0.67162705413316D+03

 The electronic state is 1-A.
 Alpha  occ. eigenvalues --  -20.60960 -20.60954 -15.85985 -11.31310 -11.27873
 Alpha  occ. eigenvalues --  -11.27868 -11.27609 -11.26878 -11.26869 -11.21016
 Alpha  occ. eigenvalues --  -11.20640 -11.20614 -11.20380 -11.20255 -11.19083
 Alpha  occ. eigenvalues --   -1.60019  -1.39574  -1.19477  -1.08882  -1.07519
 Alpha  occ. eigenvalues --   -1.04873  -1.02487  -0.95727  -0.94895  -0.86274
 Alpha  occ. eigenvalues --   -0.85909  -0.82555  -0.78608  -0.77610  -0.77280
 Alpha  occ. eigenvalues --   -0.72200  -0.71335  -0.70586  -0.65132  -0.64877
 Alpha  occ. eigenvalues --   -0.64163  -0.62221  -0.59892  -0.58367  -0.56498
 Alpha  occ. eigenvalues --   -0.55377  -0.54205  -0.53206  -0.52965  -0.51578
 Alpha  occ. eigenvalues --   -0.51341  -0.49101  -0.48959  -0.48651  -0.46886
 Alpha  occ. eigenvalues --   -0.45673  -0.44980  -0.44812  -0.44721  -0.42690
 Alpha  occ. eigenvalues --   -0.37455  -0.36474
 Alpha virt. eigenvalues --    0.04904   0.11181   0.16402   0.21316   0.23684
 Alpha virt. eigenvalues --    0.25435   0.27233   0.27480   0.28192   0.28337
 Alpha virt. eigenvalues --    0.29195   0.30888   0.32318   0.32496   0.32565

 Mulliken charges:
               1
     1  C   -0.297211
     2  C   -0.300659
     3  C   -0.470703
     4  H    0.148457
     5  H    0.147494
     6  H    0.150113
     7  H    0.145852
     8  H    0.143485
     9  H    0.158699
    10  H    0.176961
    11  C   -0.297061
    12  C   -0.298851
    13  C   -0.475069
    14  H    0.147068
    15  H    0.147912
    16  H    0.150947
    17  H    0.151312
    18  H    0.154329
    19  H    0.153668
    20  H    0.158388
    21  C   -0.170567
    22  C   -0.218537
    23  C   -0.170817
    24  C    0.158532
    25  C   -0.170692
    26  C   -0.218578
    27  H    0.226051
    28  H    0.223849
    29  H    0.275624
    30  H    0.275923
    31  H    0.223883
    32  N    0.488452
    33  O   -0.459680
    34  O   -0.458574
 Sum of Mulliken charges =  -0.00000

 Dipole moment (field-independent basis, Debye):
    X=             -4.3713    Y=              3.3153    Z=              0.5365  Tot=              5.5125
 Quadrupole moment (field-independent basis, Debye-Ang):
   XX=            -68.4448   YY=            -93.1555   ZZ=            -94.6139
   XY=             -9.8730   XZ=             -3.2162   YZ=             -2.8046

 Normal termination of Gaussian 16 at Wed May  5 15:34:19 2021.
