 Gaussian 16, Revision A.03,
 Gaussian 16:  EM64L-G16RevA.03 25-Dec-2016

 -------------
 #p 6-31g* mp2
 -------------

 ------------------------------------------------------
 Input file generated by CHIRIPA (05-May-2021 14:55:21)
 ------------------------------------------------------
 Symbolic Z-matrix:
 Charge =  0 Multiplicity = 1

                         Standard orientation:
 ---------------------------------------------------------------------
 Center     Atomic      Atomic             Coordinates (Angstroms)
 Number     Number       Type             X           Y           Z
 ---------------------------------------------------------------------
      1          6           0        2.343384   -1.825173   -1.776661
      2          6           0        2.020953   -2.362993   -0.526338
      3          6           0        1.824716   -1.527038    0.576939
      4          6           0        1.959402   -0.151753    0.393249
      5          6           0        2.279764    0.414339   -0.839714
      6          6           0        2.471535   -0.440665   -1.929090
      7          1           0        2.494091   -2.481962   -2.628314
      8          1           0        1.920781   -3.437838   -0.405016
      9          1           0        1.574320   -1.916709    1.556161
     10          1           0        2.372793    1.489828   -0.929641
     11          1           0        2.721858   -0.020189   -2.898927
     12          7           0        1.754019    0.743318    1.553881
     13          8           0        1.878440    1.951543    1.365869
     14          8           0        1.472507    0.219701    2.629620
     15          6           0       -2.784878   -0.103661    0.281854
     16          6           0       -3.432557   -1.369281   -0.280912
     17          6           0       -3.894534   -2.333191    0.812362
     18          1           0       -1.928659   -0.385709    0.909773
     19          1           0       -3.501976    0.404740    0.941168
     20          1           0       -2.714932   -1.874412   -0.940057
     21          1           0       -4.287218   -1.084177   -0.907720
     22          1           0       -4.629675   -1.851513    1.465168
     23          1           0       -3.048455   -2.646237    1.432646
     24          1           0       -4.354513   -3.231014    0.387870
     25          6           0       -2.317845    0.869797   -0.798880
     26          6           0       -1.670166    2.135417   -0.236114
     27          6           0       -1.208189    3.099327   -1.329388
     28          1           0       -1.600747    0.361396   -1.458193
     29          1           0       -3.174064    1.151845   -1.426799
     30          1           0       -0.815505    1.850314    0.390693
     31          1           0       -2.387791    2.640548    0.423031
     32          1           0       -2.054268    3.412374   -1.949672
     33          1           0       -0.473049    2.617649   -1.982194
     34          1           0       -0.748210    3.997150   -0.904896
 ---------------------------------------------------------------------

 SCF Done:  E(RHF) =  -669.536187299     A.U. after   15 cycles
 E2 =    -0.2093246720D+01 EUMP2 =    -0.67162943401987D+03

 The electronic state is 1-A.
 Alpha  occ. eigenvalues --  -20.60975 -20.60970 -15.85988 -11.31334 -11.27895
 Alpha  occ. eigenvalues --  -11.27887 -11.27623 -11.26901 -11.26891 -11.21520
 Alpha  occ. eigenvalues --  -11.21161 -11.21117 -11.21068 -11.21021 -11.20765
 Alpha  occ. eigenvalues --   -1.60034  -1.39587  -1.19498  -1.08900  -1.08184
 Alpha  occ. eigenvalues --   -1.04893  -1.03289  -0.95765  -0.95733  -0.86782
 Alpha  occ. eigenvalues --   -0.86291  -0.82570  -0.79353  -0.77980  -0.77621
 Alpha  occ. eigenvalues --   -0.72215  -0.71373  -0.70598  -0.65152  -0.64900
 Alpha  occ. eigenvalues --   -0.64807  -0.62241  -0.60695  -0.59117  -0.57345
 Alpha  occ. eigenvalues --   -0.55394  -0.55071  -0.53217  -0.52978  -0.52450
 Alpha  occ. eigenvalues --   -0.52182  -0.49731  -0.48982  -0.48976  -0.47679
 Alpha  occ. eigenvalues --   -0.46444  -0.45560  -0.45484  -0.44808  -0.43537
 Alpha  occ. eigenvalues --   -0.37468  -0.36485
 Alpha virt. eigenvalues --    0.04883   0.11092   0.16358   0.21073   0.22812
 Alpha virt. eigenvalues --    0.24234   0.26567   0.26860   0.27631   0.27877
 Alpha virt. eigenvalues --    0.28810   0.30879   0.31393   0.31977   0.32145

 Mulliken charges:
               1
     1  C   -0.170580
     2  C   -0.218500
     3  C   -0.171379
     4  C    0.157005
     5  C   -0.171794
     6  C   -0.219044
     7  H    0.226342
     8  H    0.224178
     9  H    0.275958
    10  H    0.277401
    11  H    0.224378
    12  N    0.487622
    13  O   -0.457090
    14  O   -0.458102
    15  C   -0.298203
    16  C   -0.299126
    17  C   -0.475186
    18  H    0.150521
    19  H    0.151720
    20  H    0.148123
    21  H    0.151475
    22  H    0.157143
    23  H    0.154123
    24  H    0.158075
    25  C   -0.299240
    26  C   -0.303753
    27  C   -0.474216
    28  H    0.145848
    29  H    0.147601
    30  H    0.160463
    31  H    0.153936
    32  H    0.152670
    33  H    0.145212
    34  H    0.166420
 Sum of Mulliken charges =  -0.00000

 Dipole moment (field-independent basis, Debye):
    X=              0.8403    Y=             -3.1086    Z=             -3.9658  Tot=              5.1085
 Quadrupole moment (field-independent basis, Debye-Ang):
   XX=            -91.8663   YY=            -91.1895   ZZ=            -97.2790
   XY=             -6.4188   XZ=             -8.4968   YZ=             -2.4269

 Normal termination of Gaussian 16 at Wed May  5 15:57:24 2021.
