 Gaussian 16, Revision A.03,
 Gaussian 16:  EM64L-G16RevA.03 25-Dec-2016

 -------------
 #p 6-31g* mp2
 -------------

 ------------------------------------------------------
 Input file generated by CHIRIPA (05-May-2021 14:55:21)
 ------------------------------------------------------
 Symbolic Z-matrix:
 Charge =  0 Multiplicity = 1

                         Standard orientation:
 ---------------------------------------------------------------------
 Center     Atomic      Atomic             Coordinates (Angstroms)
 Number     Number       Type             X           Y           Z
 ---------------------------------------------------------------------
      1          6           0        1.049039    1.077723    1.516262
      2          6           0        2.202528    1.746782    1.093953
      3          6           0        3.209332    1.061843    0.407111
      4          6           0        3.028963   -0.297895    0.158371
      5          6           0        1.891189   -0.992443    0.566247
      6          6           0        0.897319   -0.287348    1.251527
      7          1           0        0.271953    1.617629    2.049210
      8          1           0        2.323058    2.806884    1.298160
      9          1           0        4.112451    1.555144    0.068809
     10          1           0        1.799503   -2.049515    0.348045
     11          1           0        0.002566   -0.809533    1.578306
     12          7           0        4.087976   -1.033678   -0.567932
     13          8           0        3.905039   -2.231348   -0.774713
     14          8           0        5.080913   -0.398784   -0.916673
     15          6           0       -3.425487    0.895622   -0.644182
     16          6           0       -1.910728    1.096018   -0.586424
     17          6           0       -1.469685    2.440076   -1.166756
     18          1           0       -3.759712    0.973411   -1.687823
     19          1           0       -3.917421    1.711564   -0.096792
     20          1           0       -1.421744    0.279185   -1.132587
     21          1           0       -1.580044    1.017553    0.457179
     22          1           0       -1.930703    3.266987   -0.616954
     23          1           0       -1.771502    2.524424   -2.215752
     24          1           0       -0.383293    2.562451   -1.115416
     25          6           0       -3.881842   -0.443454   -0.067688
     26          6           0       -5.396599   -0.643849   -0.125445
     27          6           0       -5.837643   -1.987906    0.454886
     28          1           0       -3.389908   -1.259395   -0.615078
     29          1           0       -3.547617   -0.521242    0.975953
     30          1           0       -5.727284   -0.565384   -1.169049
     31          1           0       -5.885584    0.172984    0.420717
     32          1           0       -5.535826   -2.072254    1.503882
     33          1           0       -5.376626   -2.814817   -0.094916
     34          1           0       -6.924036   -2.110283    0.403547
 ---------------------------------------------------------------------

 SCF Done:  E(RHF) =  -669.534011553     A.U. after   15 cycles
 E2 =    -0.2093670036D+01 EUMP2 =    -0.67162768158921D+03

 The electronic state is 1-A.
 Alpha  occ. eigenvalues --  -20.60766 -20.60760 -15.85820 -11.31187 -11.27764
 Alpha  occ. eigenvalues --  -11.27741 -11.27502 -11.26792 -11.26748 -11.22254
 Alpha  occ. eigenvalues --  -11.22138 -11.22057 -11.21966 -11.21647 -11.21541
 Alpha  occ. eigenvalues --   -1.59841  -1.39395  -1.19372  -1.09073  -1.08759
 Alpha  occ. eigenvalues --   -1.04777  -1.04112  -0.96559  -0.95601  -0.87574
 Alpha  occ. eigenvalues --   -0.86180  -0.82431  -0.80197  -0.78896  -0.77465
 Alpha  occ. eigenvalues --   -0.72039  -0.71165  -0.70511  -0.65712  -0.65022
 Alpha  occ. eigenvalues --   -0.64775  -0.62126  -0.61512  -0.59944  -0.58199
 Alpha  occ. eigenvalues --   -0.55866  -0.55267  -0.53350  -0.53049  -0.52883
 Alpha  occ. eigenvalues --   -0.52854  -0.50504  -0.48801  -0.48794  -0.48495
 Alpha  occ. eigenvalues --   -0.47235  -0.46430  -0.46341  -0.44800  -0.44376
 Alpha  occ. eigenvalues --   -0.37263  -0.36336
 Alpha virt. eigenvalues --    0.05036   0.11220   0.16467   0.20089   0.22717
 Alpha virt. eigenvalues --    0.23889   0.25248   0.26168   0.27108   0.28208
 Alpha virt. eigenvalues --    0.28747   0.30535   0.31044   0.31338   0.31643

 Mulliken charges:
               1
     1  C   -0.168036
     2  C   -0.220972
     3  C   -0.171426
     4  C    0.158449
     5  C   -0.173286
     6  C   -0.213108
     7  H    0.225952
     8  H    0.223838
     9  H    0.275667
    10  H    0.275560
    11  H    0.224754
    12  N    0.488098
    13  O   -0.460474
    14  O   -0.460468
    15  C   -0.298324
    16  C   -0.296483
    17  C   -0.479985
    18  H    0.152769
    19  H    0.148884
    20  H    0.155872
    21  H    0.139647
    22  H    0.152103
    23  H    0.159201
    24  H    0.163179
    25  C   -0.298285
    26  C   -0.299798
    27  C   -0.476139
    28  H    0.150524
    29  H    0.142977
    30  H    0.154338
    31  H    0.152407
    32  H    0.153989
    33  H    0.156231
    34  H    0.162342
 Sum of Mulliken charges =  -0.00000

 Dipole moment (field-independent basis, Debye):
    X=             -3.7856    Y=              2.5762    Z=              2.4844  Tot=              5.2096
 Quadrupole moment (field-independent basis, Debye-Ang):
   XX=           -116.4533   YY=            -93.7125   ZZ=            -93.9068
   XY=             11.3171   XZ=              7.3623   YZ=              0.0894

 Normal termination of Gaussian 16 at Thu May  6 07:46:00 2021.
