 Gaussian 16, Revision A.03,
 Gaussian 16:  EM64L-G16RevA.03 25-Dec-2016

 -------------
 #p 6-31g* mp2
 -------------

 ------------------------------------------------------
 Input file generated by CHIRIPA (05-May-2021 14:57:22)
 ------------------------------------------------------
 Symbolic Z-matrix:
 Charge =  0 Multiplicity = 1

                         Standard orientation:
 ---------------------------------------------------------------------
 Center     Atomic      Atomic             Coordinates (Angstroms)
 Number     Number       Type             X           Y           Z
 ---------------------------------------------------------------------
      1          6           0       -1.646390   -1.705686    1.066531
      2          6           0       -1.577032   -0.332453    1.323322
      3          6           0       -2.526327    0.539835    0.782489
      4          6           0       -3.536025    0.002336   -0.014315
      5          6           0       -3.631977   -1.361087   -0.288469
      6          6           0       -2.671833   -2.214723    0.262872
      7          1           0       -0.904740   -2.376055    1.490744
      8          1           0       -0.781767    0.065677    1.947094
      9          1           0       -2.496324    1.607148    0.965135
     10          1           0       -4.436410   -1.728401   -0.914078
     11          1           0       -2.728181   -3.280753    0.061751
     12          7           0       -4.546744    0.915915   -0.592433
     13          8           0       -5.426434    0.417421   -1.291208
     14          8           0       -4.440118    2.113174   -0.335839
     15          6           0        3.262907    2.637560    0.316302
     16          6           0        4.268648    2.100418   -0.493936
     17          6           0        4.337352    0.722640   -0.720993
     18          6           0        3.379746   -0.092427   -0.119372
     19          6           0        2.365641    0.412609    0.692921
     20          6           0        2.316283    1.793430    0.906105
     21          1           0        3.217050    3.709032    0.487296
     22          1           0        5.005147    2.753580   -0.953278
     23          1           0        5.105321    0.280214   -1.343810
     24          1           0        1.645556   -0.263796    1.137186
     25          1           0        1.534096    2.207794    1.535811
     26          7           0        3.442240   -1.552629   -0.352403
     27          8           0        2.586689   -2.249342    0.189132
     28          8           0        4.345590   -1.972774   -1.072176
 ---------------------------------------------------------------------

 SCF Done:  E(RHF) =  -868.337757775     A.U. after   16 cycles
 E2 =    -0.2599992515D+01 EUMP2 =    -0.87093775028977D+03

 The electronic state is 1-A.
 Alpha  occ. eigenvalues --  -20.61473 -20.61436 -20.60887 -20.60871 -15.86509
 Alpha  occ. eigenvalues --  -15.85940 -11.31809 -11.31286 -11.28461 -11.28326
 Alpha  occ. eigenvalues --  -11.28070 -11.27973 -11.27836 -11.27538 -11.27431
 Alpha  occ. eigenvalues --  -11.27308 -11.27007 -11.26754  -1.60523  -1.59958
 Alpha  occ. eigenvalues --   -1.40083  -1.39513  -1.19973  -1.19471  -1.09367
 Alpha  occ. eigenvalues --   -1.08845  -1.05390  -1.04896  -0.96222  -0.95678
 Alpha  occ. eigenvalues --   -0.86784  -0.86290  -0.83077  -0.82530  -0.78151
 Alpha  occ. eigenvalues --   -0.77598  -0.72738  -0.72158  -0.71835  -0.71282
 Alpha  occ. eigenvalues --   -0.71089  -0.70506  -0.65643  -0.65427  -0.65119
 Alpha  occ. eigenvalues --   -0.64934  -0.62805  -0.62194  -0.55856  -0.55292
 Alpha  occ. eigenvalues --   -0.53691  -0.53520  -0.53166  -0.52983  -0.49497
 Alpha  occ. eigenvalues --   -0.49468  -0.48916  -0.48911  -0.45503  -0.44924
 Alpha  occ. eigenvalues --   -0.37919  -0.37406  -0.36985  -0.36477
 Alpha virt. eigenvalues --    0.04422   0.04973   0.10618   0.11111   0.15910
 Alpha virt. eigenvalues --    0.16486   0.18466   0.22262   0.24992   0.26507
 Alpha virt. eigenvalues --    0.27998   0.29395   0.30445   0.31529   0.32252

 Mulliken charges:
               1
     1  C   -0.167530
     2  C   -0.222023
     3  C   -0.170117
     4  C    0.157894
     5  C   -0.169616
     6  C   -0.218660
     7  H    0.237202
     8  H    0.211417
     9  H    0.271669
    10  H    0.276764
    11  H    0.227829
    12  N    0.488314
    13  O   -0.459164
    14  O   -0.462487
    15  C   -0.169439
    16  C   -0.218259
    17  C   -0.169466
    18  C    0.159293
    19  C   -0.169907
    20  C   -0.218177
    21  H    0.228743
    22  H    0.226341
    23  H    0.277435
    24  H    0.267511
    25  H    0.218957
    26  N    0.489225
    27  O   -0.467219
    28  O   -0.456533
 Sum of Mulliken charges =  -0.00000

 Dipole moment (field-independent basis, Debye):
    X=              3.4580    Y=              1.8167    Z=              2.6849  Tot=              4.7399
 Quadrupole moment (field-independent basis, Debye-Ang):
   XX=           -127.0713   YY=           -102.8562   ZZ=           -103.8327
   XY=             32.4565   XZ=             -6.2484   YZ=              0.7857

 Normal termination of Gaussian 16 at Fri May  7 00:15:13 2021.
