 Gaussian 16, Revision A.03,
 Gaussian 16:  EM64L-G16RevA.03 25-Dec-2016

 -------------
 #p 6-31g* mp2
 -------------

 ------------------------------------------------------
 Input file generated by CHIRIPA (05-May-2021 14:51:14)
 ------------------------------------------------------
 Symbolic Z-matrix:
 Charge =  0 Multiplicity = 1

                         Standard orientation:
 ---------------------------------------------------------------------
 Center     Atomic      Atomic             Coordinates (Angstroms)
 Number     Number       Type             X           Y           Z
 ---------------------------------------------------------------------
      1          6           0        3.283073    1.127840    0.187670
      2          6           0        2.344942    2.154779   -0.447382
      3          6           0        2.404727    3.517171    0.244072
      4          1           0        3.026050    1.013243    1.249627
      5          1           0        4.312056    1.511907    0.154800
      6          1           0        1.318219    1.768285   -0.414571
      7          1           0        2.604104    2.266803   -1.507996
      8          1           0        3.418597    3.927838    0.199118
      9          1           0        2.125405    3.426488    1.298756
     10          1           0        1.726366    4.236041   -0.225941
     11          6           0        3.234586   -0.239137   -0.492589
     12          6           0        4.172717   -1.266077    0.142463
     13          6           0        4.112932   -2.628468   -0.548991
     14          1           0        2.205602   -0.623204   -0.459719
     15          1           0        3.491608   -0.124540   -1.554545
     16          1           0        3.913555   -1.378100    1.203077
     17          1           0        5.199440   -0.879582    0.109652
     18          1           0        4.392254   -2.537785   -1.603675
     19          1           0        3.099062   -3.039136   -0.504037
     20          1           0        4.791292   -3.347338   -0.078978
     21          6           0       -2.675811   -0.925642    0.043462
     22          6           0       -1.463477   -0.618625    0.923220
     23          6           0       -0.305305   -1.590091    0.693687
     24          1           0       -3.012550   -1.952797    0.239692
     25          1           0       -2.371968   -0.892575   -1.011990
     26          1           0       -1.769828   -0.650900    1.976655
     27          1           0       -1.129703    0.407983    0.725014
     28          1           0        0.028252   -1.552531   -0.348392
     29          1           0       -0.615512   -2.617430    0.910360
     30          1           0        0.550817   -1.352282    1.332719
     31          6           0       -3.841848    0.036939    0.261456
     32          6           0       -5.054182   -0.270078   -0.618302
     33          6           0       -6.212353    0.701388   -0.388769
     34          1           0       -4.145691    0.003871    1.316909
     35          1           0       -3.505109    1.064093    0.065227
     36          1           0       -5.387956   -1.296686   -0.420095
     37          1           0       -4.747830   -0.237803   -1.671736
     38          1           0       -5.902147    1.728728   -0.605442
     39          1           0       -6.545910    0.663828    0.653312
     40          1           0       -7.068476    0.463580   -1.027800
 ---------------------------------------------------------------------

 SCF Done:  E(RHF) =  -470.732701679     A.U. after   11 cycles
 E2 =    -0.1583713682D+01 EUMP2 =    -0.47231641536085D+03

 The electronic state is 1-A.
 Alpha  occ. eigenvalues --  -11.21715 -11.21639 -11.21591 -11.21524 -11.21470
 Alpha  occ. eigenvalues --  -11.21406 -11.21331 -11.21197 -11.21186 -11.21098
 Alpha  occ. eigenvalues --  -11.21064 -11.20996  -1.08505  -1.08359  -1.03612
 Alpha  occ. eigenvalues --   -1.03478  -0.96076  -0.95912  -0.87103  -0.86926
 Alpha  occ. eigenvalues --   -0.79704  -0.79523  -0.78314  -0.78169  -0.65227
 Alpha  occ. eigenvalues --   -0.64943  -0.61010  -0.60885  -0.59424  -0.59292
 Alpha  occ. eigenvalues --   -0.57667  -0.57540  -0.55469  -0.55116  -0.52778
 Alpha  occ. eigenvalues --   -0.52626  -0.52485  -0.52341  -0.50131  -0.49768
 Alpha  occ. eigenvalues --   -0.47996  -0.47869  -0.46829  -0.46484  -0.45906
 Alpha  occ. eigenvalues --   -0.45771  -0.45703  -0.45449  -0.43830  -0.43718
 Alpha virt. eigenvalues --    0.20119   0.22899   0.23707   0.24428   0.25936
 Alpha virt. eigenvalues --    0.26564   0.27120   0.27358   0.27844   0.29820
 Alpha virt. eigenvalues --    0.30335   0.31009   0.31706   0.32087   0.32190

 Mulliken charges:
               1
     1  C   -0.297580
     2  C   -0.301992
     3  C   -0.475572
     4  H    0.148780
     5  H    0.149336
     6  H    0.153023
     7  H    0.151893
     8  H    0.155340
     9  H    0.155203
    10  H    0.159866
    11  C   -0.308681
    12  C   -0.299005
    13  C   -0.476652
    14  H    0.162338
    15  H    0.148288
    16  H    0.151017
    17  H    0.151496
    18  H    0.154752
    19  H    0.156568
    20  H    0.159851
    21  C   -0.298736
    22  C   -0.302410
    23  C   -0.480730
    24  H    0.149997
    25  H    0.150152
    26  H    0.152644
    27  H    0.153696
    28  H    0.157987
    29  H    0.156367
    30  H    0.162130
    31  C   -0.298428
    32  C   -0.299739
    33  C   -0.475762
    34  H    0.149658
    35  H    0.149855
    36  H    0.152023
    37  H    0.152094
    38  H    0.155296
    39  H    0.155232
    40  H    0.160406
 Sum of Mulliken charges =  -0.00000

 Dipole moment (field-independent basis, Debye):
    X=             -0.0749    Y=             -0.0284    Z=              0.0037  Tot=              0.0802
 Quadrupole moment (field-independent basis, Debye-Ang):
   XX=            -85.1347   YY=            -85.8140   ZZ=            -84.0178
   XY=              1.1060   XZ=             -0.6658   YZ=             -1.0919

 Normal termination of Gaussian 16 at Wed May  5 18:25:55 2021.
