 Gaussian 16, Revision A.03,
 Gaussian 16:  EM64L-G16RevA.03 25-Dec-2016

 -------------
 #p 6-31g* mp2
 -------------

 ------------------------------------------------------
 Input file generated by CHIRIPA (05-May-2021 14:53:18)
 ------------------------------------------------------
 Symbolic Z-matrix:
 Charge =  0 Multiplicity = 1

                         Standard orientation:
 ---------------------------------------------------------------------
 Center     Atomic      Atomic             Coordinates (Angstroms)
 Number     Number       Type             X           Y           Z
 ---------------------------------------------------------------------
      1          6           0       -3.001984    0.953304   -0.124523
      2          6           0       -4.042595    2.071073   -0.048970
      3          6           0       -3.416963    3.465391   -0.096459
      4          1           0       -2.291010    1.066195    0.705366
      5          1           0       -2.421400    1.064340   -1.050799
      6          1           0       -4.621962    1.957150    0.876217
      7          1           0       -4.751286    1.955395   -0.879024
      8          1           0       -2.854436    3.603787   -1.025443
      9          1           0       -2.724377    3.605552    0.739771
     10          1           0       -4.178713    4.249313   -0.041118
     11          6           0       -3.612036   -0.446488   -0.078175
     12          6           0       -2.571426   -1.564257   -0.153728
     13          6           0       -3.197057   -2.958575   -0.106239
     14          1           0       -4.192620   -0.557524    0.848101
     15          1           0       -4.323010   -0.559379   -0.908064
     16          1           0       -1.862734   -1.448579    0.676326
     17          1           0       -1.992058   -1.450334   -1.078915
     18          1           0       -3.889643   -3.098736   -0.942469
     19          1           0       -3.759584   -3.096971    0.822745
     20          1           0       -2.435307   -3.742497   -0.161580
     21          6           0        4.245310    1.671771   -0.250515
     22          6           0        3.977436    0.781035   -1.295194
     23          6           0        3.058622   -0.258650   -1.123773
     24          6           0        2.422954   -0.378735    0.111053
     25          6           0        2.668498    0.492714    1.171040
     26          6           0        3.591139    1.525026    0.977104
     27          1           0        4.960554    2.476559   -0.392425
     28          1           0        4.483985    0.892582   -2.249663
     29          1           0        2.832408   -0.962357   -1.915633
     30          1           0        2.147856    0.356062    2.111081
     31          1           0        3.797200    2.215302    1.790186
     32          7           0        1.448220   -1.475500    0.304446
     33          8           0        0.901442   -1.559804    1.401972
     34          8           0        1.249459   -2.230072   -0.645160
 ---------------------------------------------------------------------

 SCF Done:  E(RHF) =  -669.536514812     A.U. after   15 cycles
 E2 =    -0.2091711618D+01 EUMP2 =    -0.67162822643015D+03

 The electronic state is 1-A.
 Alpha  occ. eigenvalues --  -20.60977 -20.60968 -15.85983 -11.31297 -11.27858
 Alpha  occ. eigenvalues --  -11.27854 -11.27592 -11.26861 -11.26851 -11.21127
 Alpha  occ. eigenvalues --  -11.20784 -11.20715 -11.20393 -11.20055 -11.19692
 Alpha  occ. eigenvalues --   -1.60013  -1.39574  -1.19461  -1.08867  -1.07579
 Alpha  occ. eigenvalues --   -1.04857  -1.02604  -0.95712  -0.95114  -0.86258
 Alpha  occ. eigenvalues --   -0.86145  -0.82549  -0.78740  -0.77603  -0.77298
 Alpha  occ. eigenvalues --   -0.72209  -0.71312  -0.70572  -0.65119  -0.64861
 Alpha  occ. eigenvalues --   -0.64220  -0.62205  -0.60008  -0.58533  -0.56663
 Alpha  occ. eigenvalues --   -0.55360  -0.54437  -0.53186  -0.52949  -0.51802
 Alpha  occ. eigenvalues --   -0.51535  -0.49136  -0.48977  -0.48965  -0.47013
 Alpha  occ. eigenvalues --   -0.45827  -0.45177  -0.44839  -0.44435  -0.42872
 Alpha  occ. eigenvalues --   -0.37435  -0.36456
 Alpha virt. eigenvalues --    0.04891   0.11199   0.16376   0.21328   0.23620
 Alpha virt. eigenvalues --    0.25284   0.27241   0.27473   0.28051   0.28514
 Alpha virt. eigenvalues --    0.28835   0.30909   0.32199   0.32445   0.32572

 Mulliken charges:
               1
     1  C   -0.297474
     2  C   -0.298652
     3  C   -0.474872
     4  H    0.148977
     5  H    0.146340
     6  H    0.151515
     7  H    0.151147
     8  H    0.153227
     9  H    0.152838
    10  H    0.158510
    11  C   -0.297742
    12  C   -0.307553
    13  C   -0.475844
    14  H    0.146917
    15  H    0.145375
    16  H    0.172241
    17  H    0.151808
    18  H    0.147652
    19  H    0.150255
    20  H    0.169441
    21  C   -0.170481
    22  C   -0.218554
    23  C   -0.170797
    24  C    0.159421
    25  C   -0.170630
    26  C   -0.218461
    27  H    0.226053
    28  H    0.223820
    29  H    0.275736
    30  H    0.275508
    31  H    0.223848
    32  N    0.489300
    33  O   -0.459962
    34  O   -0.458909
 Sum of Mulliken charges =  -0.00000

 Dipole moment (field-independent basis, Debye):
    X=              3.7396    Y=              3.7350    Z=             -0.6284  Tot=              5.3226
 Quadrupole moment (field-independent basis, Debye-Ang):
   XX=            -79.7225   YY=            -99.2118   ZZ=            -89.5779
   XY=              7.8444   XZ=             -2.3156   YZ=              2.3576

 Normal termination of Gaussian 16 at Thu May  6 12:19:14 2021.
