 Gaussian 16, Revision A.03,
 Gaussian 16:  EM64L-G16RevA.03 25-Dec-2016

 -------------
 #p 6-31g* mp2
 -------------

 ------------------------------------------------------
 Input file generated by CHIRIPA (05-May-2021 14:55:23)
 ------------------------------------------------------
 Symbolic Z-matrix:
 Charge =  0 Multiplicity = 1

                         Standard orientation:
 ---------------------------------------------------------------------
 Center     Atomic      Atomic             Coordinates (Angstroms)
 Number     Number       Type             X           Y           Z
 ---------------------------------------------------------------------
      1          6           0        1.743569    1.768139    0.613570
      2          6           0        2.338126    1.719980   -0.651620
      3          6           0        3.357097    0.801988   -0.922794
      4          6           0        3.758711   -0.056915    0.099108
      5          6           0        3.185891   -0.033301    1.369781
      6          6           0        2.168600    0.892887    1.618460
      7          1           0        0.952660    2.484441    0.815487
      8          1           0        2.010063    2.398497   -1.433946
      9          1           0        3.834635    0.743203   -1.893319
     10          1           0        3.534219   -0.722479    2.129465
     11          1           0        1.708667    0.928034    2.601960
     12          7           0        4.836561   -1.033091   -0.176065
     13          8           0        5.172402   -1.778980    0.741267
     14          8           0        5.325130   -1.033845   -1.303866
     15          6           0       -3.903947    0.132203    0.040701
     16          6           0       -2.814671   -0.008607   -1.023084
     17          6           0       -1.460388    0.526528   -0.556883
     18          1           0       -4.002093    1.190696    0.318017
     19          1           0       -3.590851   -0.401135    0.948949
     20          1           0       -3.130343    0.523675   -1.929529
     21          1           0       -2.719239   -1.066864   -1.298038
     22          1           0       -1.119709   -0.011023    0.333948
     23          1           0       -1.533149    1.588553   -0.301131
     24          1           0       -0.696374    0.415972   -1.332718
     25          6           0       -5.263589   -0.398368   -0.410518
     26          6           0       -6.352864   -0.257558    0.653266
     27          6           0       -7.707147   -0.792693    0.187066
     28          1           0       -5.576685    0.134970   -1.318767
     29          1           0       -5.165442   -1.456861   -0.687834
     30          1           0       -6.448296    0.800699    0.928221
     31          1           0       -6.037193   -0.789840    1.559711
     32          1           0       -7.634387   -1.854718   -0.068686
     33          1           0       -8.047827   -0.255143   -0.703764
     34          1           0       -8.471161   -0.682137    0.962900
 ---------------------------------------------------------------------

 SCF Done:  E(RHF) =  -669.535511799     A.U. after   15 cycles
 E2 =    -0.2091547967D+01 EUMP2 =    -0.67162705976507D+03

 The electronic state is 1-A.
 Alpha  occ. eigenvalues --  -20.60736 -20.60731 -15.85792 -11.31142 -11.27733
 Alpha  occ. eigenvalues --  -11.27730 -11.27456 -11.26727 -11.26717 -11.22100
 Alpha  occ. eigenvalues --  -11.21948 -11.21871 -11.21751 -11.21734 -11.21355
 Alpha  occ. eigenvalues --   -1.59813  -1.39367  -1.19327  -1.08872  -1.08716
 Alpha  occ. eigenvalues --   -1.04733  -1.03977  -0.96445  -0.95549  -0.87462
 Alpha  occ. eigenvalues --   -0.86127  -0.82389  -0.80048  -0.78677  -0.77438
 Alpha  occ. eigenvalues --   -0.72010  -0.71137  -0.70428  -0.65498  -0.64980
 Alpha  occ. eigenvalues --   -0.64734  -0.62083  -0.61375  -0.59806  -0.58047
 Alpha  occ. eigenvalues --   -0.55752  -0.55219  -0.53423  -0.52900  -0.52821
 Alpha  occ. eigenvalues --   -0.52720  -0.50386  -0.48768  -0.48765  -0.48363
 Alpha  occ. eigenvalues --   -0.47075  -0.46223  -0.46137  -0.44776  -0.44230
 Alpha  occ. eigenvalues --   -0.37236  -0.36333
 Alpha virt. eigenvalues --    0.05094   0.11253   0.16547   0.20833   0.22516
 Alpha virt. eigenvalues --    0.23943   0.25943   0.26591   0.27093   0.27427
 Alpha virt. eigenvalues --    0.28726   0.30144   0.31152   0.31582   0.32142

 Mulliken charges:
               1
     1  C   -0.163255
     2  C   -0.219652
     3  C   -0.171515
     4  C    0.158233
     5  C   -0.170781
     6  C   -0.220819
     7  H    0.226939
     8  H    0.223442
     9  H    0.275428
    10  H    0.275417
    11  H    0.223262
    12  N    0.488131
    13  O   -0.460686
    14  O   -0.460669
    15  C   -0.298380
    16  C   -0.301187
    17  C   -0.475569
    18  H    0.147620
    19  H    0.149260
    20  H    0.152086
    21  H    0.155268
    22  H    0.156598
    23  H    0.144480
    24  H    0.163472
    25  C   -0.298531
    26  C   -0.299823
    27  C   -0.475929
    28  H    0.150006
    29  H    0.151187
    30  H    0.151356
    31  H    0.152062
    32  H    0.156091
    33  H    0.155525
    34  H    0.160933
 Sum of Mulliken charges =  -0.00000

 Dipole moment (field-independent basis, Debye):
    X=             -3.8641    Y=              3.4083    Z=              0.9612  Tot=              5.2413
 Quadrupole moment (field-independent basis, Debye-Ang):
   XX=           -125.0116   YY=            -94.5151   ZZ=            -90.1622
   XY=             13.0089   XZ=              2.8502   YZ=             -1.9407

 Normal termination of Gaussian 16 at Thu May  6 11:00:22 2021.
