 Gaussian 16, Revision A.03,
 Gaussian 16:  EM64L-G16RevA.03 25-Dec-2016

 -------------
 #p 6-31g* mp2
 -------------

 ------------------------------------------------------
 Input file generated by CHIRIPA (05-May-2021 14:55:25)
 ------------------------------------------------------
 Symbolic Z-matrix:
 Charge =  0 Multiplicity = 1

                         Standard orientation:
 ---------------------------------------------------------------------
 Center     Atomic      Atomic             Coordinates (Angstroms)
 Number     Number       Type             X           Y           Z
 ---------------------------------------------------------------------
      1          6           0       -2.587783    2.157842    0.002711
      2          6           0       -1.815676    1.019525   -0.251470
      3          6           0       -2.403085   -0.249094   -0.261639
      4          6           0       -3.771432   -0.343164   -0.012507
      5          6           0       -4.567418    0.772142    0.243984
      6          6           0       -3.958773    2.030741    0.249192
      7          1           0       -2.123221    3.139444    0.008684
      8          1           0       -0.750726    1.115222   -0.443220
      9          1           0       -1.828920   -1.146952   -0.455555
     10          1           0       -5.626679    0.645012    0.431663
     11          1           0       -4.560872    2.913031    0.446892
     12          7           0       -4.404537   -1.680891   -0.020647
     13          8           0       -5.612024   -1.736974    0.201766
     14          8           0       -3.681290   -2.647987   -0.249285
     15          6           0        5.443730    0.013918   -0.011438
     16          6           0        5.785081   -1.465810    0.167079
     17          6           0        7.288998   -1.736230    0.113239
     18          1           0        5.846379    0.363251   -0.972055
     19          1           0        5.950239    0.596784    0.770299
     20          1           0        5.276967   -2.045866   -0.613929
     21          1           0        5.381407   -1.811710    1.127297
     22          1           0        7.808422   -1.182743    0.902195
     23          1           0        7.703390   -1.418229   -0.848923
     24          1           0        7.510495   -2.800163    0.243029
     25          6           0        3.944018    0.300170    0.040021
     26          6           0        3.602667    1.779899   -0.138496
     27          6           0        2.098750    2.050319   -0.084655
     28          1           0        3.437508   -0.282695   -0.741716
     29          1           0        3.541369   -0.049162    1.000639
     30          1           0        4.006341    2.125798   -1.098712
     31          1           0        4.110781    2.359954    0.642512
     32          1           0        1.684358    1.732318    0.877507
     33          1           0        1.579325    1.496832   -0.873611
     34          1           0        1.877252    3.114252   -0.214446
 ---------------------------------------------------------------------

 SCF Done:  E(RHF) =  -669.535573336     A.U. after   15 cycles
 E2 =    -0.2090944296D+01 EUMP2 =    -0.67162651763216D+03

 The electronic state is 1-A.
 Alpha  occ. eigenvalues --  -20.60691 -20.60686 -15.85742 -11.31084 -11.27652
 Alpha  occ. eigenvalues --  -11.27630 -11.27372 -11.26668 -11.26573 -11.22447
 Alpha  occ. eigenvalues --  -11.22299 -11.22035 -11.21960 -11.21848 -11.21351
 Alpha  occ. eigenvalues --   -1.59767  -1.39321  -1.19248  -1.09038  -1.08647
 Alpha  occ. eigenvalues --   -1.04647  -1.04181  -0.96666  -0.95488  -0.87704
 Alpha  occ. eigenvalues --   -0.86040  -0.82321  -0.80271  -0.78804  -0.77370
 Alpha  occ. eigenvalues --   -0.71961  -0.71090  -0.70358  -0.65664  -0.64897
 Alpha  occ. eigenvalues --   -0.64661  -0.62026  -0.61562  -0.60051  -0.58241
 Alpha  occ. eigenvalues --   -0.55962  -0.55148  -0.53416  -0.53210  -0.52980
 Alpha  occ. eigenvalues --   -0.52562  -0.50603  -0.48744  -0.48718  -0.48523
 Alpha  occ. eigenvalues --   -0.47269  -0.46354  -0.46245  -0.44732  -0.44414
 Alpha  occ. eigenvalues --   -0.37230  -0.36249
 Alpha virt. eigenvalues --    0.05156   0.11383   0.16652   0.20585   0.22368
 Alpha virt. eigenvalues --    0.23782   0.25451   0.26163   0.27059   0.28172
 Alpha virt. eigenvalues --    0.28916   0.30008   0.30852   0.31398   0.32198

 Mulliken charges:
               1
     1  C   -0.173891
     2  C   -0.227365
     3  C   -0.173920
     4  C    0.158984
     5  C   -0.171606
     6  C   -0.218500
     7  H    0.225658
     8  H    0.238671
     9  H    0.275504
    10  H    0.275117
    11  H    0.222843
    12  N    0.488046
    13  O   -0.460846
    14  O   -0.460709
    15  C   -0.298879
    16  C   -0.300311
    17  C   -0.476114
    18  H    0.150579
    19  H    0.150536
    20  H    0.152905
    21  H    0.153013
    22  H    0.155556
    23  H    0.155581
    24  H    0.162017
    25  C   -0.299456
    26  C   -0.298814
    27  C   -0.484014
    28  H    0.149298
    29  H    0.150971
    30  H    0.154829
    31  H    0.155321
    32  H    0.157732
    33  H    0.150128
    34  H    0.161135
 Sum of Mulliken charges =  -0.00000

 Dipole moment (field-independent basis, Debye):
    X=              2.5049    Y=              4.7282    Z=              0.0531  Tot=              5.3510
 Quadrupole moment (field-independent basis, Debye-Ang):
   XX=           -108.1501   YY=            -97.7072   ZZ=            -94.3918
   XY=            -20.4377   XZ=             -1.0826   YZ=              0.5984

 Normal termination of Gaussian 16 at Thu May  6 11:03:54 2021.
