 Gaussian 16, Revision A.03,
 Gaussian 16:  EM64L-G16RevA.03 25-Dec-2016

 -------------
 #p 6-31g* mp2
 -------------

 ------------------------------------------------------
 Input file generated by CHIRIPA (05-May-2021 14:55:22)
 ------------------------------------------------------
 Symbolic Z-matrix:
 Charge =  0 Multiplicity = 1

                         Standard orientation:
 ---------------------------------------------------------------------
 Center     Atomic      Atomic             Coordinates (Angstroms)
 Number     Number       Type             X           Y           Z
 ---------------------------------------------------------------------
      1          6           0        4.617475   -2.265270   -0.005990
      2          6           0        5.261896   -1.057303    0.280469
      3          6           0        4.551741    0.146877    0.267067
      4          6           0        3.192186    0.106184   -0.038295
      5          6           0        2.521839   -1.081239   -0.328035
      6          6           0        3.251911   -2.273369   -0.308794
      7          1           0        5.176877   -3.196025    0.006689
      8          1           0        6.322319   -1.047996    0.515970
      9          1           0        5.025663    1.096254    0.485010
     10          1           0        1.463791   -1.058723   -0.559217
     11          1           0        2.748829   -3.210002   -0.531663
     12          7           0        2.429834    1.374617   -0.055573
     13          8           0        1.232880    1.311925   -0.327617
     14          8           0        3.043692    2.407489    0.203255
     15          6           0       -4.846981   -0.283076   -0.180961
     16          6           0       -4.890871   -1.677636    0.444549
     17          6           0       -6.097248   -2.495279   -0.017953
     18          1           0       -5.772720    0.253173    0.068821
     19          1           0       -4.827540   -0.380130   -1.275310
     20          1           0       -4.908826   -1.578011    1.537422
     21          1           0       -3.964838   -2.210558    0.193409
     22          1           0       -6.081352   -2.624214   -1.105024
     23          1           0       -7.030705   -1.988073    0.246625
     24          1           0       -6.108907   -3.488630    0.441371
     25          6           0       -3.646666    0.546420    0.271705
     26          6           0       -3.602777    1.940979   -0.353805
     27          6           0       -2.396400    2.758623    0.108697
     28          1           0       -3.666108    0.643474    1.366053
     29          1           0       -2.720929    0.010171    0.021923
     30          1           0       -4.528810    2.473902   -0.102665
     31          1           0       -3.584821    1.841354   -1.446677
     32          1           0       -1.462943    2.251416   -0.155881
     33          1           0       -2.412295    2.887558    1.195768
     34          1           0       -2.384740    3.751973   -0.350627
 ---------------------------------------------------------------------

 SCF Done:  E(RHF) =  -669.536089610     A.U. after   15 cycles
 E2 =    -0.2090809558D+01 EUMP2 =    -0.67162689916885D+03

 The electronic state is 1-A.
 Alpha  occ. eigenvalues --  -20.60938 -20.60933 -15.85982 -11.31298 -11.27863
 Alpha  occ. eigenvalues --  -11.27856 -11.27597 -11.26868 -11.26858 -11.21298
 Alpha  occ. eigenvalues --  -11.20896 -11.20849 -11.20682 -11.20614 -11.19568
 Alpha  occ. eigenvalues --   -1.59999  -1.39557  -1.19465  -1.08869  -1.07811
 Alpha  occ. eigenvalues --   -1.04862  -1.02818  -0.95714  -0.95237  -0.86268
 Alpha  occ. eigenvalues --   -0.86244  -0.82549  -0.78925  -0.77618  -0.77559
 Alpha  occ. eigenvalues --   -0.72208  -0.71314  -0.70575  -0.65123  -0.64865
 Alpha  occ. eigenvalues --   -0.64450  -0.62211  -0.60213  -0.58692  -0.56844
 Alpha  occ. eigenvalues --   -0.55366  -0.54511  -0.53193  -0.52955  -0.51931
 Alpha  occ. eigenvalues --   -0.51653  -0.49262  -0.48951  -0.48864  -0.47199
 Alpha  occ. eigenvalues --   -0.45969  -0.45119  -0.45040  -0.44923  -0.43088
 Alpha  occ. eigenvalues --   -0.37444  -0.36463
 Alpha virt. eigenvalues --    0.04933   0.11192   0.16430   0.21277   0.23400
 Alpha virt. eigenvalues --    0.25055   0.26954   0.27336   0.27855   0.28417
 Alpha virt. eigenvalues --    0.28893   0.30851   0.31986   0.32258   0.32558

 Mulliken charges:
               1
     1  C   -0.170604
     2  C   -0.218588
     3  C   -0.170415
     4  C    0.157501
     5  C   -0.170536
     6  C   -0.218488
     7  H    0.226020
     8  H    0.223844
     9  H    0.275952
    10  H    0.275116
    11  H    0.223831
    12  N    0.494420
    13  O   -0.466078
    14  O   -0.458520
    15  C   -0.297728
    16  C   -0.298421
    17  C   -0.475236
    18  H    0.148939
    19  H    0.148210
    20  H    0.151508
    21  H    0.148446
    22  H    0.154359
    23  H    0.155389
    24  H    0.158089
    25  C   -0.297000
    26  C   -0.299171
    27  C   -0.485979
    28  H    0.148142
    29  H    0.149336
    30  H    0.147252
    31  H    0.149367
    32  H    0.184136
    33  H    0.149972
    34  H    0.156936
 Sum of Mulliken charges =  -0.00000

 Dipole moment (field-independent basis, Debye):
    X=              3.0005    Y=             -4.4334    Z=              0.0491  Tot=              5.3535
 Quadrupole moment (field-independent basis, Debye-Ang):
   XX=            -75.5829   YY=            -95.4818   ZZ=            -94.8758
   XY=            -12.5566   XZ=              0.7009   YZ=              0.9967

 Normal termination of Gaussian 16 at Wed May  5 16:01:04 2021.
