 Gaussian 16, Revision A.03,
 Gaussian 16:  EM64L-G16RevA.03 25-Dec-2016

 -------------
 #p 6-31g* mp2
 -------------

 ------------------------------------------------------
 Input file generated by CHIRIPA (05-May-2021 14:53:17)
 ------------------------------------------------------
 Symbolic Z-matrix:
 Charge =  0 Multiplicity = 1

                         Standard orientation:
 ---------------------------------------------------------------------
 Center     Atomic      Atomic             Coordinates (Angstroms)
 Number     Number       Type             X           Y           Z
 ---------------------------------------------------------------------
      1          6           0        5.061096    0.050124   -0.586844
      2          6           0        5.957515   -1.034147    0.012134
      3          6           0        6.957794   -1.598418   -0.997239
      4          1           0        4.520277   -0.364807   -1.448407
      5          1           0        5.690206    0.863222   -0.974770
      6          1           0        5.326841   -1.844321    0.400058
      7          1           0        6.496118   -0.616641    0.872489
      8          1           0        7.611034   -0.805914   -1.376469
      9          1           0        6.435112   -2.040570   -1.851585
     10          1           0        7.588435   -2.371936   -0.547993
     11          6           0        4.055785    0.624000    0.410023
     12          6           0        3.159366    1.708271   -0.188955
     13          6           0        2.159087    2.272542    0.820418
     14          1           0        3.426675   -0.189098    0.797950
     15          1           0        4.596604    1.038931    1.271587
     16          1           0        2.620763    1.290765   -1.049310
     17          1           0        3.790040    2.518445   -0.576878
     18          1           0        2.681769    2.714693    1.674764
     19          1           0        1.505848    1.480038    1.199649
     20          1           0        1.528446    3.046060    0.371172
     21          6           0       -1.367425   -0.804375    1.191651
     22          6           0       -2.341956   -1.796927    1.044498
     23          6           0       -3.561164   -1.508464    0.424121
     24          6           0       -3.773376   -0.211023   -0.039456
     25          6           0       -2.822176    0.799499    0.092276
     26          6           0       -1.610217    0.488390    0.715909
     27          1           0       -0.423132   -1.037256    1.674840
     28          1           0       -2.156146   -2.801777    1.413002
     29          1           0       -4.333038   -2.257789    0.297070
     30          1           0       -3.036332    1.791996   -0.285218
     31          1           0       -0.855212    1.261219    0.828814
     32          7           0       -5.060259    0.106345   -0.697946
     33          8           0       -5.222790    1.257149   -1.097788
     34          8           0       -5.882019   -0.801712   -0.801759
 ---------------------------------------------------------------------

 SCF Done:  E(RHF) =  -669.535438216     A.U. after   15 cycles
 E2 =    -0.2091041369D+01 EUMP2 =    -0.67162647958562D+03

 The electronic state is 1-A.
 Alpha  occ. eigenvalues --  -20.60730 -20.60725 -15.85782 -11.31141 -11.27708
 Alpha  occ. eigenvalues --  -11.27690 -11.27451 -11.26734 -11.26658 -11.22506
 Alpha  occ. eigenvalues --  -11.22291 -11.22207 -11.22167 -11.22010 -11.21531
 Alpha  occ. eigenvalues --   -1.59805  -1.39359  -1.19309  -1.09182  -1.08709
 Alpha  occ. eigenvalues --   -1.04709  -1.04304  -0.96777  -0.95546  -0.87801
 Alpha  occ. eigenvalues --   -0.86109  -0.82375  -0.80374  -0.78963  -0.77423
 Alpha  occ. eigenvalues --   -0.72001  -0.71128  -0.70429  -0.65831  -0.64962
 Alpha  occ. eigenvalues --   -0.64732  -0.62137  -0.61626  -0.60153  -0.58359
 Alpha  occ. eigenvalues --   -0.56087  -0.55216  -0.53493  -0.53210  -0.53042
 Alpha  occ. eigenvalues --   -0.52765  -0.50692  -0.48766  -0.48756  -0.48672
 Alpha  occ. eigenvalues --   -0.47389  -0.46512  -0.46417  -0.44766  -0.44546
 Alpha  occ. eigenvalues --   -0.37297  -0.36310
 Alpha virt. eigenvalues --    0.05106   0.11327   0.16601   0.19531   0.22526
 Alpha virt. eigenvalues --    0.23825   0.25401   0.26119   0.26506   0.27925
 Alpha virt. eigenvalues --    0.28802   0.30273   0.31017   0.31305   0.31526

 Mulliken charges:
               1
     1  C   -0.299060
     2  C   -0.299895
     3  C   -0.476130
     4  H    0.150955
     5  H    0.151689
     6  H    0.150717
     7  H    0.152741
     8  H    0.156421
     9  H    0.155992
    10  H    0.161520
    11  C   -0.297920
    12  C   -0.300431
    13  C   -0.479863
    14  H    0.144760
    15  H    0.151503
    16  H    0.154257
    17  H    0.156680
    18  H    0.161235
    19  H    0.144944
    20  H    0.161762
    21  C   -0.173209
    22  C   -0.218417
    23  C   -0.171483
    24  C    0.158951
    25  C   -0.172146
    26  C   -0.224537
    27  H    0.224707
    28  H    0.223096
    29  H    0.275381
    30  H    0.275708
    31  H    0.233168
    32  N    0.487972
    33  O   -0.460468
    34  O   -0.460595
 Sum of Mulliken charges =  -0.00000

 Dipole moment (field-independent basis, Debye):
    X=              4.7840    Y=             -1.0603    Z=              2.2679  Tot=              5.3994
 Quadrupole moment (field-independent basis, Debye-Ang):
   XX=           -128.4611   YY=            -89.4199   ZZ=            -96.0012
   XY=              6.0141   XZ=             -8.6719   YZ=             -1.3258

 Normal termination of Gaussian 16 at Wed May  5 23:36:49 2021.
