 Gaussian 16, Revision A.03,
 Gaussian 16:  EM64L-G16RevA.03 25-Dec-2016

 -------------
 #p 6-31g* mp2
 -------------

 ------------------------------------------------------
 Input file generated by CHIRIPA (05-May-2021 14:53:14)
 ------------------------------------------------------
 Symbolic Z-matrix:
 Charge =  0 Multiplicity = 1

                         Standard orientation:
 ---------------------------------------------------------------------
 Center     Atomic      Atomic             Coordinates (Angstroms)
 Number     Number       Type             X           Y           Z
 ---------------------------------------------------------------------
      1          6           0        3.943167   -0.542171   -0.092287
      2          6           0        5.402419   -0.955138   -0.287293
      3          6           0        5.632325   -2.446875   -0.043042
      4          1           0        3.628760   -0.800834    0.928099
      5          1           0        3.309550   -1.127977   -0.772550
      6          1           0        6.033241   -0.367744    0.392153
      7          1           0        5.713445   -0.695288   -1.307272
      8          1           0        5.027331   -3.047449   -0.729987
      9          1           0        5.348944   -2.718044    0.979094
     10          1           0        6.682146   -2.720284   -0.187900
     11          6           0        3.697447    0.946265   -0.332926
     12          6           0        2.238195    1.359231   -0.137921
     13          6           0        2.008288    2.850968   -0.382171
     14          1           0        4.331063    1.532070    0.347336
     15          1           0        4.011853    1.204928   -1.353312
     16          1           0        1.927168    1.099381    0.882058
     17          1           0        1.607373    0.771837   -0.817367
     18          1           0        2.291670    3.122138   -1.404308
     19          1           0        2.613282    3.451543    0.304773
     20          1           0        0.958467    3.124377   -0.237314
     21          6           0       -1.676437    0.378434    2.255835
     22          6           0       -1.357618    1.009786    1.049075
     23          6           0       -2.075704    0.720370   -0.115029
     24          6           0       -3.111084   -0.209695   -0.035929
     25          6           0       -3.452731   -0.855367    1.151368
     26          6           0       -2.721134   -0.550490    2.303047
     27          1           0       -1.113362    0.609264    3.155313
     28          1           0       -0.546799    1.731622    1.009444
     29          1           0       -1.850063    1.194460   -1.062522
     30          1           0       -4.266335   -1.570489    1.159628
     31          1           0       -2.970953   -1.042346    3.238843
     32          7           0       -3.878442   -0.524270   -1.261737
     33          8           0       -4.786106   -1.347407   -1.165668
     34          8           0       -3.557702    0.058259   -2.295383
 ---------------------------------------------------------------------

 SCF Done:  E(RHF) =  -669.535028491     A.U. after   15 cycles
 E2 =    -0.2092045715D+01 EUMP2 =    -0.67162707420604D+03

 The electronic state is 1-A.
 Alpha  occ. eigenvalues --  -20.60730 -20.60725 -15.85782 -11.31136 -11.27697
 Alpha  occ. eigenvalues --  -11.27681 -11.27429 -11.26722 -11.26646 -11.22487
 Alpha  occ. eigenvalues --  -11.22089 -11.22024 -11.21984 -11.21853 -11.21377
 Alpha  occ. eigenvalues --   -1.59805  -1.39359  -1.19300  -1.09045  -1.08698
 Alpha  occ. eigenvalues --   -1.04710  -1.04173  -0.96623  -0.95538  -0.87629
 Alpha  occ. eigenvalues --   -0.86103  -0.82374  -0.80255  -0.78820  -0.77415
 Alpha  occ. eigenvalues --   -0.72001  -0.71128  -0.70414  -0.65678  -0.64952
 Alpha  occ. eigenvalues --   -0.64754  -0.62161  -0.61550  -0.59962  -0.58212
 Alpha  occ. eigenvalues --   -0.55877  -0.55196  -0.53375  -0.53123  -0.53018
 Alpha  occ. eigenvalues --   -0.52638  -0.50533  -0.48758  -0.48756  -0.48566
 Alpha  occ. eigenvalues --   -0.47269  -0.46358  -0.46253  -0.44767  -0.44420
 Alpha  occ. eigenvalues --   -0.37278  -0.36282
 Alpha virt. eigenvalues --    0.05098   0.11305   0.16563   0.19781   0.22604
 Alpha virt. eigenvalues --    0.23833   0.25790   0.26082   0.26900   0.27984
 Alpha virt. eigenvalues --    0.29079   0.30236   0.30787   0.31390   0.31761

 Mulliken charges:
               1
     1  C   -0.298801
     2  C   -0.300261
     3  C   -0.476060
     4  H    0.148305
     5  H    0.152474
     6  H    0.151850
     7  H    0.153502
     8  H    0.156824
     9  H    0.154673
    10  H    0.161578
    11  C   -0.298532
    12  C   -0.303846
    13  C   -0.480856
    14  H    0.150189
    15  H    0.152960
    16  H    0.145646
    17  H    0.156517
    18  H    0.163152
    19  H    0.158885
    20  H    0.151833
    21  C   -0.173428
    22  C   -0.220985
    23  C   -0.174865
    24  C    0.158742
    25  C   -0.171393
    26  C   -0.218190
    27  H    0.225339
    28  H    0.234523
    29  H    0.274990
    30  H    0.275330
    31  H    0.223071
    32  N    0.488102
    33  O   -0.460643
    34  O   -0.460626
 Sum of Mulliken charges =  -0.00000

 Dipole moment (field-independent basis, Debye):
    X=              2.9098    Y=              1.0770    Z=              4.2501  Tot=              5.2621
 Quadrupole moment (field-independent basis, Debye-Ang):
   XX=           -110.0862   YY=            -94.6803   ZZ=            -93.1910
   XY=             -1.4901   XZ=            -15.4147   YZ=             -2.6367

 Normal termination of Gaussian 16 at Wed May  5 20:12:32 2021.
