 Gaussian 16, Revision A.03,
 Gaussian 16:  EM64L-G16RevA.03 25-Dec-2016

 -------------
 #p 6-31g* mp2
 -------------

 ------------------------------------------------------
 Input file generated by CHIRIPA (05-May-2021 14:55:25)
 ------------------------------------------------------
 Symbolic Z-matrix:
 Charge =  0 Multiplicity = 1

                         Standard orientation:
 ---------------------------------------------------------------------
 Center     Atomic      Atomic             Coordinates (Angstroms)
 Number     Number       Type             X           Y           Z
 ---------------------------------------------------------------------
      1          6           0        3.586313   -2.162055   -0.608256
      2          6           0        4.347369   -1.237482    0.114571
      3          6           0        3.897771    0.075638    0.282281
      4          6           0        2.677006    0.431681   -0.288907
      5          6           0        1.895942   -0.466493   -1.014519
      6          6           0        2.365181   -1.774294   -1.169505
      7          1           0        3.943200   -3.180052   -0.733595
      8          1           0        5.296097   -1.535821    0.551554
      9          1           0        4.466832    0.811707    0.837069
     10          1           0        0.954220   -0.139571   -1.438428
     11          1           0        1.772026   -2.490202   -1.731365
     12          7           0        2.190641    1.819006   -0.118095
     13          8           0        1.111754    2.107755   -0.631189
     14          8           0        2.897523    2.591373    0.525646
     15          6           0       -4.240441   -0.475387    0.229526
     16          6           0       -4.953061    0.496947   -0.711072
     17          6           0       -6.375016    0.052141   -1.054563
     18          1           0       -4.212752   -1.470742   -0.234637
     19          1           0       -4.826894   -0.577414    1.153137
     20          1           0       -4.364729    0.598174   -1.632070
     21          1           0       -4.978887    1.490148   -0.244700
     22          1           0       -6.982447   -0.030700   -0.147498
     23          1           0       -6.364800   -0.927741   -1.542751
     24          1           0       -6.865944    0.761591   -1.728008
     25          6           0       -2.817902   -0.044377    0.582145
     26          6           0       -2.105282   -1.016711    1.522743
     27          6           0       -0.683328   -0.571905    1.866234
     28          1           0       -2.231448    0.057650   -0.341467
     29          1           0       -2.845591    0.950979    1.046308
     30          1           0       -2.079455   -2.009911    1.056370
     31          1           0       -2.693613   -1.117937    2.443740
     32          1           0       -0.693543    0.407978    2.354422
     33          1           0       -0.075896   -0.489064    0.959170
     34          1           0       -0.192398   -1.281355    2.539680
 ---------------------------------------------------------------------

 SCF Done:  E(RHF) =  -669.534854275     A.U. after   15 cycles
 E2 =    -0.2092802290D+01 EUMP2 =    -0.67162765656432D+03

 The electronic state is 1-A.
 Alpha  occ. eigenvalues --  -20.60797 -20.60781 -15.85835 -11.31214 -11.27796
 Alpha  occ. eigenvalues --  -11.27788 -11.27538 -11.26817 -11.26801 -11.21446
 Alpha  occ. eigenvalues --  -11.21373 -11.21198 -11.21094 -11.20904 -11.20786
 Alpha  occ. eigenvalues --   -1.59858  -1.39412  -1.19404  -1.08787  -1.08219
 Alpha  occ. eigenvalues --   -1.04817  -1.03329  -0.95782  -0.95616  -0.86800
 Alpha  occ. eigenvalues --   -0.86205  -0.82454  -0.79396  -0.78017  -0.77496
 Alpha  occ. eigenvalues --   -0.72058  -0.71179  -0.70519  -0.65055  -0.64900
 Alpha  occ. eigenvalues --   -0.64780  -0.62176  -0.60741  -0.59137  -0.57386
 Alpha  occ. eigenvalues --   -0.55327  -0.55109  -0.53182  -0.52905  -0.52464
 Alpha  occ. eigenvalues --   -0.52140  -0.49701  -0.48822  -0.48813  -0.47707
 Alpha  occ. eigenvalues --   -0.46437  -0.45571  -0.45497  -0.44765  -0.43580
 Alpha  occ. eigenvalues --   -0.37352  -0.36363
 Alpha virt. eigenvalues --    0.05013   0.11150   0.16525   0.20903   0.22972
 Alpha virt. eigenvalues --    0.24302   0.26052   0.27358   0.27630   0.28234
 Alpha virt. eigenvalues --    0.28858   0.30699   0.31557   0.31978   0.32121

 Mulliken charges:
               1
     1  C   -0.170665
     2  C   -0.218209
     3  C   -0.170687
     4  C    0.164069
     5  C   -0.176792
     6  C   -0.217390
     7  H    0.225782
     8  H    0.223636
     9  H    0.275824
    10  H    0.276232
    11  H    0.223608
    12  N    0.488907
    13  O   -0.460556
    14  O   -0.460183
    15  C   -0.298294
    16  C   -0.299437
    17  C   -0.475593
    18  H    0.146032
    19  H    0.149262
    20  H    0.152025
    21  H    0.154716
    22  H    0.154904
    23  H    0.153334
    24  H    0.160528
    25  C   -0.297333
    26  C   -0.299923
    27  C   -0.479449
    28  H    0.148269
    29  H    0.156135
    30  H    0.146042
    31  H    0.151897
    32  H    0.161627
    33  H    0.155279
    34  H    0.156404
 Sum of Mulliken charges =  -0.00000

 Dipole moment (field-independent basis, Debye):
    X=              1.7948    Y=             -4.7721    Z=             -0.5921  Tot=              5.1327
 Quadrupole moment (field-independent basis, Debye-Ang):
   XX=            -83.4044   YY=            -99.2111   ZZ=            -93.1461
   XY=            -12.2659   XZ=             -0.2907   YZ=              2.4049

 Normal termination of Gaussian 16 at Thu May  6 17:44:13 2021.
