 Gaussian 16, Revision A.03,
 Gaussian 16:  EM64L-G16RevA.03 25-Dec-2016

 -------------
 #p 6-31g* mp2
 -------------

 ------------------------------------------------------
 Input file generated by CHIRIPA (05-May-2021 14:51:13)
 ------------------------------------------------------
 Symbolic Z-matrix:
 Charge =  0 Multiplicity = 1

                         Standard orientation:
 ---------------------------------------------------------------------
 Center     Atomic      Atomic             Coordinates (Angstroms)
 Number     Number       Type             X           Y           Z
 ---------------------------------------------------------------------
      1          6           0       -3.736463    0.646272    0.466399
      2          6           0       -2.715131    1.536540   -0.242325
      3          6           0       -2.413532    2.820976    0.530369
      4          1           0       -4.665843    1.212684    0.615983
      5          1           0       -3.360029    0.393357    1.467261
      6          1           0       -3.092754    1.786565   -1.242077
      7          1           0       -1.788140    0.967880   -0.390410
      8          1           0       -2.013027    2.588692    1.522459
      9          1           0       -3.325055    3.412029    0.665954
     10          1           0       -1.681097    3.442458    0.005813
     11          6           0       -4.048363   -0.641576   -0.293795
     12          6           0       -5.069695   -1.531844    0.414928
     13          6           0       -5.371294   -2.816280   -0.357766
     14          1           0       -4.424797   -0.388661   -1.294658
     15          1           0       -3.118983   -1.207988   -0.443380
     16          1           0       -5.996686   -0.963184    0.563013
     17          1           0       -4.692072   -1.781869    1.414680
     18          1           0       -4.459771   -3.407333   -0.493350
     19          1           0       -5.771798   -2.583996   -1.349856
     20          1           0       -6.103729   -3.437762    0.166790
     21          6           0        3.129636    0.037591   -0.083435
     22          6           0        2.593092    1.415051   -0.474218
     23          6           0        1.065488    1.479169   -0.463860
     24          1           0        2.724920   -0.715704   -0.773143
     25          1           0        2.757569   -0.222781    0.917148
     26          1           0        2.967185    1.673347   -1.473194
     27          1           0        2.999286    2.165180    0.216383
     28          1           0        0.676919    1.247005    0.532993
     29          1           0        0.644636    0.752378   -1.166184
     30          1           0        0.703446    2.472685   -0.746191
     31          6           0        4.655190   -0.042288   -0.089167
     32          6           0        5.191734   -1.419746    0.301615
     33          6           0        6.719338   -1.483865    0.291257
     34          1           0        5.027256    0.218086   -1.089751
     35          1           0        5.059907    0.711008    0.600540
     36          1           0        4.785541   -2.169876   -0.388987
     37          1           0        4.817641   -1.678043    1.300591
     38          1           0        7.140190   -0.757074    0.993581
     39          1           0        7.107907   -1.251701   -0.705596
     40          1           0        7.081380   -2.477381    0.573588
 ---------------------------------------------------------------------

 SCF Done:  E(RHF) =  -470.732642974     A.U. after   11 cycles
 E2 =    -0.1583162806D+01 EUMP2 =    -0.47231580577948D+03

 The electronic state is 1-A.
 Alpha  occ. eigenvalues --  -11.21621 -11.21613 -11.21557 -11.21430 -11.21405
 Alpha  occ. eigenvalues --  -11.21370 -11.21330 -11.21260 -11.21097 -11.21086
 Alpha  occ. eigenvalues --  -11.21040 -11.20954  -1.08457  -1.08343  -1.03580
 Alpha  occ. eigenvalues --   -1.03419  -0.96053  -0.95861  -0.87042  -0.86912
 Alpha  occ. eigenvalues --   -0.79683  -0.79461  -0.78285  -0.78134  -0.65085
 Alpha  occ. eigenvalues --   -0.64980  -0.60973  -0.60839  -0.59522  -0.59150
 Alpha  occ. eigenvalues --   -0.57633  -0.57498  -0.55346  -0.55156  -0.52820
 Alpha  occ. eigenvalues --   -0.52492  -0.52475  -0.52245  -0.49999  -0.49796
 Alpha  occ. eigenvalues --   -0.48101  -0.47703  -0.46667  -0.46500  -0.45884
 Alpha  occ. eigenvalues --   -0.45734  -0.45672  -0.45499  -0.43810  -0.43673
 Alpha virt. eigenvalues --    0.21827   0.22984   0.23539   0.24914   0.26134
 Alpha virt. eigenvalues --    0.26526   0.26941   0.27344   0.27804   0.29105
 Alpha virt. eigenvalues --    0.29309   0.30930   0.31569   0.31912   0.32391

 Mulliken charges:
               1
     1  C   -0.297556
     2  C   -0.307564
     3  C   -0.475061
     4  H    0.149036
     5  H    0.148688
     6  H    0.150522
     7  H    0.163368
     8  H    0.153998
     9  H    0.154015
    10  H    0.160856
    11  C   -0.298175
    12  C   -0.299528
    13  C   -0.475659
    14  H    0.149320
    15  H    0.149305
    16  H    0.151881
    17  H    0.151763
    18  H    0.155034
    19  H    0.155079
    20  H    0.160088
    21  C   -0.298498
    22  C   -0.300922
    23  C   -0.477136
    24  H    0.149495
    25  H    0.149278
    26  H    0.151929
    27  H    0.152047
    28  H    0.156069
    29  H    0.155082
    30  H    0.162931
    31  C   -0.298245
    32  C   -0.299632
    33  C   -0.475718
    34  H    0.149624
    35  H    0.149742
    36  H    0.151923
    37  H    0.151871
    38  H    0.155221
    39  H    0.155232
    40  H    0.160295
 Sum of Mulliken charges =  -0.00000

 Dipole moment (field-independent basis, Debye):
    X=              0.0540    Y=              0.0043    Z=             -0.0138  Tot=              0.0559
 Quadrupole moment (field-independent basis, Debye-Ang):
   XX=            -85.7859   YY=            -85.5327   ZZ=            -83.7788
   XY=             -0.3921   XZ=              0.2433   YZ=             -0.3984

 Normal termination of Gaussian 16 at Wed May  5 21:33:37 2021.
