 Gaussian 16, Revision A.03,
 Gaussian 16:  EM64L-G16RevA.03 25-Dec-2016

 -------------
 #p 6-31g* mp2
 -------------

 ------------------------------------------------------
 Input file generated by CHIRIPA (05-May-2021 14:57:21)
 ------------------------------------------------------
 Symbolic Z-matrix:
 Charge =  0 Multiplicity = 1

                         Standard orientation:
 ---------------------------------------------------------------------
 Center     Atomic      Atomic             Coordinates (Angstroms)
 Number     Number       Type             X           Y           Z
 ---------------------------------------------------------------------
      1          6           0        2.532457    2.078160   -0.121628
      2          6           0        3.878394    2.334923   -0.402782
      3          6           0        4.823579    1.306150   -0.349872
      4          6           0        4.386019    0.026739   -0.010843
      5          6           0        3.052158   -0.260694    0.274616
      6          6           0        2.124354    0.783454    0.215579
      7          1           0        1.804966    2.883307   -0.165109
      8          1           0        4.198196    3.339434   -0.664944
      9          1           0        5.871849    1.477032   -0.562822
     10          1           0        2.763533   -1.272310    0.532968
     11          1           0        1.079741    0.581124    0.434420
     12          7           0        5.377443   -1.070515    0.048414
     13          8           0        4.966481   -2.189006    0.349618
     14          8           0        6.546711   -0.791274   -0.207468
     15          6           0       -1.817415   -0.952994    0.179583
     16          6           0       -2.173026    0.348002    0.550354
     17          6           0       -3.502626    0.771867    0.466380
     18          6           0       -4.455146   -0.135516    0.005239
     19          6           0       -4.132176   -1.438196   -0.371595
     20          6           0       -2.796399   -1.840377   -0.279399
     21          1           0       -0.782151   -1.273840    0.248010
     22          1           0       -1.414850    1.039307    0.907161
     23          1           0       -3.805575    1.773350    0.746865
     24          1           0       -4.910247   -2.104652   -0.723532
     25          1           0       -2.523124   -2.851345   -0.568032
     26          7           0       -5.866003    0.301732   -0.088012
     27          8           0       -6.686362   -0.516813   -0.497440
     28          8           0       -6.124761    1.454715    0.250091
 ---------------------------------------------------------------------

 SCF Done:  E(RHF) =  -868.335989905     A.U. after   16 cycles
 E2 =    -0.2600243412D+01 EUMP2 =    -0.87093623331731D+03

 The electronic state is 1-A.
 Alpha  occ. eigenvalues --  -20.61432 -20.61419 -20.61294 -20.61284 -15.86490
 Alpha  occ. eigenvalues --  -15.86352 -11.31985 -11.31859 -11.28667 -11.28530
 Alpha  occ. eigenvalues --  -11.28497 -11.28409 -11.28366 -11.28327 -11.27776
 Alpha  occ. eigenvalues --  -11.27646 -11.27547 -11.27458  -1.60501  -1.60364
 Alpha  occ. eigenvalues --   -1.40052  -1.39913  -1.20185  -1.20066  -1.09557
 Alpha  occ. eigenvalues --   -1.09455  -1.05632  -1.05491  -0.96362  -0.96261
 Alpha  occ. eigenvalues --   -0.87059  -0.86876  -0.83216  -0.83082  -0.78255
 Alpha  occ. eigenvalues --   -0.78078  -0.72706  -0.72570  -0.71826  -0.71688
 Alpha  occ. eigenvalues --   -0.71306  -0.71227  -0.65939  -0.65846  -0.65699
 Alpha  occ. eigenvalues --   -0.65340  -0.63046  -0.62760  -0.56149  -0.56032
 Alpha  occ. eigenvalues --   -0.53920  -0.53846  -0.53766  -0.53535  -0.49476
 Alpha  occ. eigenvalues --   -0.49452  -0.49340  -0.49312  -0.45429  -0.45286
 Alpha  occ. eigenvalues --   -0.38161  -0.38071  -0.37225  -0.37080
 Alpha virt. eigenvalues --    0.04333   0.04458   0.10394   0.10565   0.15761
 Alpha virt. eigenvalues --    0.15914   0.17202   0.22254   0.24700   0.24754
 Alpha virt. eigenvalues --    0.27926   0.29150   0.29887   0.30626   0.32201

 Mulliken charges:
               1
     1  C   -0.171158
     2  C   -0.218005
     3  C   -0.169439
     4  C    0.159546
     5  C   -0.171945
     6  C   -0.221578
     7  H    0.226350
     8  H    0.226902
     9  H    0.278528
    10  H    0.272893
    11  H    0.217546
    12  N    0.488112
    13  O   -0.460396
    14  O   -0.457584
    15  C   -0.170528
    16  C   -0.220427
    17  C   -0.169450
    18  C    0.159164
    19  C   -0.169524
    20  C   -0.217805
    21  H    0.220117
    22  H    0.215226
    23  H    0.276701
    24  H    0.278573
    25  H    0.227628
    26  N    0.487933
    27  O   -0.457895
    28  O   -0.459482
 Sum of Mulliken charges =  -0.00000

 Dipole moment (field-independent basis, Debye):
    X=              1.4864    Y=              2.3213    Z=              0.0197  Tot=              2.7565
 Quadrupole moment (field-independent basis, Debye-Ang):
   XX=           -175.3294   YY=            -98.0535   ZZ=           -105.5428
   XY=             27.7934   XZ=             -2.9247   YZ=              0.7336

 Normal termination of Gaussian 16 at Wed May  5 19:17:53 2021.
