 Gaussian 16, Revision A.03,
 Gaussian 16:  EM64L-G16RevA.03 25-Dec-2016

 -------------
 #p 6-31g* mp2
 -------------

 ------------------------------------------------------
 Input file generated by CHIRIPA (05-May-2021 14:53:13)
 ------------------------------------------------------
 Symbolic Z-matrix:
 Charge =  0 Multiplicity = 1

                         Standard orientation:
 ---------------------------------------------------------------------
 Center     Atomic      Atomic             Coordinates (Angstroms)
 Number     Number       Type             X           Y           Z
 ---------------------------------------------------------------------
      1          6           0        3.095372    0.828543   -0.038335
      2          6           0        3.285817    2.215367    0.576834
      3          6           0        1.987060    3.020211    0.633833
      4          1           0        2.684829    0.937085   -1.051557
      5          1           0        2.345851    0.276063    0.545085
      6          1           0        4.035769    2.764563   -0.006752
      7          1           0        3.696134    2.103518    1.588638
      8          1           0        1.235271    2.496472    1.233092
      9          1           0        1.576835    3.161273   -0.371362
     10          1           0        2.146134    4.008190    1.077064
     11          6           0        4.384824    0.011866   -0.102218
     12          6           0        4.194378   -1.374959   -0.717388
     13          6           0        5.493136   -2.179803   -0.774386
     14          1           0        5.134345    0.564346   -0.685638
     15          1           0        4.795367   -0.096676    0.911004
     16          1           0        3.784061   -1.263109   -1.729191
     17          1           0        3.444427   -1.924154   -0.133801
     18          1           0        5.903361   -2.320864    0.230809
     19          1           0        6.244925   -1.656063   -1.373645
     20          1           0        5.334062   -3.167781   -1.217617
     21          6           0       -0.834287   -1.111989    1.235322
     22          6           0       -2.089140   -1.330474    1.813361
     23          6           0       -3.252578   -0.900555    1.168283
     24          6           0       -3.123779   -0.252519   -0.059214
     25          6           0       -1.887881   -0.020085   -0.660731
     26          6           0       -0.737833   -0.458643    0.002295
     27          1           0        0.064299   -1.449316    1.743405
     28          1           0       -2.167071   -1.837603    2.770855
     29          1           0       -4.236700   -1.056684    1.593192
     30          1           0       -1.842063    0.488280   -1.616181
     31          1           0        0.235375   -0.287600   -0.448986
     32          7           0       -4.348372    0.207190   -0.751631
     33          8           0       -4.207994    0.775718   -1.832235
     34          8           0       -5.425398   -0.009722   -0.200631
 ---------------------------------------------------------------------

 SCF Done:  E(RHF) =  -669.535469414     A.U. after   15 cycles
 E2 =    -0.2092009954D+01 EUMP2 =    -0.67162747936843D+03

 The electronic state is 1-A.
 Alpha  occ. eigenvalues --  -20.60711 -20.60706 -15.85762 -11.31119 -11.27684
 Alpha  occ. eigenvalues --  -11.27659 -11.27427 -11.26713 -11.26610 -11.22553
 Alpha  occ. eigenvalues --  -11.22522 -11.22416 -11.22291 -11.21792 -11.21743
 Alpha  occ. eigenvalues --   -1.59786  -1.39340  -1.19284  -1.09388  -1.08684
 Alpha  occ. eigenvalues --   -1.04680  -1.04358  -0.96807  -0.95524  -0.87817
 Alpha  occ. eigenvalues --   -0.86086  -0.82352  -0.80431  -0.79272  -0.77387
 Alpha  occ. eigenvalues --   -0.71982  -0.71108  -0.70407  -0.66030  -0.64933
 Alpha  occ. eigenvalues --   -0.64678  -0.62045  -0.61740  -0.60169  -0.58425
 Alpha  occ. eigenvalues --   -0.56089  -0.55196  -0.53453  -0.53279  -0.53017
 Alpha  occ. eigenvalues --   -0.52728  -0.50743  -0.48780  -0.48738  -0.48694
 Alpha  occ. eigenvalues --   -0.47467  -0.46711  -0.46699  -0.44747  -0.44655
 Alpha  occ. eigenvalues --   -0.37269  -0.36272
 Alpha virt. eigenvalues --    0.05124   0.11289   0.16615   0.19672   0.22608
 Alpha virt. eigenvalues --    0.23566   0.24710   0.25306   0.27171   0.28080
 Alpha virt. eigenvalues --    0.30006   0.30234   0.30659   0.31234   0.31468

 Mulliken charges:
               1
     1  C   -0.303570
     2  C   -0.299599
     3  C   -0.478236
     4  H    0.148872
     5  H    0.141891
     6  H    0.155748
     7  H    0.153636
     8  H    0.156139
     9  H    0.155548
    10  H    0.164618
    11  C   -0.297887
    12  C   -0.300355
    13  C   -0.476048
    14  H    0.153985
    15  H    0.151509
    16  H    0.152932
    17  H    0.145880
    18  H    0.156214
    19  H    0.157922
    20  H    0.162548
    21  C   -0.174489
    22  C   -0.218278
    23  C   -0.171497
    24  C    0.158889
    25  C   -0.172564
    26  C   -0.222846
    27  H    0.224654
    28  H    0.222959
    29  H    0.275291
    30  H    0.275439
    31  H    0.233825
    32  N    0.488041
    33  O   -0.460508
    34  O   -0.460663
 Sum of Mulliken charges =  -0.00000

 Dipole moment (field-independent basis, Debye):
    X=              4.5572    Y=             -1.5293    Z=              2.4194  Tot=              5.3815
 Quadrupole moment (field-independent basis, Debye-Ang):
   XX=           -120.3699   YY=            -93.9898   ZZ=            -91.6988
   XY=              5.9576   XZ=            -10.5177   YZ=             -2.4596

 Normal termination of Gaussian 16 at Thu May  6 05:46:09 2021.
