 Gaussian 16, Revision A.03,
 Gaussian 16:  EM64L-G16RevA.03 25-Dec-2016

 -------------
 #p 6-31g* mp2
 -------------

 ------------------------------------------------------
 Input file generated by CHIRIPA (05-May-2021 14:53:17)
 ------------------------------------------------------
 Symbolic Z-matrix:
 Charge =  0 Multiplicity = 1

                         Standard orientation:
 ---------------------------------------------------------------------
 Center     Atomic      Atomic             Coordinates (Angstroms)
 Number     Number       Type             X           Y           Z
 ---------------------------------------------------------------------
      1          6           0        3.553891   -0.009789   -0.272248
      2          6           0        4.958648   -0.166581    0.310898
      3          6           0        5.848256    1.048095    0.044527
      4          1           0        3.630111    0.160297   -1.354932
      5          1           0        3.086047    0.888848    0.153155
      6          1           0        5.423182   -1.065423   -0.114433
      7          1           0        4.879065   -0.336504    1.392290
      8          1           0        5.410107    1.950204    0.483647
      9          1           0        5.957316    1.217144   -1.031638
     10          1           0        6.847775    0.914717    0.470004
     11          6           0        2.652702   -1.216011   -0.014148
     12          6           0        1.247945   -1.059220   -0.597294
     13          6           0        0.358337   -2.273896   -0.330922
     14          1           0        3.120546   -2.114649   -0.439551
     15          1           0        2.576481   -1.386098    1.068537
     16          1           0        1.327528   -0.889296   -1.678686
     17          1           0        0.783411   -0.160378   -0.171963
     18          1           0        0.249277   -2.442945    0.745242
     19          1           0        0.796486   -3.176005   -0.770042
     20          1           0       -0.641182   -2.140518   -0.756400
     21          6           0       -3.321543   -1.875559    0.246059
     22          6           0       -3.443024   -1.146810   -0.941664
     23          6           0       -2.949628    0.158469   -1.027415
     24          6           0       -2.337722    0.706442    0.098901
     25          6           0       -2.201550    0.005871    1.296377
     26          6           0       -2.702286   -1.297910    1.359326
     27          1           0       -3.707676   -2.888950    0.303817
     28          1           0       -3.923478   -1.592871   -1.807827
     29          1           0       -3.030316    0.745143   -1.934455
     30          1           0       -1.717662    0.477379    2.143106
     31          1           0       -2.606542   -1.861509    2.283034
     32          7           0       -1.811502    2.087491    0.020189
     33          8           0       -1.276589    2.547585    1.026578
     34          8           0       -1.943926    2.683712   -1.046404
 ---------------------------------------------------------------------

 SCF Done:  E(RHF) =  -669.534002658     A.U. after   15 cycles
 E2 =    -0.2094913594D+01 EUMP2 =    -0.67162891625140D+03

 The electronic state is 1-A.
 Alpha  occ. eigenvalues --  -20.60859 -20.60853 -15.85908 -11.31286 -11.27857
 Alpha  occ. eigenvalues --  -11.27833 -11.27539 -11.26857 -11.26817 -11.21469
 Alpha  occ. eigenvalues --  -11.21359 -11.21231 -11.21073 -11.20950 -11.20783
 Alpha  occ. eigenvalues --   -1.59931  -1.39484  -1.19465  -1.08851  -1.08228
 Alpha  occ. eigenvalues --   -1.04860  -1.03348  -0.95800  -0.95679  -0.86825
 Alpha  occ. eigenvalues --   -0.86250  -0.82509  -0.79425  -0.78035  -0.77559
 Alpha  occ. eigenvalues --   -0.72124  -0.71258  -0.70549  -0.65103  -0.64870
 Alpha  occ. eigenvalues --   -0.64852  -0.62202  -0.60781  -0.59280  -0.57484
 Alpha  occ. eigenvalues --   -0.55344  -0.55179  -0.53466  -0.52942  -0.52307
 Alpha  occ. eigenvalues --   -0.51852  -0.49740  -0.48887  -0.48879  -0.47744
 Alpha  occ. eigenvalues --   -0.46478  -0.45585  -0.45504  -0.44873  -0.43610
 Alpha  occ. eigenvalues --   -0.37319  -0.36431
 Alpha virt. eigenvalues --    0.04959   0.11134   0.16418   0.21263   0.23041
 Alpha virt. eigenvalues --    0.24450   0.26638   0.27166   0.27617   0.28142
 Alpha virt. eigenvalues --    0.28370   0.30687   0.31423   0.32003   0.32337

 Mulliken charges:
               1
     1  C   -0.299865
     2  C   -0.299402
     3  C   -0.475940
     4  H    0.149951
     5  H    0.155730
     6  H    0.150144
     7  H    0.150957
     8  H    0.157858
     9  H    0.155243
    10  H    0.158991
    11  C   -0.297476
    12  C   -0.300749
    13  C   -0.478683
    14  H    0.147838
    15  H    0.147263
    16  H    0.152198
    17  H    0.152427
    18  H    0.147615
    19  H    0.150806
    20  H    0.166071
    21  C   -0.171903
    22  C   -0.220064
    23  C   -0.171251
    24  C    0.161606
    25  C   -0.171576
    26  C   -0.211894
    27  H    0.226402
    28  H    0.224228
    29  H    0.276228
    30  H    0.275551
    31  H    0.223716
    32  N    0.488486
    33  O   -0.460872
    34  O   -0.459636
 Sum of Mulliken charges =  -0.00000

 Dipole moment (field-independent basis, Debye):
    X=             -2.0014    Y=             -4.7616    Z=              0.2815  Tot=              5.1728
 Quadrupole moment (field-independent basis, Debye-Ang):
   XX=            -86.7260   YY=           -103.0341   ZZ=            -89.4940
   XY=              9.7973   XZ=              0.6436   YZ=             -0.2354

 Normal termination of Gaussian 16 at Thu May  6 10:42:17 2021.
