 Gaussian 16, Revision A.03,
 Gaussian 16:  EM64L-G16RevA.03 25-Dec-2016

 -------------
 #p 6-31g* mp2
 -------------

 ------------------------------------------------------
 Input file generated by CHIRIPA (05-May-2021 14:51:10)
 ------------------------------------------------------
 Symbolic Z-matrix:
 Charge =  0 Multiplicity = 1

                         Standard orientation:
 ---------------------------------------------------------------------
 Center     Atomic      Atomic             Coordinates (Angstroms)
 Number     Number       Type             X           Y           Z
 ---------------------------------------------------------------------
      1          6           0        2.126639    0.838246    0.100298
      2          6           0        2.974908    1.872065    0.841677
      3          6           0        2.135992    2.989245    1.462903
      4          1           0        1.547371    1.343502   -0.684629
      5          1           0        1.396433    0.405115    0.797859
      6          1           0        3.704215    2.302119    0.143264
      7          1           0        3.552369    1.364260    1.624804
      8          1           0        1.418603    2.578600    2.180764
      9          1           0        1.571311    3.521788    0.690806
     10          1           0        2.762405    3.717154    1.987893
     11          6           0        2.951063   -0.284936   -0.526213
     12          6           0        2.102794   -1.318755   -1.267592
     13          6           0        2.941710   -2.435935   -1.888819
     14          1           0        3.681269    0.148195   -1.223775
     15          1           0        3.530331   -0.790192    0.258713
     16          1           0        1.525333   -0.810950   -2.050720
     17          1           0        1.373487   -1.748809   -0.569179
     18          1           0        3.506391   -2.968479   -1.116722
     19          1           0        3.659100   -2.025290   -2.606680
     20          1           0        2.315297   -3.163844   -2.413809
     21          6           0       -2.534287   -0.982294    0.505334
     22          6           0       -1.512715   -1.166903    1.627962
     23          6           0       -1.515551   -2.583745    2.202717
     24          1           0       -3.536127   -1.222824    0.886660
     25          1           0       -2.323032   -1.704302   -0.295585
     26          1           0       -1.724993   -0.443830    2.425911
     27          1           0       -0.513216   -0.925720    1.243972
     28          1           0       -1.281652   -3.316124    1.423287
     29          1           0       -2.500314   -2.831495    2.611940
     30          1           0       -0.777888   -2.693513    3.003757
     31          6           0       -2.543414    0.428985   -0.079419
     32          6           0       -3.564987    0.613593   -1.202046
     33          6           0       -3.562151    2.030435   -1.776801
     34          1           0       -2.754670    1.150992    0.721501
     35          1           0       -1.541576    0.669514   -0.460745
     36          1           0       -4.564486    0.372410   -0.818056
     37          1           0       -3.352710   -0.109479   -1.999994
     38          1           0       -2.577388    2.278186   -2.186025
     39          1           0       -3.796050    2.762814   -0.997371
     40          1           0       -4.299814    2.140203   -2.577841
 ---------------------------------------------------------------------

 SCF Done:  E(RHF) =  -470.733226443     A.U. after   11 cycles
 E2 =    -0.1583907524D+01 EUMP2 =    -0.47231713396722D+03

 The electronic state is 1-A.
 Alpha  occ. eigenvalues --  -11.21679 -11.21623 -11.21588 -11.21573 -11.21448
 Alpha  occ. eigenvalues --  -11.21384 -11.21371 -11.21302 -11.21127 -11.21094
 Alpha  occ. eigenvalues --  -11.21067 -11.21056  -1.08491  -1.08397  -1.03569
 Alpha  occ. eigenvalues --   -1.03522  -0.96015  -0.95967  -0.87031  -0.86985
 Alpha  occ. eigenvalues --   -0.79635  -0.79596  -0.78420  -0.78100  -0.65220
 Alpha  occ. eigenvalues --   -0.64947  -0.60989  -0.60900  -0.59382  -0.59341
 Alpha  occ. eigenvalues --   -0.57629  -0.57579  -0.55313  -0.55245  -0.52716
 Alpha  occ. eigenvalues --   -0.52666  -0.52440  -0.52393  -0.49982  -0.49896
 Alpha  occ. eigenvalues --   -0.47961  -0.47945  -0.46794  -0.46671  -0.46214
 Alpha  occ. eigenvalues --   -0.45747  -0.45704  -0.45090  -0.43823  -0.43764
 Alpha virt. eigenvalues --    0.20296   0.23365   0.23448   0.24255   0.25124
 Alpha virt. eigenvalues --    0.26412   0.27039   0.27897   0.27974   0.30329
 Alpha virt. eigenvalues --    0.30818   0.31544   0.31657   0.31851   0.32108

 Mulliken charges:
               1
     1  C   -0.307682
     2  C   -0.299059
     3  C   -0.475869
     4  H    0.149704
     5  H    0.158325
     6  H    0.151940
     7  H    0.151944
     8  H    0.155771
     9  H    0.155362
    10  H    0.160200
    11  C   -0.297828
    12  C   -0.303489
    13  C   -0.475582
    14  H    0.149814
    15  H    0.149738
    16  H    0.151551
    17  H    0.154714
    18  H    0.155551
    19  H    0.155532
    20  H    0.160257
    21  C   -0.297382
    22  C   -0.311120
    23  C   -0.475317
    24  H    0.149498
    25  H    0.149575
    26  H    0.151491
    27  H    0.162197
    28  H    0.155086
    29  H    0.155553
    30  H    0.159671
    31  C   -0.300894
    32  C   -0.299665
    33  C   -0.475520
    34  H    0.149224
    35  H    0.152965
    36  H    0.151807
    37  H    0.151834
    38  H    0.154726
    39  H    0.155266
    40  H    0.160111
 Sum of Mulliken charges =  -0.00000

 Dipole moment (field-independent basis, Debye):
    X=              0.0274    Y=              0.0059    Z=              0.0022  Tot=              0.0281
 Quadrupole moment (field-independent basis, Debye-Ang):
   XX=            -84.5236   YY=            -86.1496   ZZ=            -84.1117
   XY=              0.3511   XZ=             -0.3862   YZ=             -0.1757

 Normal termination of Gaussian 16 at Wed May  5 21:23:57 2021.
