 Gaussian 16, Revision A.03,
 Gaussian 16:  EM64L-G16RevA.03 25-Dec-2016

 -------------
 #p 6-31g* mp2
 -------------

 ------------------------------------------------------
 Input file generated by CHIRIPA (05-May-2021 14:55:18)
 ------------------------------------------------------
 Symbolic Z-matrix:
 Charge =  0 Multiplicity = 1

                         Standard orientation:
 ---------------------------------------------------------------------
 Center     Atomic      Atomic             Coordinates (Angstroms)
 Number     Number       Type             X           Y           Z
 ---------------------------------------------------------------------
      1          6           0       -4.307603   -1.914649   -0.054697
      2          6           0       -4.902170   -0.784873    0.516807
      3          6           0       -4.252695    0.452719    0.483712
      4          6           0       -3.003996    0.524808   -0.131790
      5          6           0       -2.385664   -0.582717   -0.710013
      6          6           0       -3.053458   -1.810150   -0.665206
      7          1           0       -4.819246   -2.872095   -0.024439
      8          1           0       -5.876078   -0.863067    0.991606
      9          1           0       -4.690092    1.343323    0.918368
     10          1           0       -1.414009   -0.473558   -1.176264
     11          1           0       -2.589309   -2.685875   -1.109859
     12          7           0       -2.306728    1.829614   -0.173025
     13          8           0       -1.207311    1.866774   -0.721237
     14          8           0       -2.872831    2.790454    0.343648
     15          6           0        3.418394   -0.854137   -0.051504
     16          6           0        2.152400   -0.665369    0.784924
     17          6           0        1.013367   -1.587891    0.349780
     18          1           0        3.181868   -0.673354   -1.109009
     19          1           0        3.744873   -1.900804    0.021263
     20          1           0        1.829191    0.380954    0.711713
     21          1           0        2.392010   -0.846435    1.840584
     22          1           0        1.311896   -2.637368    0.439661
     23          1           0        0.745878   -1.403006   -0.695624
     24          1           0        0.118182   -1.436275    0.960939
     25          6           0        4.566025    0.061150    0.371487
     26          6           0        5.832019   -0.127618   -0.464940
     27          6           0        6.971052    0.794904   -0.029796
     28          1           0        4.239546    1.107817    0.298721
     29          1           0        4.802552   -0.119634    1.428993
     30          1           0        5.592408    0.053448   -1.520600
     31          1           0        6.155229   -1.173941   -0.391729
     32          1           0        7.238541    0.610019    1.015608
     33          1           0        6.672523    1.844381   -0.119677
     34          1           0        7.866238    0.643288   -0.640955
 ---------------------------------------------------------------------

 SCF Done:  E(RHF) =  -669.535247430     A.U. after   15 cycles
 E2 =    -0.2091861344D+01 EUMP2 =    -0.67162710877335D+03

 The electronic state is 1-A.
 Alpha  occ. eigenvalues --  -20.60789 -20.60782 -15.85834 -11.31147 -11.27737
 Alpha  occ. eigenvalues --  -11.27676 -11.27475 -11.26737 -11.26711 -11.21393
 Alpha  occ. eigenvalues --  -11.21372 -11.21259 -11.21191 -11.21096 -11.20836
 Alpha  occ. eigenvalues --   -1.59858  -1.39413  -1.19333  -1.08736  -1.08224
 Alpha  occ. eigenvalues --   -1.04731  -1.03384  -0.95889  -0.95566  -0.86918
 Alpha  occ. eigenvalues --   -0.86119  -0.82408  -0.79454  -0.78025  -0.77455
 Alpha  occ. eigenvalues --   -0.72056  -0.71179  -0.70452  -0.64983  -0.64889
 Alpha  occ. eigenvalues --   -0.64699  -0.62130  -0.60741  -0.59236  -0.57470
 Alpha  occ. eigenvalues --   -0.55354  -0.55072  -0.53155  -0.52847  -0.52453
 Alpha  occ. eigenvalues --   -0.52294  -0.49794  -0.48811  -0.48808  -0.47770
 Alpha  occ. eigenvalues --   -0.46441  -0.45584  -0.45468  -0.44821  -0.43632
 Alpha  occ. eigenvalues --   -0.37320  -0.36291
 Alpha virt. eigenvalues --    0.05052   0.11305   0.16530   0.20890   0.23087
 Alpha virt. eigenvalues --    0.24232   0.26061   0.27107   0.27816   0.27959
 Alpha virt. eigenvalues --    0.29073   0.30518   0.31517   0.31643   0.32218

 Mulliken charges:
               1
     1  C   -0.170564
     2  C   -0.219052
     3  C   -0.170695
     4  C    0.156299
     5  C   -0.170484
     6  C   -0.221222
     7  H    0.225524
     8  H    0.223221
     9  H    0.275370
    10  H    0.282005
    11  H    0.224310
    12  N    0.488167
    13  O   -0.461720
    14  O   -0.460198
    15  C   -0.298587
    16  C   -0.302121
    17  C   -0.479441
    18  H    0.150626
    19  H    0.146535
    20  H    0.166444
    21  H    0.151233
    22  H    0.152930
    23  H    0.147180
    24  H    0.162268
    25  C   -0.299182
    26  C   -0.299602
    27  C   -0.475806
    28  H    0.154289
    29  H    0.148812
    30  H    0.152363
    31  H    0.150227
    32  H    0.154630
    33  H    0.156828
    34  H    0.159412
 Sum of Mulliken charges =  -0.00000

 Dipole moment (field-independent basis, Debye):
    X=             -2.4379    Y=             -4.4990    Z=              0.1712  Tot=              5.1199
 Quadrupole moment (field-independent basis, Debye-Ang):
   XX=            -78.2150   YY=            -99.2790   ZZ=            -93.9294
   XY=             10.4260   XZ=             -2.2204   YZ=              1.3282

 Normal termination of Gaussian 16 at Thu May  6 12:21:02 2021.
