 Gaussian 16, Revision A.03,
 Gaussian 16:  EM64L-G16RevA.03 25-Dec-2016

 -------------
 #p 6-31g* mp2
 -------------

 ------------------------------------------------------
 Input file generated by CHIRIPA (05-May-2021 14:57:25)
 ------------------------------------------------------
 Symbolic Z-matrix:
 Charge =  0 Multiplicity = 1

                         Standard orientation:
 ---------------------------------------------------------------------
 Center     Atomic      Atomic             Coordinates (Angstroms)
 Number     Number       Type             X           Y           Z
 ---------------------------------------------------------------------
      1          6           0       -1.142420   -1.283672    1.498557
      2          6           0       -2.154584   -1.991635    0.842179
      3          6           0       -3.129374   -1.315218    0.102725
      4          6           0       -3.061450    0.075760    0.040628
      5          6           0       -2.065566    0.809376    0.683523
      6          6           0       -1.101214    0.112113    1.417278
      7          1           0       -0.389233   -1.817226    2.070770
      8          1           0       -2.189070   -3.075650    0.903555
      9          1           0       -3.924041   -1.838367   -0.415192
     10          1           0       -2.057375    1.889662    0.603936
     11          1           0       -0.316315    0.664540    1.926006
     12          7           0       -4.087891    0.802887   -0.739182
     13          8           0       -4.005941    2.028606   -0.778351
     14          8           0       -4.954931    0.133322   -1.296463
     15          6           0        3.161548    2.463811    0.492904
     16          6           0        3.599485    2.028588   -0.762211
     17          6           0        3.455368    0.690191   -1.139662
     18          6           0        2.866248   -0.189851   -0.233156
     19          6           0        2.419922    0.213301    1.024442
     20          6           0        2.574200    1.556379    1.380660
     21          1           0        3.277448    3.505328    0.777871
     22          1           0        4.055990    2.731087   -1.453689
     23          1           0        3.785582    0.326370   -2.105069
     24          1           0        1.968685   -0.510428    1.692288
     25          1           0        2.233167    1.891560    2.356054
     26          7           0        2.708298   -1.609230   -0.621507
     27          8           0        2.186050   -2.364755    0.195239
     28          8           0        3.109738   -1.939338   -1.735290
 ---------------------------------------------------------------------

 SCF Done:  E(RHF) =  -868.336622021     A.U. after   16 cycles
 E2 =    -0.2602402426D+01 EUMP2 =    -0.87093902444733D+03

 The electronic state is 1-A.
 Alpha  occ. eigenvalues --  -20.61584 -20.61548 -20.60659 -20.60643 -15.86616
 Alpha  occ. eigenvalues --  -15.85708 -11.31975 -11.31010 -11.28693 -11.28497
 Alpha  occ. eigenvalues --  -11.28272 -11.27647 -11.27636 -11.27536 -11.27469
 Alpha  occ. eigenvalues --  -11.27272 -11.26653 -11.26476  -1.60624  -1.59731
 Alpha  occ. eigenvalues --   -1.40187  -1.39287  -1.20164  -1.19184  -1.09535
 Alpha  occ. eigenvalues --   -1.08585  -1.05607  -1.04585  -0.96387  -0.95423
 Alpha  occ. eigenvalues --   -0.86982  -0.86006  -0.83247  -0.82261  -0.78316
 Alpha  occ. eigenvalues --   -0.77329  -0.72855  -0.71943  -0.71925  -0.71290
 Alpha  occ. eigenvalues --   -0.71053  -0.70252  -0.65844  -0.65610  -0.64842
 Alpha  occ. eigenvalues --   -0.64672  -0.62935  -0.61914  -0.56044  -0.55073
 Alpha  occ. eigenvalues --   -0.53934  -0.53688  -0.52871  -0.52643  -0.49609
 Alpha  occ. eigenvalues --   -0.49576  -0.48686  -0.48679  -0.45593  -0.44707
 Alpha  occ. eigenvalues --   -0.38121  -0.37458  -0.36896  -0.36066
 Alpha virt. eigenvalues --    0.04241   0.05225   0.10240   0.11668   0.15554
 Alpha virt. eigenvalues --    0.16747   0.19110   0.22324   0.25552   0.25992
 Alpha virt. eigenvalues --    0.27799   0.29178   0.30482   0.31445   0.33169

 Mulliken charges:
               1
     1  C   -0.167373
     2  C   -0.217110
     3  C   -0.170796
     4  C    0.157803
     5  C   -0.172648
     6  C   -0.218740
     7  H    0.231337
     8  H    0.228172
     9  H    0.276047
    10  H    0.272302
    11  H    0.212155
    12  N    0.488275
    13  O   -0.462912
    14  O   -0.459785
    15  C   -0.169345
    16  C   -0.218028
    17  C   -0.168578
    18  C    0.159228
    19  C   -0.167243
    20  C   -0.223992
    21  H    0.229185
    22  H    0.227598
    23  H    0.278870
    24  H    0.267750
    25  H    0.220975
    26  N    0.489973
    27  O   -0.468050
    28  O   -0.455072
 Sum of Mulliken charges =  -0.00000

 Dipole moment (field-independent basis, Debye):
    X=              4.3867    Y=              2.3318    Z=              3.8546  Tot=              6.2880
 Quadrupole moment (field-independent basis, Debye-Ang):
   XX=           -122.5932   YY=           -103.3712   ZZ=           -102.0866
   XY=             25.9410   XZ=             -6.5985   YZ=             -1.3031

 Normal termination of Gaussian 16 at Thu May  6 21:18:24 2021.
