 Gaussian 16, Revision A.03,
 Gaussian 16:  EM64L-G16RevA.03 25-Dec-2016

 -------------
 #p 6-31g* mp2
 -------------

 ------------------------------------------------------
 Input file generated by CHIRIPA (05-May-2021 14:55:24)
 ------------------------------------------------------
 Symbolic Z-matrix:
 Charge =  0 Multiplicity = 1

                         Standard orientation:
 ---------------------------------------------------------------------
 Center     Atomic      Atomic             Coordinates (Angstroms)
 Number     Number       Type             X           Y           Z
 ---------------------------------------------------------------------
      1          6           0        3.011564   -1.773372    1.374966
      2          6           0        3.182417   -0.529818    1.992141
      3          6           0        2.930983    0.652218    1.289205
      4          6           0        2.508064    0.553335   -0.035428
      5          6           0        2.328615   -0.670641   -0.678056
      6          6           0        2.585959   -1.839697    0.044184
      7          1           0        3.209179   -2.686564    1.928522
      8          1           0        3.512844   -0.475275    3.025528
      9          1           0        3.055113    1.628177    1.742541
     10          1           0        1.998135   -0.693046   -1.709414
     11          1           0        2.452419   -2.804069   -0.437686
     12          7           0        2.238754    1.797833   -0.789813
     13          8           0        1.867084    1.683729   -1.955780
     14          8           0        2.404438    2.863810   -0.200849
     15          6           0       -3.772065   -0.265003    0.430092
     16          6           0       -4.514664    1.043507    0.157452
     17          6           0       -5.521326    1.391554    1.254397
     18          1           0       -4.502398   -1.079440    0.531344
     19          1           0       -3.252437   -0.189344    1.395316
     20          1           0       -5.031608    0.965906   -0.807619
     21          1           0       -3.782468    1.854890    0.056647
     22          1           0       -5.017360    1.496120    2.220672
     23          1           0       -6.273598    0.602086    1.351494
     24          1           0       -6.040797    2.330572    1.039327
     25          6           0       -2.762205   -0.626458   -0.657686
     26          6           0       -2.019606   -1.934968   -0.385046
     27          6           0       -1.012944   -2.283015   -1.481992
     28          1           0       -3.281834   -0.702117   -1.622910
     29          1           0       -2.031872    0.187979   -0.758938
     30          1           0       -2.751803   -2.746350   -0.284241
     31          1           0       -1.502662   -1.857367    0.580026
     32          1           0       -0.260672   -1.493547   -1.579088
     33          1           0       -1.516910   -2.387582   -2.448265
     34          1           0       -0.493472   -3.222032   -1.266920
 ---------------------------------------------------------------------

 SCF Done:  E(RHF) =  -669.534895271     A.U. after   15 cycles
 E2 =    -0.2092365684D+01 EUMP2 =    -0.67162726095407D+03

 The electronic state is 1-A.
 Alpha  occ. eigenvalues --  -20.60823 -20.60818 -15.85875 -11.31233 -11.27797
 Alpha  occ. eigenvalues --  -11.27782 -11.27535 -11.26813 -11.26794 -11.21780
 Alpha  occ. eigenvalues --  -11.21449 -11.21415 -11.21360 -11.21299 -11.20947
 Alpha  occ. eigenvalues --   -1.59899  -1.39453  -1.19409  -1.08801  -1.08424
 Alpha  occ. eigenvalues --   -1.04814  -1.03571  -0.96047  -0.95635  -0.87073
 Alpha  occ. eigenvalues --   -0.86206  -0.82467  -0.79646  -0.78211  -0.77514
 Alpha  occ. eigenvalues --   -0.72092  -0.71225  -0.70526  -0.65095  -0.65027
 Alpha  occ. eigenvalues --   -0.64807  -0.62207  -0.60944  -0.59425  -0.57638
 Alpha  occ. eigenvalues --   -0.55438  -0.55230  -0.53140  -0.52956  -0.52740
 Alpha  occ. eigenvalues --   -0.52399  -0.49960  -0.48850  -0.48848  -0.47951
 Alpha  occ. eigenvalues --   -0.46653  -0.45760  -0.45665  -0.44853  -0.43823
 Alpha  occ. eigenvalues --   -0.37388  -0.36355
 Alpha virt. eigenvalues --    0.04986   0.11152   0.16459   0.20866   0.22959
 Alpha virt. eigenvalues --    0.24240   0.26120   0.26691   0.27157   0.28048
 Alpha virt. eigenvalues --    0.29146   0.29573   0.31466   0.31778   0.32374

 Mulliken charges:
               1
     1  C   -0.171529
     2  C   -0.218352
     3  C   -0.171467
     4  C    0.157431
     5  C   -0.172073
     6  C   -0.215949
     7  H    0.225839
     8  H    0.223567
     9  H    0.275603
    10  H    0.276981
    11  H    0.225156
    12  N    0.488091
    13  O   -0.460725
    14  O   -0.460219
    15  C   -0.298332
    16  C   -0.300452
    17  C   -0.475713
    18  H    0.148348
    19  H    0.148473
    20  H    0.152437
    21  H    0.155892
    22  H    0.154579
    23  H    0.154025
    24  H    0.161225
    25  C   -0.299803
    26  C   -0.299079
    27  C   -0.478938
    28  H    0.150767
    29  H    0.155245
    30  H    0.151627
    31  H    0.151199
    32  H    0.156462
    33  H    0.158291
    34  H    0.151390
 Sum of Mulliken charges =  -0.00000

 Dipole moment (field-independent basis, Debye):
    X=              0.9374    Y=             -4.3116    Z=              2.6566  Tot=              5.1504
 Quadrupole moment (field-independent basis, Debye-Ang):
   XX=            -90.4190   YY=            -98.7327   ZZ=            -92.2227
   XY=             -9.3828   XZ=              8.9568   YZ=              4.0034

 Normal termination of Gaussian 16 at Thu May  6 04:45:07 2021.
