 Gaussian 16, Revision A.03,
 Gaussian 16:  EM64L-G16RevA.03 25-Dec-2016

 -------------
 #p 6-31g* mp2
 -------------

 ------------------------------------------------------
 Input file generated by CHIRIPA (05-May-2021 14:51:13)
 ------------------------------------------------------
 Symbolic Z-matrix:
 Charge =  0 Multiplicity = 1

                         Standard orientation:
 ---------------------------------------------------------------------
 Center     Atomic      Atomic             Coordinates (Angstroms)
 Number     Number       Type             X           Y           Z
 ---------------------------------------------------------------------
      1          6           0        2.986693    0.824618   -0.751785
      2          6           0        2.109100    1.866025   -0.056597
      3          6           0        2.113392    3.216361   -0.773790
      4          1           0        4.015548    1.204657   -0.814817
      5          1           0        2.638254    0.692901   -1.785534
      6          1           0        2.458225    1.994725    0.975955
      7          1           0        1.082255    1.483381    0.004959
      8          1           0        1.744746    3.109183   -1.799078
      9          1           0        3.128535    3.623432   -0.822565
     10          1           0        1.479663    3.945877   -0.259928
     11          6           0        2.992688   -0.530539   -0.046631
     12          6           0        3.870282   -1.571946   -0.741819
     13          6           0        3.865990   -2.922283   -0.024626
     14          1           0        3.341127   -0.398822    0.987118
     15          1           0        1.963834   -0.910578    0.016401
     16          1           0        4.897127   -1.189302   -0.803375
     17          1           0        3.521157   -1.700646   -1.774371
     18          1           0        2.850847   -3.329353    0.024148
     19          1           0        4.234635   -2.815104    1.000662
     20          1           0        4.499719   -3.651799   -0.538488
     21          6           0       -3.265970   -0.109084   -0.311890
     22          6           0       -4.700199   -0.625012   -0.433522
     23          6           0       -5.238920   -0.542619   -1.862082
     24          1           0       -3.226740    0.931974   -0.660606
     25          1           0       -2.617155   -0.688312   -0.983403
     26          1           0       -5.345872   -0.045898    0.239047
     27          1           0       -4.736055   -1.664902   -0.084297
     28          1           0       -4.618818   -1.135246   -2.542425
     29          1           0       -5.232099    0.492956   -2.217244
     30          1           0       -6.265545   -0.916507   -1.926184
     31          6           0       -2.713411   -0.184994    1.110307
     32          6           0       -1.279183    0.330933    1.231937
     33          6           0       -0.740462    0.248540    2.660498
     34          1           0       -3.362226    0.394234    1.781818
     35          1           0       -2.752640   -1.226053    1.459021
     36          1           0       -1.243326    1.370823    0.882713
     37          1           0       -0.633510   -0.248180    0.559369
     38          1           0       -0.747281   -0.787034    3.015660
     39          1           0       -1.360563    0.841168    3.340840
     40          1           0        0.286164    0.622428    2.724601
 ---------------------------------------------------------------------

 SCF Done:  E(RHF) =  -470.732686464     A.U. after   11 cycles
 E2 =    -0.1583995503D+01 EUMP2 =    -0.47231668196756D+03

 The electronic state is 1-A.
 Alpha  occ. eigenvalues --  -11.21638 -11.21631 -11.21603 -11.21467 -11.21439
 Alpha  occ. eigenvalues --  -11.21388 -11.21378 -11.21318 -11.21097 -11.21079
 Alpha  occ. eigenvalues --  -11.21051 -11.21027  -1.08483  -1.08389  -1.03587
 Alpha  occ. eigenvalues --   -1.03474  -0.95999  -0.95956  -0.87014  -0.86972
 Alpha  occ. eigenvalues --   -0.79742  -0.79494  -0.78407  -0.78091  -0.65130
 Alpha  occ. eigenvalues --   -0.65014  -0.60973  -0.60905  -0.59497  -0.59209
 Alpha  occ. eigenvalues --   -0.57648  -0.57527  -0.55304  -0.55227  -0.52715
 Alpha  occ. eigenvalues --   -0.52626  -0.52429  -0.52369  -0.49953  -0.49897
 Alpha  occ. eigenvalues --   -0.48119  -0.47813  -0.46721  -0.46583  -0.46078
 Alpha  occ. eigenvalues --   -0.45737  -0.45721  -0.45256  -0.43794  -0.43753
 Alpha virt. eigenvalues --    0.21078   0.23167   0.23723   0.24338   0.25475
 Alpha virt. eigenvalues --    0.26210   0.26582   0.27868   0.28038   0.29365
 Alpha virt. eigenvalues --    0.30502   0.31004   0.31661   0.31924   0.31956

 Mulliken charges:
               1
     1  C   -0.297424
     2  C   -0.311461
     3  C   -0.475182
     4  H    0.149301
     5  H    0.148978
     6  H    0.150630
     7  H    0.166996
     8  H    0.154848
     9  H    0.154838
    10  H    0.159496
    11  C   -0.302157
    12  C   -0.299517
    13  C   -0.475599
    14  H    0.149512
    15  H    0.152526
    16  H    0.152172
    17  H    0.151791
    18  H    0.154741
    19  H    0.155340
    20  H    0.160260
    21  C   -0.298450
    22  C   -0.299646
    23  C   -0.475726
    24  H    0.149656
    25  H    0.148917
    26  H    0.152100
    27  H    0.152026
    28  H    0.155095
    29  H    0.155239
    30  H    0.160396
    31  C   -0.296790
    32  C   -0.306171
    33  C   -0.477385
    34  H    0.149733
    35  H    0.149668
    36  H    0.153210
    37  H    0.154399
    38  H    0.155057
    39  H    0.154948
    40  H    0.163634
 Sum of Mulliken charges =  -0.00000

 Dipole moment (field-independent basis, Debye):
    X=             -0.0328    Y=             -0.0072    Z=              0.0150  Tot=              0.0368
 Quadrupole moment (field-independent basis, Debye-Ang):
   XX=            -84.4034   YY=            -84.9636   ZZ=            -85.5585
   XY=             -0.0780   XZ=             -0.1477   YZ=              0.7819

 Normal termination of Gaussian 16 at Thu May  6 00:47:55 2021.
