 Gaussian 16, Revision A.03,
 Gaussian 16:  EM64L-G16RevA.03 25-Dec-2016

 -------------
 #p 6-31g* mp2
 -------------

 ------------------------------------------------------
 Input file generated by CHIRIPA (05-May-2021 14:51:08)
 ------------------------------------------------------
 Symbolic Z-matrix:
 Charge =  0 Multiplicity = 1

                         Standard orientation:
 ---------------------------------------------------------------------
 Center     Atomic      Atomic             Coordinates (Angstroms)
 Number     Number       Type             X           Y           Z
 ---------------------------------------------------------------------
      1          6           0        3.701652    0.682845   -0.108379
      2          6           0        3.011922    2.043744   -0.209434
      3          6           0        3.920783    3.199680    0.209586
      4          1           0        4.042437    0.527402    0.924408
      5          1           0        4.602661    0.688624   -0.737302
      6          1           0        2.111728    2.034936    0.418411
      7          1           0        2.672569    2.195882   -1.242056
      8          1           0        4.813273    3.236969   -0.423400
      9          1           0        4.249246    3.075109    1.246503
     10          1           0        3.407679    4.163109    0.129663
     11          6           0        2.805811   -0.482707   -0.523933
     12          6           0        3.495541   -1.843606   -0.422879
     13          6           0        2.586680   -2.999542   -0.841899
     14          1           0        1.904802   -0.488486    0.104990
     15          1           0        2.465025   -0.327264   -1.556720
     16          1           0        3.834893   -1.995744    0.609744
     17          1           0        4.395735   -1.834798   -1.050724
     18          1           0        2.258217   -2.874971   -1.878815
     19          1           0        1.694189   -3.036831   -0.208913
     20          1           0        3.099783   -3.962971   -0.761976
     21          6           0       -3.777165    0.442719    0.194373
     22          6           0       -4.876681    0.017244   -0.779291
     23          6           0       -5.916355    1.113770   -1.012743
     24          1           0       -4.234156    0.726612    1.152239
     25          1           0       -3.281107    1.342883   -0.194249
     26          1           0       -5.369600   -0.882652   -0.389631
     27          1           0       -4.417003   -0.265852   -1.734889
     28          1           0       -5.443719    2.011444   -1.424326
     29          1           0       -6.401730    1.391140   -0.071425
     30          1           0       -6.692987    0.788354   -1.711891
     31          6           0       -2.730298   -0.642856    0.437940
     32          6           0       -1.630782   -0.217382    1.411603
     33          6           0       -0.591107   -1.313909    1.645056
     34          1           0       -3.226355   -1.543020    0.826562
     35          1           0       -2.273307   -0.926750   -0.519926
     36          1           0       -2.090460    0.065715    2.367202
     37          1           0       -1.137863    0.682514    1.021944
     38          1           0       -0.105733   -1.591277    0.703738
     39          1           0       -1.063742   -2.211581    2.056639
     40          1           0        0.185525   -0.988493    2.344203
 ---------------------------------------------------------------------

 SCF Done:  E(RHF) =  -470.732672674     A.U. after   11 cycles
 E2 =    -0.1583530198D+01 EUMP2 =    -0.47231620287151D+03

 The electronic state is 1-A.
 Alpha  occ. eigenvalues --  -11.21658 -11.21611 -11.21602 -11.21559 -11.21426
 Alpha  occ. eigenvalues --  -11.21366 -11.21361 -11.21273 -11.21125 -11.21078
 Alpha  occ. eigenvalues --  -11.21070 -11.21028  -1.08464  -1.08394  -1.03579
 Alpha  occ. eigenvalues --   -1.03498  -0.96024  -0.95954  -0.87047  -0.86972
 Alpha  occ. eigenvalues --   -0.79684  -0.79530  -0.78285  -0.78200  -0.65193
 Alpha  occ. eigenvalues --   -0.64951  -0.61087  -0.60804  -0.59389  -0.59329
 Alpha  occ. eigenvalues --   -0.57667  -0.57533  -0.55340  -0.55233  -0.52725
 Alpha  occ. eigenvalues --   -0.52650  -0.52486  -0.52348  -0.50035  -0.49898
 Alpha  occ. eigenvalues --   -0.48033  -0.47818  -0.46827  -0.46469  -0.45888
 Alpha  occ. eigenvalues --   -0.45741  -0.45728  -0.45400  -0.43814  -0.43753
 Alpha virt. eigenvalues --    0.21019   0.23153   0.23497   0.24249   0.26076
 Alpha virt. eigenvalues --    0.26768   0.26942   0.27403   0.28095   0.29456
 Alpha virt. eigenvalues --    0.30479   0.31381   0.31708   0.31849   0.32363

 Mulliken charges:
               1
     1  C   -0.297599
     2  C   -0.300014
     3  C   -0.475637
     4  H    0.149408
     5  H    0.149366
     6  H    0.151703
     7  H    0.151669
     8  H    0.155269
     9  H    0.155220
    10  H    0.160122
    11  C   -0.307477
    12  C   -0.298805
    13  C   -0.481114
    14  H    0.160425
    15  H    0.148253
    16  H    0.151826
    17  H    0.151654
    18  H    0.154450
    19  H    0.160522
    20  H    0.160377
    21  C   -0.298412
    22  C   -0.299708
    23  C   -0.475733
    24  H    0.149629
    25  H    0.149757
    26  H    0.151954
    27  H    0.152085
    28  H    0.155236
    29  H    0.155170
    30  H    0.160306
    31  C   -0.298614
    32  C   -0.300905
    33  C   -0.483848
    34  H    0.149660
    35  H    0.150453
    36  H    0.152344
    37  H    0.152656
    38  H    0.162695
    39  H    0.156122
    40  H    0.159532
 Sum of Mulliken charges =  -0.00000

 Dipole moment (field-independent basis, Debye):
    X=             -0.0370    Y=             -0.0112    Z=              0.0142  Tot=              0.0412
 Quadrupole moment (field-independent basis, Debye-Ang):
   XX=            -85.4420   YY=            -86.0427   ZZ=            -83.4167
   XY=              0.3156   XZ=             -1.0575   YZ=             -0.4747

 Normal termination of Gaussian 16 at Thu May  6 16:32:29 2021.
