 Gaussian 16, Revision A.03,
 Gaussian 16:  EM64L-G16RevA.03 25-Dec-2016

 -------------
 #p 6-31g* mp2
 -------------

 ------------------------------------------------------
 Input file generated by CHIRIPA (05-May-2021 14:51:12)
 ------------------------------------------------------
 Symbolic Z-matrix:
 Charge =  0 Multiplicity = 1

                         Standard orientation:
 ---------------------------------------------------------------------
 Center     Atomic      Atomic             Coordinates (Angstroms)
 Number     Number       Type             X           Y           Z
 ---------------------------------------------------------------------
      1          6           0        2.475017    0.421505   -0.088100
      2          6           0        3.728800    0.734557   -0.905418
      3          6           0        3.682149    2.119016   -1.552635
      4          1           0        1.593078    0.493938   -0.739162
      5          1           0        2.352588    1.187267    0.690370
      6          1           0        3.849592   -0.032341   -1.681236
      7          1           0        4.607875    0.661183   -0.252379
      8          1           0        3.585681    2.898003   -0.789435
      9          1           0        2.823090    2.200539   -2.226411
     10          1           0        4.588205    2.322064   -2.132026
     11          6           0        2.506751   -0.959070    0.565149
     12          6           0        1.252967   -1.272122    1.382468
     13          6           0        1.299618   -2.656581    2.029685
     14          1           0        2.629179   -1.724833   -0.213320
     15          1           0        3.388690   -1.031503    1.216211
     16          1           0        0.373892   -1.198748    0.729428
     17          1           0        1.132175   -0.505224    2.158285
     18          1           0        2.158677   -2.738104    2.703460
     19          1           0        1.396086   -3.435568    1.266484
     20          1           0        0.393562   -2.859629    2.609075
     21          6           0       -2.174862    0.759331    0.254349
     22          6           0       -2.985937    2.042618    0.436871
     23          6           0       -2.340893    3.014002    1.425873
     24          1           0       -2.055338    0.266898    1.229115
     25          1           0       -1.164401    1.018468   -0.090921
     26          1           0       -3.995000    1.781053    0.780368
     27          1           0       -3.103708    2.531955   -0.538473
     28          1           0       -1.341620    3.303738    1.085126
     29          1           0       -2.237977    2.548570    2.411460
     30          1           0       -2.937232    3.924458    1.541240
     31          6           0       -2.806905   -0.221766   -0.731398
     32          6           0       -1.995829   -1.505053   -0.913920
     33          6           0       -2.640874   -2.476438   -1.902923
     34          1           0       -3.817367   -0.480902   -0.386127
     35          1           0       -2.926430    0.270667   -1.706164
     36          1           0       -1.878059   -1.994390    0.061424
     37          1           0       -0.986766   -1.243488   -1.257417
     38          1           0       -2.743790   -2.011005   -2.888510
     39          1           0       -3.640146   -2.766173   -1.562175
     40          1           0       -2.044535   -3.386893   -2.018290
 ---------------------------------------------------------------------

 SCF Done:  E(RHF) =  -470.732323553     A.U. after   11 cycles
 E2 =    -0.1584819837D+01 EUMP2 =    -0.47231714338969D+03

 The electronic state is 1-A.
 Alpha  occ. eigenvalues --  -11.21686 -11.21607 -11.21601 -11.21437 -11.21396
 Alpha  occ. eigenvalues --  -11.21367 -11.21350 -11.21291 -11.21135 -11.21090
 Alpha  occ. eigenvalues --  -11.21063 -11.20996  -1.08500  -1.08361  -1.03584
 Alpha  occ. eigenvalues --   -1.03464  -0.96011  -0.95944  -0.87033  -0.86956
 Alpha  occ. eigenvalues --   -0.79731  -0.79506  -0.78517  -0.77957  -0.65152
 Alpha  occ. eigenvalues --   -0.64977  -0.60967  -0.60905  -0.59415  -0.59270
 Alpha  occ. eigenvalues --   -0.57628  -0.57551  -0.55296  -0.55236  -0.52735
 Alpha  occ. eigenvalues --   -0.52623  -0.52440  -0.52364  -0.49965  -0.49885
 Alpha  occ. eigenvalues --   -0.48139  -0.47811  -0.46706  -0.46671  -0.46309
 Alpha  occ. eigenvalues --   -0.45721  -0.45672  -0.44910  -0.43812  -0.43726
 Alpha virt. eigenvalues --    0.20687   0.23296   0.23381   0.24346   0.24584
 Alpha virt. eigenvalues --    0.26205   0.26993   0.27908   0.28508   0.30559
 Alpha virt. eigenvalues --    0.30893   0.31267   0.31669   0.31867   0.32064

 Mulliken charges:
               1
     1  C   -0.301329
     2  C   -0.299525
     3  C   -0.475679
     4  H    0.150595
     5  H    0.149889
     6  H    0.151841
     7  H    0.152333
     8  H    0.155222
     9  H    0.154567
    10  H    0.160398
    11  C   -0.297634
    12  C   -0.312065
    13  C   -0.475297
    14  H    0.148595
    15  H    0.149195
    16  H    0.168895
    17  H    0.150646
    18  H    0.154726
    19  H    0.154535
    20  H    0.158789
    21  C   -0.303450
    22  C   -0.299548
    23  C   -0.475713
    24  H    0.151241
    25  H    0.153854
    26  H    0.151782
    27  H    0.151754
    28  H    0.155626
    29  H    0.155095
    30  H    0.160149
    31  C   -0.297501
    32  C   -0.305707
    33  C   -0.474515
    34  H    0.149683
    35  H    0.149447
    36  H    0.154849
    37  H    0.153095
    38  H    0.155233
    39  H    0.155584
    40  H    0.160344
 Sum of Mulliken charges =  -0.00000

 Dipole moment (field-independent basis, Debye):
    X=             -0.0536    Y=              0.0049    Z=             -0.0186  Tot=              0.0569
 Quadrupole moment (field-independent basis, Debye-Ang):
   XX=            -84.4940   YY=            -86.0890   ZZ=            -84.3472
   XY=              0.1189   XZ=             -0.2454   YZ=              0.0383

 Normal termination of Gaussian 16 at Thu May  6 00:43:54 2021.
