 Gaussian 16, Revision A.03,
 Gaussian 16:  EM64L-G16RevA.03 25-Dec-2016

 -------------
 #p 6-31g* mp2
 -------------

 ------------------------------------------------------
 Input file generated by CHIRIPA (05-May-2021 14:53:17)
 ------------------------------------------------------
 Symbolic Z-matrix:
 Charge =  0 Multiplicity = 1

                         Standard orientation:
 ---------------------------------------------------------------------
 Center     Atomic      Atomic             Coordinates (Angstroms)
 Number     Number       Type             X           Y           Z
 ---------------------------------------------------------------------
      1          6           0       -2.231219    1.152254   -0.831509
      2          6           0       -1.158437    2.133877   -0.358709
      3          6           0       -0.582863    2.974729   -1.498656
      4          1           0       -1.802300    0.490737   -1.596603
      5          1           0       -3.040622    1.711957   -1.320379
      6          1           0       -0.351953    1.572612    0.130351
      7          1           0       -1.589907    2.793010    0.405486
      8          1           0       -1.371874    3.559699   -1.982259
      9          1           0       -0.126886    2.332367   -2.258957
     10          1           0        0.182172    3.669538   -1.138348
     11          6           0       -2.816203    0.304505    0.296695
     12          6           0       -3.888985   -0.677118   -0.176105
     13          6           0       -4.464559   -1.517969    0.963841
     14          1           0       -2.006800   -0.255198    0.785564
     15          1           0       -3.245122    0.966023    1.061788
     16          1           0       -3.457515   -1.336251   -0.940300
     17          1           0       -4.695469   -0.115853   -0.665166
     18          1           0       -4.920536   -0.875607    1.724142
     19          1           0       -3.675548   -2.102939    1.447445
     20          1           0       -5.229594   -2.212779    0.603533
     21          6           0        2.531140    1.563006    1.436611
     22          6           0        3.184276    1.252697    0.239263
     23          6           0        2.882281    0.074145   -0.449476
     24          6           0        1.917559   -0.775165    0.090222
     25          6           0        1.249539   -0.493839    1.280976
     26          6           0        1.567555    0.690285    1.952737
     27          1           0        2.771959    2.480698    1.965046
     28          1           0        3.933041    1.928595   -0.163922
     29          1           0        3.372665   -0.190652   -1.378360
     30          1           0        0.507691   -1.187295    1.658069
     31          1           0        1.058723    0.928700    2.882411
     32          7           0        1.589371   -2.025796   -0.629928
     33          8           0        0.735602   -2.757418   -0.133495
     34          8           0        2.192119   -2.250736   -1.677178
 ---------------------------------------------------------------------

 SCF Done:  E(RHF) =  -669.534494498     A.U. after   15 cycles
 E2 =    -0.2094862916D+01 EUMP2 =    -0.67162935741345D+03

 The electronic state is 1-A.
 Alpha  occ. eigenvalues --  -20.60908 -20.60901 -15.85959 -11.31345 -11.27904
 Alpha  occ. eigenvalues --  -11.27873 -11.27622 -11.26927 -11.26879 -11.21459
 Alpha  occ. eigenvalues --  -11.21389 -11.21334 -11.21263 -11.21144 -11.20855
 Alpha  occ. eigenvalues --   -1.59981  -1.39534  -1.19525  -1.08902  -1.08337
 Alpha  occ. eigenvalues --   -1.04922  -1.03420  -0.95898  -0.95732  -0.86915
 Alpha  occ. eigenvalues --   -0.86304  -0.82561  -0.79500  -0.78182  -0.77604
 Alpha  occ. eigenvalues --   -0.72174  -0.71308  -0.70604  -0.65158  -0.65021
 Alpha  occ. eigenvalues --   -0.64868  -0.62257  -0.60849  -0.59292  -0.57519
 Alpha  occ. eigenvalues --   -0.55404  -0.55192  -0.53340  -0.52994  -0.52560
 Alpha  occ. eigenvalues --   -0.52320  -0.49824  -0.48935  -0.48930  -0.47798
 Alpha  occ. eigenvalues --   -0.46485  -0.45701  -0.45613  -0.44920  -0.43692
 Alpha  occ. eigenvalues --   -0.37488  -0.36395
 Alpha virt. eigenvalues --    0.04881   0.11037   0.16383   0.20883   0.22974
 Alpha virt. eigenvalues --    0.24131   0.25821   0.27013   0.27852   0.27967
 Alpha virt. eigenvalues --    0.29129   0.30812   0.31409   0.31811   0.31856

 Mulliken charges:
               1
     1  C   -0.298219
     2  C   -0.310493
     3  C   -0.473380
     4  H    0.153135
     5  H    0.149099
     6  H    0.165092
     7  H    0.145898
     8  H    0.154896
     9  H    0.156062
    10  H    0.153832
    11  C   -0.298697
    12  C   -0.300059
    13  C   -0.476175
    14  H    0.145613
    15  H    0.146077
    16  H    0.159481
    17  H    0.150812
    18  H    0.151749
    19  H    0.157021
    20  H    0.161636
    21  C   -0.169150
    22  C   -0.216632
    23  C   -0.171511
    24  C    0.161685
    25  C   -0.175236
    26  C   -0.219370
    27  H    0.226641
    28  H    0.224533
    29  H    0.276267
    30  H    0.276448
    31  H    0.225369
    32  N    0.488075
    33  O   -0.460784
    34  O   -0.459717
 Sum of Mulliken charges =  -0.00000

 Dipole moment (field-independent basis, Debye):
    X=              1.2887    Y=              4.2837    Z=              2.5242  Tot=              5.1364
 Quadrupole moment (field-independent basis, Debye-Ang):
   XX=            -88.1888   YY=           -102.2974   ZZ=            -92.5977
   XY=              8.1255   XZ=              2.7952   YZ=             -1.7008

 Normal termination of Gaussian 16 at Wed May  5 20:23:20 2021.
