 Gaussian 16, Revision A.03,
 Gaussian 16:  EM64L-G16RevA.03 25-Dec-2016

 -------------
 #p 6-31g* mp2
 -------------

 ------------------------------------------------------
 Input file generated by CHIRIPA (05-May-2021 14:53:16)
 ------------------------------------------------------
 Symbolic Z-matrix:
 Charge =  0 Multiplicity = 1

                         Standard orientation:
 ---------------------------------------------------------------------
 Center     Atomic      Atomic             Coordinates (Angstroms)
 Number     Number       Type             X           Y           Z
 ---------------------------------------------------------------------
      1          6           0       -4.068294   -0.649455    0.227594
      2          6           0       -5.214857   -1.626456   -0.034796
      3          6           0       -5.051580   -2.946000    0.720146
      4          1           0       -3.119077   -1.122503   -0.059037
      5          1           0       -4.005089   -0.450373    1.306374
      6          1           0       -5.276761   -1.822561   -1.112909
      7          1           0       -6.161474   -1.150956    0.252313
      8          1           0       -5.012066   -2.769714    1.799944
      9          1           0       -4.122327   -3.445134    0.426965
     10          1           0       -5.882155   -3.629524    0.518155
     11          6           0       -4.217272    0.674324   -0.520166
     12          6           0       -3.070709    1.651324   -0.257776
     13          6           0       -3.233986    2.970868   -1.012718
     14          1           0       -4.280477    0.475242   -1.598946
     15          1           0       -5.166489    1.147371   -0.233535
     16          1           0       -2.124092    1.175825   -0.544885
     17          1           0       -3.008805    1.847429    0.820337
     18          1           0       -4.163239    3.470003   -0.719537
     19          1           0       -3.273499    2.794582   -2.092516
     20          1           0       -2.403411    3.654392   -0.810727
     21          6           0        1.433863    1.244357    1.356682
     22          6           0        2.652346    0.965607    1.984470
     23          6           0        3.658307    0.271431    1.305713
     24          6           0        3.410826   -0.130953   -0.005824
     25          6           0        2.207373    0.131702   -0.658514
     26          6           0        1.215649    0.827250    0.039517
     27          1           0        0.657939    1.784143    1.891443
     28          1           0        2.824594    1.288318    3.007326
     29          1           0        4.610926    0.042335    1.767717
     30          1           0        2.064972   -0.202845   -1.678914
     31          1           0        0.270335    1.042337   -0.450548
     32          7           0        4.468255   -0.866573   -0.734596
     33          8           0        4.225484   -1.210221   -1.889414
     34          8           0        5.519817   -1.085574   -0.137189
 ---------------------------------------------------------------------

 SCF Done:  E(RHF) =  -669.535556548     A.U. after   15 cycles
 E2 =    -0.2091019159D+01 EUMP2 =    -0.67162657570690D+03

 The electronic state is 1-A.
 Alpha  occ. eigenvalues --  -20.60735 -20.60730 -15.85788 -11.31145 -11.27715
 Alpha  occ. eigenvalues --  -11.27709 -11.27445 -11.26727 -11.26692 -11.22727
 Alpha  occ. eigenvalues --  -11.22185 -11.22118 -11.22034 -11.21995 -11.21478
 Alpha  occ. eigenvalues --   -1.59811  -1.39364  -1.19315  -1.09195  -1.08710
 Alpha  occ. eigenvalues --   -1.04719  -1.04276  -0.96686  -0.95547  -0.87703
 Alpha  occ. eigenvalues --   -0.86118  -0.82382  -0.80381  -0.78986  -0.77430
 Alpha  occ. eigenvalues --   -0.72006  -0.71134  -0.70420  -0.65848  -0.64966
 Alpha  occ. eigenvalues --   -0.64727  -0.62118  -0.61630  -0.60082  -0.58304
 Alpha  occ. eigenvalues --   -0.55956  -0.55213  -0.53398  -0.53111  -0.53046
 Alpha  occ. eigenvalues --   -0.52824  -0.50622  -0.48793  -0.48762  -0.48641
 Alpha  occ. eigenvalues --   -0.47409  -0.46517  -0.46423  -0.44772  -0.44518
 Alpha  occ. eigenvalues --   -0.37293  -0.36322
 Alpha virt. eigenvalues --    0.05105   0.11312   0.16595   0.19568   0.22533
 Alpha virt. eigenvalues --    0.23740   0.24974   0.26162   0.27280   0.28038
 Alpha virt. eigenvalues --    0.28860   0.29847   0.31134   0.31231   0.31769

 Mulliken charges:
               1
     1  C   -0.298925
     2  C   -0.300294
     3  C   -0.476248
     4  H    0.149178
     5  H    0.149162
     6  H    0.153414
     7  H    0.152923
     8  H    0.155235
     9  H    0.156483
    10  H    0.162259
    11  C   -0.297719
    12  C   -0.306105
    13  C   -0.476120
    14  H    0.152115
    15  H    0.152830
    16  H    0.145472
    17  H    0.150746
    18  H    0.159627
    19  H    0.158442
    20  H    0.158426
    21  C   -0.173302
    22  C   -0.218583
    23  C   -0.171224
    24  C    0.158949
    25  C   -0.172870
    26  C   -0.225316
    27  H    0.226238
    28  H    0.223209
    29  H    0.275420
    30  H    0.275689
    31  H    0.234069
    32  N    0.488011
    33  O   -0.460596
    34  O   -0.460595
 Sum of Mulliken charges =  -0.00000

 Dipole moment (field-independent basis, Debye):
    X=             -3.9531    Y=              2.5800    Z=              2.5593  Tot=              5.3697
 Quadrupole moment (field-independent basis, Debye-Ang):
   XX=           -117.7646   YY=            -96.8793   ZZ=            -91.3472
   XY=              9.3219   XZ=             11.3417   YZ=              0.7093

 Normal termination of Gaussian 16 at Wed May  5 20:19:31 2021.
