 Gaussian 16, Revision A.03,
 Gaussian 16:  EM64L-G16RevA.03 25-Dec-2016

 -------------
 #p 6-31g* mp2
 -------------

 ------------------------------------------------------
 Input file generated by CHIRIPA (05-May-2021 14:57:26)
 ------------------------------------------------------
 Symbolic Z-matrix:
 Charge =  0 Multiplicity = 1

                         Standard orientation:
 ---------------------------------------------------------------------
 Center     Atomic      Atomic             Coordinates (Angstroms)
 Number     Number       Type             X           Y           Z
 ---------------------------------------------------------------------
      1          6           0       -2.141966    2.599627    0.793264
      2          6           0       -1.629411    1.430632    1.365330
      3          6           0       -2.104231    0.177657    0.966396
      4          6           0       -3.096546    0.130344   -0.011542
      5          6           0       -3.627268    1.277068   -0.600311
      6          6           0       -3.137504    2.519255   -0.186004
      7          1           0       -1.767310    3.568777    1.109137
      8          1           0       -0.856223    1.490019    2.126053
      9          1           0       -1.725119   -0.743199    1.392677
     10          1           0       -4.397595    1.185938   -1.356426
     11          1           0       -3.537416    3.425449   -0.632018
     12          7           0       -3.607126   -1.190414   -0.442013
     13          8           0       -4.481716   -1.205140   -1.305444
     14          8           0       -3.123062   -2.185889    0.092166
     15          6           0        1.091742   -1.757269    0.771881
     16          6           0        1.172396   -1.412094   -0.581215
     17          6           0        2.232121   -0.631705   -1.052941
     18          6           0        3.198077   -0.211780   -0.139770
     19          6           0        3.145503   -0.539186    1.214235
     20          6           0        2.076816   -1.320483    1.663716
     21          1           0        0.265042   -2.363846    1.129688
     22          1           0        0.408807   -1.749896   -1.276102
     23          1           0        2.319074   -0.349922   -2.095273
     24          1           0        3.921788   -0.187581    1.882945
     25          1           0        2.016749   -1.587024    2.715092
     26          7           0        4.324704    0.614863   -0.627390
     27          8           0        5.162963    0.972264    0.197366
     28          8           0        4.348162    0.889732   -1.825110
 ---------------------------------------------------------------------

 SCF Done:  E(RHF) =  -868.338530371     A.U. after   16 cycles
 E2 =    -0.2600868555D+01 EUMP2 =    -0.87093939892507D+03

 The electronic state is 1-A.
 Alpha  occ. eigenvalues --  -20.61616 -20.61564 -20.61023 -20.61013 -15.86629
 Alpha  occ. eigenvalues --  -15.86073 -11.31796 -11.31451 -11.28387 -11.28303
 Alpha  occ. eigenvalues --  -11.28038 -11.27987 -11.27955 -11.27689 -11.27285
 Alpha  occ. eigenvalues --  -11.27259 -11.27069 -11.26921  -1.60663  -1.60097
 Alpha  occ. eigenvalues --   -1.40226  -1.39650  -1.19944  -1.19613  -1.09362
 Alpha  occ. eigenvalues --   -1.09006  -1.05313  -1.05003  -0.96241  -0.95834
 Alpha  occ. eigenvalues --   -0.86727  -0.86389  -0.83075  -0.82661  -0.78170
 Alpha  occ. eigenvalues --   -0.77708  -0.72852  -0.72287  -0.71987  -0.71424
 Alpha  occ. eigenvalues --   -0.71123  -0.70628  -0.65590  -0.65323  -0.65241
 Alpha  occ. eigenvalues --   -0.64968  -0.62688  -0.62333  -0.55834  -0.55444
 Alpha  occ. eigenvalues --   -0.53751  -0.53415  -0.53214  -0.53070  -0.49627
 Alpha  occ. eigenvalues --   -0.49574  -0.49046  -0.49044  -0.45671  -0.45052
 Alpha  occ. eigenvalues --   -0.37943  -0.37716  -0.36855  -0.36477
 Alpha virt. eigenvalues --    0.04286   0.04830   0.10499   0.11259   0.15860
 Alpha virt. eigenvalues --    0.16197   0.20093   0.21729   0.25839   0.27054
 Alpha virt. eigenvalues --    0.27357   0.28969   0.30232   0.31098   0.32334

 Mulliken charges:
               1
     1  C   -0.169897
     2  C   -0.216954
     3  C   -0.168485
     4  C    0.155796
     5  C   -0.170796
     6  C   -0.218280
     7  H    0.229184
     8  H    0.225138
     9  H    0.266734
    10  H    0.276699
    11  H    0.226180
    12  N    0.488119
    13  O   -0.455732
    14  O   -0.469530
    15  C   -0.182514
    16  C   -0.217683
    17  C   -0.171356
    18  C    0.158416
    19  C   -0.172627
    20  C   -0.223089
    21  H    0.235989
    22  H    0.232240
    23  H    0.276844
    24  H    0.275180
    25  H    0.222898
    26  N    0.487847
    27  O   -0.460926
    28  O   -0.459395
 Sum of Mulliken charges =  -0.00000

 Dipole moment (field-independent basis, Debye):
    X=             -2.2454    Y=              1.8819    Z=              3.1013  Tot=              4.2663
 Quadrupole moment (field-independent basis, Debye-Ang):
   XX=           -139.8256   YY=           -102.1455   ZZ=            -99.5246
   XY=            -24.7753   XZ=              5.6729   YZ=             -1.0628

 Normal termination of Gaussian 16 at Thu May  6 11:30:21 2021.
