 Gaussian 16, Revision A.03,
 Gaussian 16:  EM64L-G16RevA.03 25-Dec-2016

 -------------
 #p 6-31g* mp2
 -------------

 ------------------------------------------------------
 Input file generated by CHIRIPA (05-May-2021 14:55:23)
 ------------------------------------------------------
 Symbolic Z-matrix:
 Charge =  0 Multiplicity = 1

                         Standard orientation:
 ---------------------------------------------------------------------
 Center     Atomic      Atomic             Coordinates (Angstroms)
 Number     Number       Type             X           Y           Z
 ---------------------------------------------------------------------
      1          6           0       -2.193380    2.427381   -0.127027
      2          6           0       -1.571023    1.247299   -0.547265
      3          6           0       -2.261318    0.031864   -0.519729
      4          6           0       -3.578730    0.032988   -0.063971
      5          6           0       -4.226247    1.191936    0.361295
      6          6           0       -3.516672    2.395989    0.325114
      7          1           0       -1.649653    3.367139   -0.151776
      8          1           0       -0.543431    1.268682   -0.898892
      9          1           0       -1.803730   -0.896537   -0.839262
     10          1           0       -5.251594    1.139043    0.706671
     11          1           0       -4.002541    3.310903    0.652084
     12          7           0       -4.319720   -1.247713   -0.030244
     13          8           0       -5.479524   -1.220063    0.375621
     14          8           0       -3.726672   -2.254927   -0.410312
     15          6           0        4.970630    0.202765   -0.051461
     16          6           0        6.384759   -0.341711    0.152916
     17          6           0        7.466465    0.700670   -0.131945
     18          1           0        4.869770    0.565283   -1.083621
     19          1           0        4.822708    1.073941    0.601661
     20          1           0        6.529499   -1.212442   -0.499385
     21          1           0        6.482203   -0.703150    1.184654
     22          1           0        7.350319    1.566575    0.527843
     23          1           0        7.397883    1.054389   -1.165764
     24          1           0        8.469561    0.290228    0.020353
     25          6           0        3.878281   -0.827568    0.229457
     26          6           0        2.464152   -0.283091    0.025080
     27          6           0        1.382447   -1.325472    0.309942
     28          1           0        4.026203   -1.698743   -0.423664
     29          1           0        3.979140   -1.190084    1.261617
     30          1           0        2.366708    0.078347   -1.006657
     31          1           0        2.319412    0.587639    0.677381
     32          1           0        1.451028   -1.679192    1.343760
     33          1           0        1.498592   -2.191377   -0.349846
     34          1           0        0.379350   -0.915030    0.157644
 ---------------------------------------------------------------------

 SCF Done:  E(RHF) =  -669.534823517     A.U. after   15 cycles
 E2 =    -0.2092199883D+01 EUMP2 =    -0.67162702339945D+03

 The electronic state is 1-A.
 Alpha  occ. eigenvalues --  -20.60747 -20.60741 -15.85801 -11.31180 -11.27758
 Alpha  occ. eigenvalues --  -11.27728 -11.27495 -11.26776 -11.26746 -11.22333
 Alpha  occ. eigenvalues --  -11.21961 -11.21907 -11.21821 -11.21675 -11.21390
 Alpha  occ. eigenvalues --   -1.59822  -1.39375  -1.19361  -1.08940  -1.08748
 Alpha  occ. eigenvalues --   -1.04780  -1.04041  -0.96480  -0.95581  -0.87496
 Alpha  occ. eigenvalues --   -0.86158  -0.82421  -0.80122  -0.78743  -0.77468
 Alpha  occ. eigenvalues --   -0.72020  -0.71145  -0.70476  -0.65562  -0.65023
 Alpha  occ. eigenvalues --   -0.64765  -0.62250  -0.61427  -0.59805  -0.58082
 Alpha  occ. eigenvalues --   -0.55734  -0.55260  -0.53357  -0.53038  -0.52828
 Alpha  occ. eigenvalues --   -0.52775  -0.50393  -0.48780  -0.48773  -0.48428
 Alpha  occ. eigenvalues --   -0.47148  -0.46283  -0.46194  -0.44778  -0.44298
 Alpha  occ. eigenvalues --   -0.37338  -0.36334
 Alpha virt. eigenvalues --    0.05033   0.11267   0.16415   0.20271   0.22584
 Alpha virt. eigenvalues --    0.23870   0.25938   0.26309   0.26784   0.28007
 Alpha virt. eigenvalues --    0.29070   0.29906   0.30971   0.31509   0.32348

 Mulliken charges:
               1
     1  C   -0.171754
     2  C   -0.220333
     3  C   -0.172775
     4  C    0.157522
     5  C   -0.171200
     6  C   -0.218440
     7  H    0.225870
     8  H    0.228510
     9  H    0.277965
    10  H    0.275647
    11  H    0.223471
    12  N    0.488234
    13  O   -0.460554
    14  O   -0.460066
    15  C   -0.298593
    16  C   -0.300124
    17  C   -0.475953
    18  H    0.149003
    19  H    0.148873
    20  H    0.153184
    21  H    0.153088
    22  H    0.155024
    23  H    0.155163
    24  H    0.161708
    25  C   -0.298746
    26  C   -0.301803
    27  C   -0.482122
    28  H    0.152130
    29  H    0.152431
    30  H    0.146761
    31  H    0.150557
    32  H    0.161754
    33  H    0.159723
    34  H    0.155845
 Sum of Mulliken charges =  -0.00000

 Dipole moment (field-independent basis, Debye):
    X=              2.7198    Y=              4.4656    Z=             -0.0688  Tot=              5.2291
 Quadrupole moment (field-independent basis, Debye-Ang):
   XX=           -110.6547   YY=            -93.9748   ZZ=            -93.9181
   XY=            -19.2052   XZ=             -1.1884   YZ=              1.0597

 Normal termination of Gaussian 16 at Thu May  6 15:55:32 2021.
