 Gaussian 16, Revision A.03,
 Gaussian 16:  EM64L-G16RevA.03 25-Dec-2016

 -------------
 #p 6-31g* mp2
 -------------

 ------------------------------------------------------
 Input file generated by CHIRIPA (05-May-2021 14:51:09)
 ------------------------------------------------------
 Symbolic Z-matrix:
 Charge =  0 Multiplicity = 1

                         Standard orientation:
 ---------------------------------------------------------------------
 Center     Atomic      Atomic             Coordinates (Angstroms)
 Number     Number       Type             X           Y           Z
 ---------------------------------------------------------------------
      1          6           0        4.156822    0.031661   -0.070855
      2          6           0        4.607030    1.463822   -0.361049
      3          6           0        5.927450    1.524158   -1.129583
      4          1           0        4.940105   -0.483162    0.502180
      5          1           0        4.054960   -0.512680   -1.019913
      6          1           0        4.706677    2.005702    0.588189
      7          1           0        3.822502    1.975355   -0.933295
      8          1           0        5.837642    1.007889   -2.090833
      9          1           0        6.726841    1.038408   -0.560704
     10          1           0        6.230594    2.557233   -1.326354
     11          6           0        2.838333   -0.045096    0.696884
     12          6           0        2.388124   -1.477257    0.987078
     13          6           0        1.067704   -1.537593    1.755612
     14          1           0        2.940195    0.499246    1.645942
     15          1           0        2.055050    0.469727    0.123849
     16          1           0        3.172653   -1.988789    1.559324
     17          1           0        2.288478   -2.019136    0.037840
     18          1           0        0.268314   -1.051843    1.186733
     19          1           0        1.157512   -1.021323    2.716862
     20          1           0        0.764560   -2.570668    1.952383
     21          6           0       -3.223422   -0.461829   -0.850356
     22          6           0       -2.705512   -1.787697   -0.291942
     23          6           0       -2.160288   -2.714331   -1.379082
     24          1           0       -4.010361   -0.664997   -1.589541
     25          1           0       -2.410442    0.043251   -1.390127
     26          1           0       -3.518849   -2.289478    0.247795
     27          1           0       -1.919848   -1.581341    0.446140
     28          1           0       -1.331399   -2.237187   -1.911882
     29          1           0       -2.939483   -2.949348   -2.111354
     30          1           0       -1.795389   -3.656276   -0.957834
     31          6           0       -3.771732    0.475263    0.224327
     32          6           0       -4.289642    1.801131   -0.334087
     33          6           0       -4.834867    2.727766    0.753053
     34          1           0       -4.584713   -0.029816    0.764099
     35          1           0       -2.984793    0.678431    0.963512
     36          1           0       -5.075306    1.594775   -1.072169
     37          1           0       -3.476306    2.302913   -0.873824
     38          1           0       -4.055671    2.962782    1.485325
     39          1           0       -5.663756    2.250622    1.285853
     40          1           0       -5.199765    3.669710    0.331805
 ---------------------------------------------------------------------

 SCF Done:  E(RHF) =  -470.733259437     A.U. after   11 cycles
 E2 =    -0.1582593743D+01 EUMP2 =    -0.47231585318070D+03

 The electronic state is 1-A.
 Alpha  occ. eigenvalues --  -11.21640 -11.21630 -11.21595 -11.21538 -11.21444
 Alpha  occ. eigenvalues --  -11.21394 -11.21383 -11.21335 -11.21116 -11.21092
 Alpha  occ. eigenvalues --  -11.21061 -11.21059  -1.08469  -1.08415  -1.03574
 Alpha  occ. eigenvalues --   -1.03504  -0.96024  -0.95959  -0.87043  -0.86975
 Alpha  occ. eigenvalues --   -0.79669  -0.79539  -0.78289  -0.78218  -0.65155
 Alpha  occ. eigenvalues --   -0.65007  -0.61108  -0.60787  -0.59391  -0.59323
 Alpha  occ. eigenvalues --   -0.57627  -0.57574  -0.55377  -0.55188  -0.52716
 Alpha  occ. eigenvalues --   -0.52652  -0.52463  -0.52376  -0.50066  -0.49838
 Alpha  occ. eigenvalues --   -0.48015  -0.47837  -0.46817  -0.46460  -0.45878
 Alpha  occ. eigenvalues --   -0.45767  -0.45736  -0.45554  -0.43819  -0.43766
 Alpha virt. eigenvalues --    0.21069   0.23110   0.23767   0.25131   0.25850
 Alpha virt. eigenvalues --    0.26761   0.27215   0.27433   0.28043   0.28911
 Alpha virt. eigenvalues --    0.30710   0.31304   0.31633   0.31832   0.32304

 Mulliken charges:
               1
     1  C   -0.298351
     2  C   -0.299670
     3  C   -0.475734
     4  H    0.149823
     5  H    0.149644
     6  H    0.151972
     7  H    0.151830
     8  H    0.155254
     9  H    0.155256
    10  H    0.160334
    11  C   -0.298475
    12  C   -0.299580
    13  C   -0.480673
    14  H    0.149616
    15  H    0.149198
    16  H    0.152192
    17  H    0.152441
    18  H    0.159413
    19  H    0.155421
    20  H    0.160872
    21  C   -0.298007
    22  C   -0.307642
    23  C   -0.475094
    24  H    0.149658
    25  H    0.148521
    26  H    0.151979
    27  H    0.160197
    28  H    0.154196
    29  H    0.155130
    30  H    0.160326
    31  C   -0.298413
    32  C   -0.299587
    33  C   -0.475721
    34  H    0.149732
    35  H    0.149590
    36  H    0.151940
    37  H    0.151719
    38  H    0.155297
    39  H    0.155210
    40  H    0.160187
 Sum of Mulliken charges =  -0.00000

 Dipole moment (field-independent basis, Debye):
    X=              0.0216    Y=             -0.0093    Z=              0.0217  Tot=              0.0320
 Quadrupole moment (field-independent basis, Debye-Ang):
   XX=            -84.7009   YY=            -85.2765   ZZ=            -84.7508
   XY=              0.5274   XZ=              1.3524   YZ=             -0.3748

 Normal termination of Gaussian 16 at Wed May  5 15:07:23 2021.
