 Gaussian 16, Revision A.03,
 Gaussian 16:  EM64L-G16RevA.03 25-Dec-2016

 -------------
 #p 6-31g* mp2
 -------------

 ------------------------------------------------------
 Input file generated by CHIRIPA (05-May-2021 14:57:26)
 ------------------------------------------------------
 Symbolic Z-matrix:
 Charge =  0 Multiplicity = 1

                         Standard orientation:
 ---------------------------------------------------------------------
 Center     Atomic      Atomic             Coordinates (Angstroms)
 Number     Number       Type             X           Y           Z
 ---------------------------------------------------------------------
      1          6           0       -3.959951    1.931171    0.424110
      2          6           0       -2.935927    2.143484   -0.504770
      3          6           0       -2.140457    1.079446   -0.940198
      4          6           0       -2.397846   -0.189520   -0.423702
      5          6           0       -3.410600   -0.433012    0.502758
      6          6           0       -4.193608    0.645866    0.924028
      7          1           0       -4.573051    2.763505    0.756862
      8          1           0       -2.752192    3.140594   -0.894716
      9          1           0       -1.341068    1.215611   -1.658428
     10          1           0       -3.569791   -1.438301    0.873529
     11          1           0       -4.988184    0.478025    1.645501
     12          7           0       -1.562314   -1.323825   -0.877176
     13          8           0       -1.809307   -2.432228   -0.406992
     14          8           0       -0.676252   -1.083012   -1.694208
     15          6           0        1.281452   -2.058943    1.086061
     16          6           0        2.206082   -2.138886    0.039547
     17          6           0        2.906674   -1.003090   -0.377211
     18          6           0        2.656793    0.201872    0.277704
     19          6           0        1.741857    0.313604    1.323505
     20          6           0        1.052694   -0.835110    1.723576
     21          1           0        0.741655   -2.946274    1.403326
     22          1           0        2.385770   -3.088001   -0.457381
     23          1           0        3.628046   -1.036671   -1.184621
     24          1           0        1.584141    1.273735    1.799627
     25          1           0        0.335197   -0.770059    2.536601
     26          7           0        3.392429    1.411127   -0.154666
     27          8           0        3.154211    2.460876    0.438560
     28          8           0        4.193308    1.286294   -1.078594
 ---------------------------------------------------------------------

 SCF Done:  E(RHF) =  -868.339387538     A.U. after   16 cycles
 E2 =    -0.2602214543D+01 EUMP2 =    -0.87094160208092D+03

 The electronic state is 1-A.
 Alpha  occ. eigenvalues --  -20.61386 -20.61300 -20.60240 -20.60213 -15.86343
 Alpha  occ. eigenvalues --  -15.85275 -11.31595 -11.30354 -11.28182 -11.28083
 Alpha  occ. eigenvalues --  -11.27841 -11.27154 -11.27070 -11.27019 -11.26855
 Alpha  occ. eigenvalues --  -11.26482 -11.25928 -11.25718  -1.60393  -1.59313
 Alpha  occ. eigenvalues --   -1.39958  -1.38874  -1.19749  -1.18504  -1.09165
 Alpha  occ. eigenvalues --   -1.07931  -1.05126  -1.03883  -0.96027  -0.94814
 Alpha  occ. eigenvalues --   -0.86527  -0.85291  -0.82867  -0.81673  -0.77930
 Alpha  occ. eigenvalues --   -0.76777  -0.72613  -0.71741  -0.71502  -0.70845
 Alpha  occ. eigenvalues --   -0.70631  -0.69551  -0.65399  -0.65117  -0.64159
 Alpha  occ. eigenvalues --   -0.63897  -0.62469  -0.61264  -0.55626  -0.54314
 Alpha  occ. eigenvalues --   -0.53473  -0.53206  -0.52199  -0.51985  -0.49372
 Alpha  occ. eigenvalues --   -0.49332  -0.48271  -0.48231  -0.45385  -0.44345
 Alpha  occ. eigenvalues --   -0.37758  -0.36739  -0.36377  -0.35408
 Alpha virt. eigenvalues --    0.04547   0.05777   0.10899   0.12206   0.16095
 Alpha virt. eigenvalues --    0.17353   0.21119   0.22342   0.27046   0.27974
 Alpha virt. eigenvalues --    0.28124   0.29286   0.30707   0.31887   0.32206

 Mulliken charges:
               1
     1  C   -0.170847
     2  C   -0.218754
     3  C   -0.170410
     4  C    0.159151
     5  C   -0.174797
     6  C   -0.219094
     7  H    0.227533
     8  H    0.227888
     9  H    0.279022
    10  H    0.272746
    11  H    0.223689
    12  N    0.490593
    13  O   -0.470437
    14  O   -0.454650
    15  C   -0.164784
    16  C   -0.203870
    17  C   -0.166190
    18  C    0.157286
    19  C   -0.173423
    20  C   -0.230420
    21  H    0.232915
    22  H    0.225692
    23  H    0.273674
    24  H    0.269639
    25  H    0.218007
    26  N    0.487769
    27  O   -0.466706
    28  O   -0.461221
 Sum of Mulliken charges =  -0.00000

 Dipole moment (field-independent basis, Debye):
    X=             -5.6185    Y=             -0.4340    Z=              2.8662  Tot=              6.3223
 Quadrupole moment (field-independent basis, Debye-Ang):
   XX=           -103.4508   YY=           -105.1068   ZZ=           -102.2914
   XY=            -21.8538   XZ=             -3.2357   YZ=             -2.9165

 Normal termination of Gaussian 16 at Thu May  6 16:31:14 2021.
