 Gaussian 16, Revision A.03,
 Gaussian 16:  EM64L-G16RevA.03 25-Dec-2016

 -------------
 #p 6-31g* mp2
 -------------

 ------------------------------------------------------
 Input file generated by CHIRIPA (05-May-2021 14:53:15)
 ------------------------------------------------------
 Symbolic Z-matrix:
 Charge =  0 Multiplicity = 1

                         Standard orientation:
 ---------------------------------------------------------------------
 Center     Atomic      Atomic             Coordinates (Angstroms)
 Number     Number       Type             X           Y           Z
 ---------------------------------------------------------------------
      1          6           0        3.191890   -0.403420    0.636576
      2          6           0        3.255090   -1.907623    0.369437
      3          6           0        2.425382   -2.720045    1.364098
      4          1           0        3.542964   -0.203836    1.658270
      5          1           0        2.144199   -0.074614    0.596253
      6          1           0        4.302482   -2.233245    0.408884
      7          1           0        2.904005   -2.103629   -0.651806
      8          1           0        1.372418   -2.423504    1.320147
      9          1           0        2.778841   -2.553856    2.386863
     10          1           0        2.484791   -3.792651    1.154697
     11          6           0        4.016337    0.422167   -0.349539
     12          6           0        3.953137    1.926370   -0.082400
     13          6           0        4.782845    2.738792   -1.077061
     14          1           0        5.064027    0.093361   -0.309216
     15          1           0        3.665263    0.222583   -1.371233
     16          1           0        4.304222    2.122376    0.938842
     17          1           0        2.905745    2.251992   -0.121847
     18          1           0        4.429386    2.572603   -2.099826
     19          1           0        5.835809    2.442251   -1.033110
     20          1           0        4.723436    3.811398   -0.867660
     21          6           0       -4.231440    1.787549    0.955619
     22          6           0       -4.703963    1.098008   -0.165887
     23          6           0       -3.928104    0.101598   -0.765685
     24          6           0       -2.678847   -0.180845   -0.215350
     25          6           0       -2.180355    0.488542    0.901216
     26          6           0       -2.973363    1.481155    1.484659
     27          1           0       -4.840807    2.560109    1.415205
     28          1           0       -5.680615    1.333846   -0.578895
     29          1           0       -4.269470   -0.447769   -1.634641
     30          1           0       -1.202690    0.231202    1.290274
     31          1           0       -2.603832    2.015032    2.355560
     32          7           0       -1.848402   -1.233689   -0.841672
     33          8           0       -0.751257   -1.463741   -0.337702
     34          8           0       -2.310370   -1.808922   -1.824693
 ---------------------------------------------------------------------

 SCF Done:  E(RHF) =  -669.536322539     A.U. after   15 cycles
 E2 =    -0.2091329290D+01 EUMP2 =    -0.67162765182877D+03

 The electronic state is 1-A.
 Alpha  occ. eigenvalues --  -20.60999 -20.60982 -15.86031 -11.31322 -11.27884
 Alpha  occ. eigenvalues --  -11.27879 -11.27615 -11.26885 -11.26875 -11.21229
 Alpha  occ. eigenvalues --  -11.20778 -11.20763 -11.20607 -11.20528 -11.19841
 Alpha  occ. eigenvalues --   -1.60053  -1.39611  -1.19489  -1.08898  -1.07727
 Alpha  occ. eigenvalues --   -1.04882  -1.02783  -0.95746  -0.95238  -0.86286
 Alpha  occ. eigenvalues --   -0.86262  -0.82582  -0.78900  -0.77662  -0.77492
 Alpha  occ. eigenvalues --   -0.72263  -0.71365  -0.70598  -0.65151  -0.64884
 Alpha  occ. eigenvalues --   -0.64334  -0.62230  -0.60145  -0.58663  -0.56851
 Alpha  occ. eigenvalues --   -0.55386  -0.54500  -0.53215  -0.52973  -0.51952
 Alpha  occ. eigenvalues --   -0.51677  -0.49206  -0.49017  -0.48967  -0.47204
 Alpha  occ. eigenvalues --   -0.45928  -0.45071  -0.45006  -0.44923  -0.43058
 Alpha  occ. eigenvalues --   -0.37466  -0.36482
 Alpha virt. eigenvalues --    0.04874   0.11170   0.16373   0.20834   0.23309
 Alpha virt. eigenvalues --    0.24578   0.26105   0.27462   0.27865   0.28698
 Alpha virt. eigenvalues --    0.29045   0.30710   0.31650   0.32354   0.32604

 Mulliken charges:
               1
     1  C   -0.299914
     2  C   -0.296714
     3  C   -0.483100
     4  H    0.143568
     5  H    0.153134
     6  H    0.145875
     7  H    0.160709
     8  H    0.175031
     9  H    0.145060
    10  H    0.158195
    11  C   -0.298194
    12  C   -0.298601
    13  C   -0.475259
    14  H    0.147930
    15  H    0.152598
    16  H    0.149430
    17  H    0.148767
    18  H    0.155821
    19  H    0.155011
    20  H    0.157452
    21  C   -0.170485
    22  C   -0.218578
    23  C   -0.170706
    24  C    0.157589
    25  C   -0.171436
    26  C   -0.218698
    27  H    0.226165
    28  H    0.223930
    29  H    0.275868
    30  H    0.276590
    31  H    0.224310
    32  N    0.495129
    33  O   -0.468060
    34  O   -0.458417
 Sum of Mulliken charges =  -0.00000

 Dipole moment (field-independent basis, Debye):
    X=             -3.2122    Y=              3.6435    Z=              2.0862  Tot=              5.2864
 Quadrupole moment (field-independent basis, Debye-Ang):
   XX=            -77.1990   YY=            -97.4485   ZZ=            -94.0375
   XY=             -9.5409   XZ=             -2.1152   YZ=              0.2191

 Normal termination of Gaussian 16 at Thu May  6 09:03:18 2021.
