 Gaussian 16, Revision A.03,
 Gaussian 16:  EM64L-G16RevA.03 25-Dec-2016

 -------------
 #p 6-31g* mp2
 -------------

 ------------------------------------------------------
 Input file generated by CHIRIPA (05-May-2021 14:55:24)
 ------------------------------------------------------
 Symbolic Z-matrix:
 Charge =  0 Multiplicity = 1

                         Standard orientation:
 ---------------------------------------------------------------------
 Center     Atomic      Atomic             Coordinates (Angstroms)
 Number     Number       Type             X           Y           Z
 ---------------------------------------------------------------------
      1          6           0        3.035234    2.315136    0.826651
      2          6           0        4.084630    1.427026    0.568678
      3          6           0        3.823894    0.140139    0.088589
      4          6           0        2.495913   -0.227140   -0.123221
      5          6           0        1.428724    0.634915    0.124285
      6          6           0        1.712961    1.916948    0.604023
      7          1           0        3.246908    3.312936    1.199459
      8          1           0        5.112501    1.733541    0.740648
      9          1           0        4.617198   -0.567516   -0.119524
     10          1           0        0.414390    0.300669   -0.056888
     11          1           0        0.895984    2.604558    0.803488
     12          7           0        2.207444   -1.586940   -0.631284
     13          8           0        1.028796   -1.886285   -0.809662
     14          8           0        3.165452   -2.327659   -0.841505
     15          6           0       -3.108138    0.569890   -0.440689
     16          6           0       -3.720851    1.907945   -0.025746
     17          6           0       -3.417058    3.030441   -1.018472
     18          1           0       -2.020531    0.687511   -0.541791
     19          1           0       -3.486421    0.293859   -1.434723
     20          1           0       -3.342595    2.180694    0.967806
     21          1           0       -4.807104    1.787077    0.074566
     22          1           0       -3.809388    2.784081   -2.010432
     23          1           0       -2.336557    3.179935   -1.112118
     24          1           0       -3.864507    3.977932   -0.702384
     25          6           0       -3.403110   -0.562138    0.541774
     26          6           0       -2.790397   -1.900192    0.126831
     27          6           0       -3.094190   -3.022689    1.119557
     28          1           0       -3.024827   -0.286106    1.535808
     29          1           0       -4.490716   -0.679759    0.642876
     30          1           0       -1.704145   -1.779325    0.026518
     31          1           0       -3.168654   -2.172942   -0.866720
     32          1           0       -4.174691   -3.172183    1.213202
     33          1           0       -2.701860   -2.776329    2.111517
     34          1           0       -2.646742   -3.970180    0.803468
 ---------------------------------------------------------------------

 SCF Done:  E(RHF) =  -669.535732002     A.U. after   15 cycles
 E2 =    -0.2092404400D+01 EUMP2 =    -0.67162813640269D+03

 The electronic state is 1-A.
 Alpha  occ. eigenvalues --  -20.60904 -20.60895 -15.85941 -11.31263 -11.27828
 Alpha  occ. eigenvalues --  -11.27824 -11.27567 -11.26839 -11.26829 -11.21886
 Alpha  occ. eigenvalues --  -11.21583 -11.21441 -11.21230 -11.20910 -11.20483
 Alpha  occ. eigenvalues --   -1.59967  -1.39523  -1.19435  -1.08837  -1.08402
 Alpha  occ. eigenvalues --   -1.04834  -1.03394  -0.95896  -0.95680  -0.86913
 Alpha  occ. eigenvalues --   -0.86235  -0.82517  -0.79510  -0.78154  -0.77536
 Alpha  occ. eigenvalues --   -0.72167  -0.71281  -0.70552  -0.65123  -0.65088
 Alpha  occ. eigenvalues --   -0.64795  -0.62177  -0.60794  -0.59293  -0.57453
 Alpha  occ. eigenvalues --   -0.55364  -0.55195  -0.53163  -0.52934  -0.52560
 Alpha  occ. eigenvalues --   -0.52296  -0.49877  -0.48944  -0.48914  -0.47789
 Alpha  occ. eigenvalues --   -0.46583  -0.45654  -0.45537  -0.44901  -0.43677
 Alpha  occ. eigenvalues --   -0.37413  -0.36434
 Alpha virt. eigenvalues --    0.04951   0.11214   0.16441   0.19072   0.23070
 Alpha virt. eigenvalues --    0.23975   0.25003   0.27020   0.27484   0.28144
 Alpha virt. eigenvalues --    0.29607   0.31117   0.31683   0.32131   0.32371

 Mulliken charges:
               1
     1  C   -0.170281
     2  C   -0.219028
     3  C   -0.169820
     4  C    0.157801
     5  C   -0.179869
     6  C   -0.222717
     7  H    0.226048
     8  H    0.223802
     9  H    0.275798
    10  H    0.289423
    11  H    0.224055
    12  N    0.492155
    13  O   -0.465904
    14  O   -0.459174
    15  C   -0.300371
    16  C   -0.299664
    17  C   -0.474553
    18  H    0.141402
    19  H    0.154649
    20  H    0.147763
    21  H    0.155078
    22  H    0.158721
    23  H    0.148424
    24  H    0.160431
    25  C   -0.298590
    26  C   -0.311999
    27  C   -0.475163
    28  H    0.145042
    29  H    0.149500
    30  H    0.175560
    31  H    0.152427
    32  H    0.151116
    33  H    0.151879
    34  H    0.166058
 Sum of Mulliken charges =  -0.00000

 Dipole moment (field-independent basis, Debye):
    X=              1.0829    Y=              4.6578    Z=              1.7095  Tot=              5.0784
 Quadrupole moment (field-independent basis, Debye-Ang):
   XX=            -83.9779   YY=            -98.0098   ZZ=            -96.2719
   XY=             10.8994   XZ=              5.2193   YZ=             -0.1100

 Normal termination of Gaussian 16 at Thu May  6 07:56:32 2021.
