 Gaussian 16, Revision A.03,
 Gaussian 16:  EM64L-G16RevA.03 25-Dec-2016

 -------------
 #p 6-31g* mp2
 -------------

 ------------------------------------------------------
 Input file generated by CHIRIPA (05-May-2021 14:51:14)
 ------------------------------------------------------
 Symbolic Z-matrix:
 Charge =  0 Multiplicity = 1

                         Standard orientation:
 ---------------------------------------------------------------------
 Center     Atomic      Atomic             Coordinates (Angstroms)
 Number     Number       Type             X           Y           Z
 ---------------------------------------------------------------------
      1          6           0        2.406530    1.116187   -0.453945
      2          6           0        1.633358    2.397938   -0.142010
      3          6           0        1.719332    3.428979   -1.267780
      4          1           0        3.459117    1.367387   -0.643425
      5          1           0        2.017362    0.678580   -1.383700
      6          1           0        2.022941    2.832257    0.787618
      7          1           0        0.582528    2.143635    0.046937
      8          1           0        1.312173    3.018910   -2.197654
      9          1           0        2.760771    3.711444   -1.452765
     10          1           0        1.159644    4.337336   -1.023858
     11          6           0        2.330067    0.075775    0.662040
     12          6           0        3.103238   -1.205977    0.350105
     13          6           0        3.017264   -2.237018    1.475875
     14          1           0        2.719235    0.513382    1.591795
     15          1           0        1.277479   -0.175425    0.851520
     16          1           0        4.154069   -0.951674    0.161158
     17          1           0        2.713655   -1.640296   -0.579522
     18          1           0        1.975825   -2.519483    1.660860
     19          1           0        3.424423   -1.826948    2.405749
     20          1           0        3.576952   -3.145374    1.231953
     21          6           0       -1.760558   -0.947560   -0.404841
     22          6           0       -2.013165   -2.418976   -0.735160
     23          6           0       -0.788054   -3.108684   -1.336159
     24          1           0       -1.452855   -0.420829   -1.318524
     25          1           0       -0.917503   -0.875866    0.296239
     26          1           0       -2.856382   -2.487960   -1.434333
     27          1           0       -2.320489   -2.942224    0.179379
     28          1           0        0.056209   -3.069452   -0.640255
     29          1           0       -0.482730   -2.612608   -2.263135
     30          1           0       -0.990788   -4.159653   -1.564683
     31          6           0       -2.976038   -0.244402    0.196746
     32          6           0       -2.723432    1.227015    0.527064
     33          6           0       -3.948542    1.916723    1.128063
     34          1           0       -3.819093   -0.316095   -0.504334
     35          1           0       -3.283741   -0.771131    1.110430
     36          1           0       -2.416108    1.750263   -0.387473
     37          1           0       -1.880215    1.295999    1.226238
     38          1           0       -4.253867    1.420647    2.055040
     39          1           0       -4.792806    1.877491    0.432160
     40          1           0       -3.745808    2.967692    1.356588
 ---------------------------------------------------------------------

 SCF Done:  E(RHF) =  -470.733242768     A.U. after   11 cycles
 E2 =    -0.1584619358D+01 EUMP2 =    -0.47231786212611D+03

 The electronic state is 1-A.
 Alpha  occ. eigenvalues --  -11.21684 -11.21678 -11.21570 -11.21511 -11.21492
 Alpha  occ. eigenvalues --  -11.21431 -11.21346 -11.21287 -11.21150 -11.21122
 Alpha  occ. eigenvalues --  -11.21092 -11.21028  -1.08530  -1.08372  -1.03612
 Alpha  occ. eigenvalues --   -1.03487  -0.96061  -0.95943  -0.87075  -0.86962
 Alpha  occ. eigenvalues --   -0.79690  -0.79535  -0.78438  -0.78113  -0.65265
 Alpha  occ. eigenvalues --   -0.64913  -0.61077  -0.60828  -0.59426  -0.59302
 Alpha  occ. eigenvalues --   -0.57692  -0.57541  -0.55452  -0.55144  -0.52747
 Alpha  occ. eigenvalues --   -0.52641  -0.52516  -0.52336  -0.50061  -0.49834
 Alpha  occ. eigenvalues --   -0.48114  -0.47762  -0.46742  -0.46548  -0.46420
 Alpha  occ. eigenvalues --   -0.45822  -0.45674  -0.45074  -0.43861  -0.43739
 Alpha virt. eigenvalues --    0.19461   0.22005   0.23657   0.24315   0.25248
 Alpha virt. eigenvalues --    0.26309   0.27174   0.27564   0.28539   0.29828
 Alpha virt. eigenvalues --    0.31143   0.31416   0.31652   0.31755   0.32207

 Mulliken charges:
               1
     1  C   -0.297473
     2  C   -0.305334
     3  C   -0.475417
     4  H    0.149281
     5  H    0.149777
     6  H    0.151192
     7  H    0.158200
     8  H    0.154595
     9  H    0.154969
    10  H    0.159970
    11  C   -0.305469
    12  C   -0.301205
    13  C   -0.476779
    14  H    0.149126
    15  H    0.156000
    16  H    0.152103
    17  H    0.154026
    18  H    0.154436
    19  H    0.155358
    20  H    0.160681
    21  C   -0.306826
    22  C   -0.299146
    23  C   -0.479365
    24  H    0.149483
    25  H    0.156782
    26  H    0.152445
    27  H    0.152148
    28  H    0.158357
    29  H    0.155028
    30  H    0.160982
    31  C   -0.297608
    32  C   -0.303106
    33  C   -0.475667
    34  H    0.149944
    35  H    0.149863
    36  H    0.152909
    37  H    0.154235
    38  H    0.155396
    39  H    0.155383
    40  H    0.160727
 Sum of Mulliken charges =  -0.00000

 Dipole moment (field-independent basis, Debye):
    X=             -0.0539    Y=             -0.0166    Z=              0.0005  Tot=              0.0564
 Quadrupole moment (field-independent basis, Debye-Ang):
   XX=            -84.5779   YY=            -85.6955   ZZ=            -84.4411
   XY=              0.7414   XZ=              0.9595   YZ=              0.2964

 Normal termination of Gaussian 16 at Thu May  6 05:37:14 2021.
