 Gaussian 16, Revision A.03,
 Gaussian 16:  EM64L-G16RevA.03 25-Dec-2016

 -------------
 #p 6-31g* mp2
 -------------

 ------------------------------------------------------
 Input file generated by CHIRIPA (05-May-2021 14:51:11)
 ------------------------------------------------------
 Symbolic Z-matrix:
 Charge =  0 Multiplicity = 1

                         Standard orientation:
 ---------------------------------------------------------------------
 Center     Atomic      Atomic             Coordinates (Angstroms)
 Number     Number       Type             X           Y           Z
 ---------------------------------------------------------------------
      1          6           0       -4.344264    0.638091    0.325940
      2          6           0       -4.171161    1.935011   -0.465273
      3          6           0       -5.017225    3.082258    0.087715
      4          1           0       -5.404487    0.350307    0.318609
      5          1           0       -4.076753    0.819026    1.376224
      6          1           0       -4.437595    1.751336   -1.514031
      7          1           0       -3.111198    2.219638   -0.456219
      8          1           0       -4.746718    3.294121    1.127206
      9          1           0       -6.080651    2.823157    0.063384
     10          1           0       -4.878189    3.999637   -0.492755
     11          6           0       -3.504837   -0.518071   -0.214780
     12          6           0       -3.677940   -1.814991    0.576433
     13          6           0       -2.831876   -2.962237    0.023445
     14          1           0       -3.772348   -0.699006   -1.265064
     15          1           0       -2.444614   -0.230287   -0.207449
     16          1           0       -4.737903   -2.099618    0.567379
     17          1           0       -3.411506   -1.631315    1.625191
     18          1           0       -1.768450   -2.703137    0.047776
     19          1           0       -3.102382   -3.174100   -1.016046
     20          1           0       -2.970912   -3.879616    0.603915
     21          6           0        3.166288   -0.017755   -0.137338
     22          6           0        2.488899   -1.385642   -0.226871
     23          6           0        0.972030   -1.284583   -0.390229
     24          1           0        2.741351    0.540107    0.708337
     25          1           0        2.931690    0.559753   -1.042237
     26          1           0        2.725842   -1.960919    0.677303
     27          1           0        2.915633   -1.940386   -1.072313
     28          1           0        0.718586   -0.733269   -1.301504
     29          1           0        0.527716   -0.753919    0.458054
     30          1           0        0.508114   -2.273929   -0.452163
     31          6           0        4.682812   -0.102265    0.026178
     32          6           0        5.360202    1.265621    0.115711
     33          6           0        6.877072    1.164562    0.279069
     34          1           0        4.917411   -0.679773    0.931077
     35          1           0        5.107750   -0.660127   -0.819496
     36          1           0        4.933468    1.820366    0.961153
     37          1           0        5.123259    1.840898   -0.788463
     38          1           0        7.321385    0.633898   -0.569213
     39          1           0        7.130516    0.613249    1.190344
     40          1           0        7.340987    2.153909    0.341003
 ---------------------------------------------------------------------

 SCF Done:  E(RHF) =  -470.733165338     A.U. after   11 cycles
 E2 =    -0.1582675552D+01 EUMP2 =    -0.47231584089009D+03

 The electronic state is 1-A.
 Alpha  occ. eigenvalues --  -11.21654 -11.21626 -11.21558 -11.21518 -11.21442
 Alpha  occ. eigenvalues --  -11.21382 -11.21334 -11.21263 -11.21148 -11.21090
 Alpha  occ. eigenvalues --  -11.21039 -11.20931  -1.08470  -1.08358  -1.03580
 Alpha  occ. eigenvalues --   -1.03455  -0.96040  -0.95900  -0.87070  -0.86910
 Alpha  occ. eigenvalues --   -0.79675  -0.79495  -0.78286  -0.78161  -0.65101
 Alpha  occ. eigenvalues --   -0.64990  -0.60987  -0.60865  -0.59439  -0.59254
 Alpha  occ. eigenvalues --   -0.57695  -0.57472  -0.55326  -0.55196  -0.52829
 Alpha  occ. eigenvalues --   -0.52608  -0.52480  -0.52217  -0.49977  -0.49823
 Alpha  occ. eigenvalues --   -0.47954  -0.47831  -0.46683  -0.46545  -0.45864
 Alpha  occ. eigenvalues --   -0.45746  -0.45695  -0.45605  -0.43777  -0.43711
 Alpha virt. eigenvalues --    0.21774   0.22952   0.23675   0.24718   0.25906
 Alpha virt. eigenvalues --    0.26627   0.27034   0.27230   0.27901   0.29085
 Alpha virt. eigenvalues --    0.30295   0.31190   0.31465   0.31817   0.32059

 Mulliken charges:
               1
     1  C   -0.298162
     2  C   -0.299610
     3  C   -0.475637
     4  H    0.149456
     5  H    0.149131
     6  H    0.151805
     7  H    0.151969
     8  H    0.155038
     9  H    0.155105
    10  H    0.160072
    11  C   -0.301256
    12  C   -0.298668
    13  C   -0.483769
    14  H    0.149108
    15  H    0.153596
    16  H    0.151431
    17  H    0.151196
    18  H    0.164273
    19  H    0.154449
    20  H    0.159248
    21  C   -0.298744
    22  C   -0.299985
    23  C   -0.480256
    24  H    0.149500
    25  H    0.149674
    26  H    0.152224
    27  H    0.152407
    28  H    0.156406
    29  H    0.154799
    30  H    0.164756
    31  C   -0.298300
    32  C   -0.299648
    33  C   -0.475725
    34  H    0.149606
    35  H    0.149797
    36  H    0.151921
    37  H    0.151992
    38  H    0.155246
    39  H    0.155220
    40  H    0.160333
 Sum of Mulliken charges =  -0.00000

 Dipole moment (field-independent basis, Debye):
    X=              0.0639    Y=              0.0000    Z=             -0.0159  Tot=              0.0658
 Quadrupole moment (field-independent basis, Debye-Ang):
   XX=            -85.8798   YY=            -85.6736   ZZ=            -83.4484
   XY=              0.5317   XZ=              0.3989   YZ=             -0.0906

 Normal termination of Gaussian 16 at Thu May  6 05:27:31 2021.
