 Gaussian 16, Revision A.03,
 Gaussian 16:  EM64L-G16RevA.03 25-Dec-2016

 -------------
 #p 6-31g* mp2
 -------------

 ------------------------------------------------------
 Input file generated by CHIRIPA (05-May-2021 14:51:10)
 ------------------------------------------------------
 Symbolic Z-matrix:
 Charge =  0 Multiplicity = 1

                         Standard orientation:
 ---------------------------------------------------------------------
 Center     Atomic      Atomic             Coordinates (Angstroms)
 Number     Number       Type             X           Y           Z
 ---------------------------------------------------------------------
      1          6           0        3.950655    0.182692    0.157300
      2          6           0        2.928864   -0.384982    1.143037
      3          6           0        1.578910    0.329432    1.072109
      4          1           0        4.089848    1.253555    0.359350
      5          1           0        3.547687    0.106749   -0.862133
      6          1           0        3.334217   -0.309257    2.160175
      7          1           0        2.792230   -1.454660    0.938741
      8          1           0        1.149394    0.242691    0.068818
      9          1           0        1.694460    1.394601    1.297192
     10          1           0        0.863552   -0.092314    1.785027
     11          6           0        5.305201   -0.521189    0.216314
     12          6           0        6.326991    0.046485   -0.769423
     13          6           0        7.676946   -0.667928   -0.698495
     14          1           0        5.708169   -0.445246    1.235747
     15          1           0        5.166008   -1.592051    0.014264
     16          1           0        6.463626    1.116163   -0.565127
     17          1           0        5.921639   -0.029240   -1.786561
     18          1           0        7.561396   -1.733098   -0.923578
     19          1           0        8.106462   -0.581187    0.304796
     20          1           0        8.392304   -0.246183   -1.411413
     21          6           0       -3.919089    0.240505   -0.462311
     22          6           0       -3.166959    1.445606    0.103389
     23          6           0       -1.750358    1.574729   -0.457289
     24          1           0       -3.351472   -0.674088   -0.242592
     25          1           0       -3.963332    0.325537   -1.556937
     26          1           0       -3.125354    1.359028    1.196728
     27          1           0       -3.736529    2.357417   -0.117534
     28          1           0       -1.775658    1.686024   -1.546130
     29          1           0       -1.161009    0.681962   -0.224402
     30          1           0       -1.230811    2.442717   -0.039523
     31          6           0       -5.336767    0.097992    0.088697
     32          6           0       -6.088897   -1.107110   -0.477003
     33          6           0       -7.505498   -1.236233    0.083675
     34          1           0       -5.292525    0.012960    1.183323
     35          1           0       -5.904384    1.012585   -0.131022
     36          1           0       -5.519326   -2.018921   -0.256080
     37          1           0       -6.130503   -1.020531   -1.570342
     38          1           0       -8.094847   -0.343465   -0.149212
     39          1           0       -7.480198   -1.347527    1.172516
     40          1           0       -8.025044   -2.104220   -0.334092
 ---------------------------------------------------------------------

 SCF Done:  E(RHF) =  -470.732857405     A.U. after   11 cycles
 E2 =    -0.1582394525D+01 EUMP2 =    -0.47231525192958D+03

 The electronic state is 1-A.
 Alpha  occ. eigenvalues --  -11.21590 -11.21579 -11.21571 -11.21523 -11.21389
 Alpha  occ. eigenvalues --  -11.21367 -11.21329 -11.21306 -11.21063 -11.21054
 Alpha  occ. eigenvalues --  -11.21022 -11.20915  -1.08415  -1.08383  -1.03528
 Alpha  occ. eigenvalues --   -1.03459  -0.96013  -0.95876  -0.87074  -0.86853
 Alpha  occ. eigenvalues --   -0.79661  -0.79460  -0.78236  -0.78187  -0.65059
 Alpha  occ. eigenvalues --   -0.65005  -0.60992  -0.60810  -0.59332  -0.59291
 Alpha  occ. eigenvalues --   -0.57591  -0.57527  -0.55422  -0.55079  -0.52760
 Alpha  occ. eigenvalues --   -0.52603  -0.52430  -0.52228  -0.50079  -0.49679
 Alpha  occ. eigenvalues --   -0.47955  -0.47785  -0.46701  -0.46453  -0.45801
 Alpha  occ. eigenvalues --   -0.45726  -0.45689  -0.45600  -0.43770  -0.43716
 Alpha virt. eigenvalues --    0.22578   0.22959   0.23700   0.24704   0.26248
 Alpha virt. eigenvalues --    0.26722   0.26938   0.27567   0.27631   0.29125
 Alpha virt. eigenvalues --    0.30356   0.31167   0.31585   0.32004   0.32336

 Mulliken charges:
               1
     1  C   -0.298424
     2  C   -0.300243
     3  C   -0.476861
     4  H    0.149641
     5  H    0.149776
     6  H    0.151568
     7  H    0.151529
     8  H    0.158890
     9  H    0.155451
    10  H    0.159123
    11  C   -0.298242
    12  C   -0.299635
    13  C   -0.475694
    14  H    0.149473
    15  H    0.149564
    16  H    0.151936
    17  H    0.151954
    18  H    0.155146
    19  H    0.155149
    20  H    0.160228
    21  C   -0.298384
    22  C   -0.299579
    23  C   -0.479842
    24  H    0.149444
    25  H    0.149286
    26  H    0.151681
    27  H    0.151349
    28  H    0.153591
    29  H    0.161975
    30  H    0.160493
    31  C   -0.298208
    32  C   -0.299606
    33  C   -0.475674
    34  H    0.149430
    35  H    0.149607
    36  H    0.151821
    37  H    0.151845
    38  H    0.155157
    39  H    0.155140
    40  H    0.160146
 Sum of Mulliken charges =  -0.00000

 Dipole moment (field-independent basis, Debye):
    X=              0.0221    Y=              0.0033    Z=             -0.0003  Tot=              0.0223
 Quadrupole moment (field-independent basis, Debye-Ang):
   XX=            -86.9489   YY=            -84.2596   ZZ=            -83.8320
   XY=              0.2497   XZ=              0.8577   YZ=              0.1022

 Normal termination of Gaussian 16 at Thu May  6 06:58:01 2021.
