 Gaussian 16, Revision A.03,
 Gaussian 16:  EM64L-G16RevA.03 25-Dec-2016

 -------------
 #p 6-31g* mp2
 -------------

 ------------------------------------------------------
 Input file generated by CHIRIPA (05-May-2021 14:57:25)
 ------------------------------------------------------
 Symbolic Z-matrix:
 Charge =  0 Multiplicity = 1

                         Standard orientation:
 ---------------------------------------------------------------------
 Center     Atomic      Atomic             Coordinates (Angstroms)
 Number     Number       Type             X           Y           Z
 ---------------------------------------------------------------------
      1          6           0       -1.520520   -1.114362    2.321749
      2          6           0       -1.190667   -1.678922    1.085226
      3          6           0       -1.785008   -1.210548   -0.090330
      4          6           0       -2.709241   -0.171580    0.007793
      5          6           0       -3.058661    0.411500    1.224844
      6          6           0       -2.451823   -0.072790    2.387496
      7          1           0       -1.053968   -1.484388    3.229938
      8          1           0       -0.467742   -2.487934    1.031150
      9          1           0       -1.547980   -1.629439   -1.060777
     10          1           0       -3.782862    1.216771    1.246962
     11          1           0       -2.709913    0.367560    3.346416
     12          7           0       -3.345058    0.332691   -1.229885
     13          8           0       -4.156308    1.249029   -1.116600
     14          8           0       -3.020122   -0.197949   -2.289826
     15          6           0        3.060168   -2.181563   -0.683918
     16          6           0        1.800198   -1.639260   -0.957611
     17          6           0        1.536460   -0.290692   -0.700014
     18          6           0        2.560394    0.490218   -0.166133
     19          6           0        3.825995   -0.020827    0.117371
     20          6           0        4.067269   -1.372043   -0.148245
     21          1           0        3.256320   -3.230191   -0.887141
     22          1           0        1.016171   -2.265573   -1.373638
     23          1           0        0.570091    0.154962   -0.902353
     24          1           0        4.587542    0.628494    0.531914
     25          1           0        5.046726   -1.790496    0.065308
     26          7           0        2.293076    1.919288    0.110819
     27          8           0        3.212058    2.586179    0.581315
     28          8           0        1.169635    2.345441   -0.147848
 ---------------------------------------------------------------------

 SCF Done:  E(RHF) =  -868.335080673     A.U. after   16 cycles
 E2 =    -0.2603936860D+01 EUMP2 =    -0.87093901753312D+03

 The electronic state is 1-A.
 Alpha  occ. eigenvalues --  -20.60979 -20.60967 -20.60962 -20.60927 -15.86032
 Alpha  occ. eigenvalues --  -15.86005 -11.31489 -11.31484 -11.28125 -11.28125
 Alpha  occ. eigenvalues --  -11.28066 -11.27948 -11.27909 -11.27702 -11.27212
 Alpha  occ. eigenvalues --  -11.27126 -11.27102 -11.26971  -1.60048  -1.60016
 Alpha  occ. eigenvalues --   -1.39597  -1.39571  -1.19749  -1.19610  -1.09106
 Alpha  occ. eigenvalues --   -1.08985  -1.05305  -1.04929  -0.95921  -0.95810
 Alpha  occ. eigenvalues --   -0.86570  -0.86426  -0.82865  -0.82564  -0.77912
 Alpha  occ. eigenvalues --   -0.77574  -0.72257  -0.72217  -0.71378  -0.71341
 Alpha  occ. eigenvalues --   -0.70890  -0.70675  -0.65419  -0.65301  -0.65196
 Alpha  occ. eigenvalues --   -0.65025  -0.62783  -0.62126  -0.55684  -0.55497
 Alpha  occ. eigenvalues --   -0.53777  -0.53415  -0.53073  -0.52936  -0.49021
 Alpha  occ. eigenvalues --   -0.48997  -0.48989  -0.48965  -0.44980  -0.44952
 Alpha  occ. eigenvalues --   -0.37748  -0.37639  -0.37292  -0.35958
 Alpha virt. eigenvalues --    0.04534   0.05088   0.10787   0.10857   0.15896
 Alpha virt. eigenvalues --    0.16660   0.19447   0.22032   0.24973   0.27550
 Alpha virt. eigenvalues --    0.28012   0.28868   0.30470   0.31244   0.32149

 Mulliken charges:
               1
     1  C   -0.171653
     2  C   -0.209822
     3  C   -0.192875
     4  C    0.166726
     5  C   -0.166721
     6  C   -0.214804
     7  H    0.226826
     8  H    0.220542
     9  H    0.268427
    10  H    0.278905
    11  H    0.226740
    12  N    0.489070
    13  O   -0.454971
    14  O   -0.464587
    15  C   -0.172056
    16  C   -0.228663
    17  C   -0.164001
    18  C    0.155688
    19  C   -0.170028
    20  C   -0.219955
    21  H    0.225866
    22  H    0.217861
    23  H    0.282943
    24  H    0.276605
    25  H    0.224208
    26  N    0.487996
    27  O   -0.460814
    28  O   -0.457451
 Sum of Mulliken charges =  -0.00000

 Dipole moment (field-independent basis, Debye):
    X=              3.0396    Y=             -6.5150    Z=              3.5850  Tot=              8.0335
 Quadrupole moment (field-independent basis, Debye-Ang):
   XX=           -106.3291   YY=           -108.2518   ZZ=           -103.3423
   XY=             -9.8523   XZ=            -14.7436   YZ=              1.7354

 Normal termination of Gaussian 16 at Thu May  6 13:05:28 2021.
