 Gaussian 16, Revision A.03,
 Gaussian 16:  EM64L-G16RevA.03 25-Dec-2016

 -------------
 #p 6-31g* mp2
 -------------

 ------------------------------------------------------
 Input file generated by CHIRIPA (05-May-2021 14:51:12)
 ------------------------------------------------------
 Symbolic Z-matrix:
 Charge =  0 Multiplicity = 1

                         Standard orientation:
 ---------------------------------------------------------------------
 Center     Atomic      Atomic             Coordinates (Angstroms)
 Number     Number       Type             X           Y           Z
 ---------------------------------------------------------------------
      1          6           0        2.365597    1.224413   -0.267011
      2          6           0        1.889134    1.852907    1.042937
      3          6           0        1.986349    3.378783    1.036231
      4          1           0        3.405218    1.526194   -0.454260
      5          1           0        1.768875    1.627122   -1.097157
      6          1           0        2.485655    1.448095    1.870527
      7          1           0        0.850589    1.549439    1.227186
      8          1           0        1.377018    3.800082    0.230114
      9          1           0        3.021375    3.698162    0.877111
     10          1           0        1.640709    3.807244    1.982177
     11          6           0        2.274484   -0.300497   -0.275662
     12          6           0        2.750948   -0.928990   -1.585610
     13          6           0        2.653733   -2.454866   -1.578904
     14          1           0        2.871206   -0.703206    0.554485
     15          1           0        1.234864   -0.602278   -0.088413
     16          1           0        3.789493   -0.625522   -1.769859
     17          1           0        2.154426   -0.524178   -2.413200
     18          1           0        1.618707   -2.774245   -1.419783
     19          1           0        3.263063   -2.876166   -0.772787
     20          1           0        2.999372   -2.883328   -2.524850
     21          6           0       -1.844422   -0.576866    0.857864
     22          6           0       -1.490401   -2.048862    1.072066
     23          6           0       -0.538114   -2.262626    2.249031
     24          1           0       -0.921265   -0.004530    0.693065
     25          1           0       -2.299210   -0.179028    1.775626
     26          1           0       -1.037679   -2.444175    0.153706
     27          1           0       -2.414523   -2.617791    1.236184
     28          1           0       -0.985317   -1.894716    3.178144
     29          1           0        0.399350   -1.720114    2.089516
     30          1           0       -0.298308   -3.321917    2.384151
     31          6           0       -2.795660   -0.347051   -0.315191
     32          6           0       -3.149680    1.124945   -0.529394
     33          6           0       -4.101968    1.338711   -1.706358
     34          1           0       -2.340871   -0.744888   -1.232953
     35          1           0       -3.718816   -0.919386   -0.150392
     36          1           0       -2.225558    1.693875   -0.693512
     37          1           0       -3.602402    1.520259    0.388966
     38          1           0       -5.039431    0.796198   -1.546843
     39          1           0       -3.654764    0.970800   -2.635472
     40          1           0       -4.341773    2.398000   -1.841479
 ---------------------------------------------------------------------

 SCF Done:  E(RHF) =  -470.732440462     A.U. after   11 cycles
 E2 =    -0.1585318644D+01 EUMP2 =    -0.47231775910598D+03

 The electronic state is 1-A.
 Alpha  occ. eigenvalues --  -11.21661 -11.21658 -11.21632 -11.21627 -11.21461
 Alpha  occ. eigenvalues --  -11.21446 -11.21401 -11.21380 -11.21122 -11.21113
 Alpha  occ. eigenvalues --  -11.21096 -11.21005  -1.08550  -1.08429  -1.03585
 Alpha  occ. eigenvalues --   -1.03552  -0.96030  -0.96000  -0.87049  -0.87013
 Alpha  occ. eigenvalues --   -0.79654  -0.79620  -0.78487  -0.78146  -0.65514
 Alpha  occ. eigenvalues --   -0.64777  -0.61057  -0.60894  -0.59409  -0.59360
 Alpha  occ. eigenvalues --   -0.57677  -0.57572  -0.55352  -0.55263  -0.52722
 Alpha  occ. eigenvalues --   -0.52686  -0.52491  -0.52390  -0.49980  -0.49955
 Alpha  occ. eigenvalues --   -0.47994  -0.47949  -0.46875  -0.46619  -0.46390
 Alpha  occ. eigenvalues --   -0.45793  -0.45777  -0.44954  -0.43832  -0.43810
 Alpha virt. eigenvalues --    0.19739   0.22317   0.23793   0.24195   0.25716
 Alpha virt. eigenvalues --    0.26154   0.26634   0.28108   0.28244   0.30117
 Alpha virt. eigenvalues --    0.30750   0.31388   0.31594   0.31817   0.32341

 Mulliken charges:
               1
     1  C   -0.297627
     2  C   -0.307596
     3  C   -0.475134
     4  H    0.150161
     5  H    0.148746
     6  H    0.152195
     7  H    0.158701
     8  H    0.154991
     9  H    0.155263
    10  H    0.160657
    11  C   -0.308975
    12  C   -0.298963
    13  C   -0.477260
    14  H    0.150038
    15  H    0.159891
    16  H    0.152328
    17  H    0.151543
    18  H    0.155954
    19  H    0.155755
    20  H    0.160583
    21  C   -0.310667
    22  C   -0.301120
    23  C   -0.479678
    24  H    0.159909
    25  H    0.150074
    26  H    0.151899
    27  H    0.152719
    28  H    0.154744
    29  H    0.160244
    30  H    0.160168
    31  C   -0.297509
    32  C   -0.299757
    33  C   -0.475726
    34  H    0.148835
    35  H    0.150187
    36  H    0.151101
    37  H    0.152286
    38  H    0.155458
    39  H    0.155141
    40  H    0.160442
 Sum of Mulliken charges =  -0.00000

 Dipole moment (field-independent basis, Debye):
    X=              0.0130    Y=              0.0079    Z=              0.0107  Tot=              0.0186
 Quadrupole moment (field-independent basis, Debye-Ang):
   XX=            -83.6210   YY=            -86.1171   ZZ=            -84.9519
   XY=              0.1880   XZ=             -0.6976   YZ=              0.0380

 Normal termination of Gaussian 16 at Thu May  6 00:44:59 2021.
