 Gaussian 16, Revision A.03,
 Gaussian 16:  EM64L-G16RevA.03 25-Dec-2016

 -------------
 #p 6-31g* mp2
 -------------

 ------------------------------------------------------
 Input file generated by CHIRIPA (05-May-2021 14:57:21)
 ------------------------------------------------------
 Symbolic Z-matrix:
 Charge =  0 Multiplicity = 1

                         Standard orientation:
 ---------------------------------------------------------------------
 Center     Atomic      Atomic             Coordinates (Angstroms)
 Number     Number       Type             X           Y           Z
 ---------------------------------------------------------------------
      1          6           0       -4.060783    1.576483   -1.038152
      2          6           0       -4.547113    0.277653   -0.856370
      3          6           0       -3.810715   -0.660647   -0.127083
      4          6           0       -2.586410   -0.264313    0.408907
      5          6           0       -2.075047    1.022150    0.245163
      6          6           0       -2.828475    1.943938   -0.487776
      7          1           0       -4.639449    2.298964   -1.606098
      8          1           0       -5.503818   -0.010513   -1.282656
      9          1           0       -4.163550   -1.672859    0.028973
     10          1           0       -1.117970    1.279947    0.682155
     11          1           0       -2.448305    2.951925   -0.627344
     12          7           0       -1.797804   -1.248909    1.182904
     13          8           0       -0.722048   -0.874866    1.644940
     14          8           0       -2.270383   -2.376036    1.312871
     15          6           0        2.455566   -2.202479   -1.274870
     16          6           0        1.435000   -1.257280   -1.421713
     17          6           0        1.568683    0.022650   -0.875402
     18          6           0        2.741596    0.324832   -0.185293
     19          6           0        3.776199   -0.595082   -0.022056
     20          6           0        3.620854   -1.868951   -0.576741
     21          1           0        2.343305   -3.194404   -1.702511
     22          1           0        0.528920   -1.513516   -1.963386
     23          1           0        0.794287    0.773635   -0.974142
     24          1           0        4.667818   -0.310301    0.523226
     25          1           0        4.415085   -2.600988   -0.461134
     26          7           0        2.894586    1.676628    0.397495
     27          8           0        3.937722    1.918068    1.000994
     28          8           0        1.968468    2.469128    0.239751
 ---------------------------------------------------------------------

 SCF Done:  E(RHF) =  -868.338964632     A.U. after   16 cycles
 E2 =    -0.2601515865D+01 EUMP2 =    -0.87094048049622D+03

 The electronic state is 1-A.
 Alpha  occ. eigenvalues --  -20.61089 -20.61034 -20.60635 -20.60583 -15.86093
 Alpha  occ. eigenvalues --  -15.85641 -11.31446 -11.30702 -11.28012 -11.27887
 Alpha  occ. eigenvalues --  -11.27692 -11.27338 -11.27259 -11.27017 -11.26973
 Alpha  occ. eigenvalues --  -11.26920 -11.26251 -11.26216  -1.60137  -1.59663
 Alpha  occ. eigenvalues --   -1.39688  -1.39237  -1.19604  -1.18859  -1.08998
 Alpha  occ. eigenvalues --   -1.08312  -1.04977  -1.04255  -0.95836  -0.95204
 Alpha  occ. eigenvalues --   -0.86377  -0.85681  -0.82648  -0.82075  -0.77725
 Alpha  occ. eigenvalues --   -0.77148  -0.72316  -0.71889  -0.71480  -0.70949
 Alpha  occ. eigenvalues --   -0.70683  -0.70018  -0.65232  -0.64958  -0.64552
 Alpha  occ. eigenvalues --   -0.64299  -0.62333  -0.61606  -0.55462  -0.54788
 Alpha  occ. eigenvalues --   -0.53343  -0.53043  -0.52534  -0.52360  -0.49077
 Alpha  occ. eigenvalues --   -0.49073  -0.48652  -0.48595  -0.45095  -0.44703
 Alpha  occ. eigenvalues --   -0.37591  -0.36793  -0.36596  -0.35757
 Alpha virt. eigenvalues --    0.04700   0.05431   0.10938   0.11854   0.16245
 Alpha virt. eigenvalues --    0.16957   0.21083   0.22002   0.26592   0.27703
 Alpha virt. eigenvalues --    0.28070   0.29153   0.30938   0.31256   0.32160

 Mulliken charges:
               1
     1  C   -0.171100
     2  C   -0.218437
     3  C   -0.172928
     4  C    0.156048
     5  C   -0.185414
     6  C   -0.221449
     7  H    0.227236
     8  H    0.223923
     9  H    0.274927
    10  H    0.288580
    11  H    0.231780
    12  N    0.486672
    13  O   -0.456305
    14  O   -0.462316
    15  C   -0.166612
    16  C   -0.217116
    17  C   -0.159275
    18  C    0.161101
    19  C   -0.168903
    20  C   -0.217595
    21  H    0.225434
    22  H    0.219736
    23  H    0.265211
    24  H    0.274202
    25  H    0.222458
    26  N    0.490508
    27  O   -0.458024
    28  O   -0.472341
 Sum of Mulliken charges =  -0.00000

 Dipole moment (field-independent basis, Debye):
    X=             -3.2954    Y=             -1.3376    Z=             -4.6792  Tot=              5.8774
 Quadrupole moment (field-independent basis, Debye-Ang):
   XX=            -86.8416   YY=           -107.9109   ZZ=           -107.1240
   XY=            -20.8678   XZ=              3.1238   YZ=              2.5123

 Normal termination of Gaussian 16 at Thu May  6 11:12:05 2021.
