 Gaussian 16, Revision A.03,
 Gaussian 16:  EM64L-G16RevA.03 25-Dec-2016

 -------------
 #p 6-31g* mp2
 -------------

 ------------------------------------------------------
 Input file generated by CHIRIPA (05-May-2021 14:53:18)
 ------------------------------------------------------
 Symbolic Z-matrix:
 Charge =  0 Multiplicity = 1

                         Standard orientation:
 ---------------------------------------------------------------------
 Center     Atomic      Atomic             Coordinates (Angstroms)
 Number     Number       Type             X           Y           Z
 ---------------------------------------------------------------------
      1          6           0        4.646112   -0.560430    0.166936
      2          6           0        5.930056   -1.082617   -0.478660
      3          6           0        6.127122   -2.584686   -0.271899
      4          1           0        4.666610   -0.784404    1.242277
      5          1           0        3.787071   -1.104614   -0.249365
      6          1           0        6.786302   -0.536649   -0.062274
      7          1           0        5.906585   -0.857203   -1.552556
      8          1           0        5.291883   -3.145792   -0.703335
      9          1           0        6.176599   -2.823417    0.795415
     10          1           0        7.050908   -2.936785   -0.741478
     11          6           0        4.435104    0.939559   -0.031148
     12          6           0        3.151160    1.461746    0.614448
     13          6           0        2.954094    2.963815    0.407687
     14          1           0        5.294145    1.483744    0.385153
     15          1           0        4.414606    1.163534   -1.106490
     16          1           0        3.174632    1.236333    1.688344
     17          1           0        2.294914    0.915779    0.198062
     18          1           0        2.904617    3.202546   -0.659627
     19          1           0        3.789333    3.524922    0.839123
     20          1           0        2.030308    3.315914    0.877266
     21          6           0       -1.104475    0.465663   -0.199950
     22          6           0       -1.483446   -0.782979    0.303831
     23          6           0       -2.834046   -1.133740    0.389819
     24          6           0       -3.783518   -0.207434   -0.038840
     25          6           0       -3.437523    1.044353   -0.545404
     26          6           0       -2.081001    1.373743   -0.622215
     27          1           0       -0.052996    0.729842   -0.263183
     28          1           0       -0.727232   -1.490200    0.632503
     29          1           0       -3.155299   -2.093572    0.775741
     30          1           0       -4.214221    1.728331   -0.865298
     31          1           0       -1.789609    2.344170   -1.013888
     32          7           0       -5.216472   -0.567455    0.047334
     33          8           0       -6.033652    0.266364   -0.336852
     34          8           0       -5.495309   -1.676645    0.497432
 ---------------------------------------------------------------------

 SCF Done:  E(RHF) =  -669.535544995     A.U. after   15 cycles
 E2 =    -0.2090968923D+01 EUMP2 =    -0.67162651391784D+03

 The electronic state is 1-A.
 Alpha  occ. eigenvalues --  -20.60731 -20.60726 -15.85785 -11.31144 -11.27715
 Alpha  occ. eigenvalues --  -11.27712 -11.27428 -11.26724 -11.26714 -11.22813
 Alpha  occ. eigenvalues --  -11.22317 -11.22274 -11.22197 -11.22139 -11.21645
 Alpha  occ. eigenvalues --   -1.59807  -1.39361  -1.19316  -1.09333  -1.08709
 Alpha  occ. eigenvalues --   -1.04719  -1.04416  -0.96836  -0.95547  -0.87852
 Alpha  occ. eigenvalues --   -0.86115  -0.82384  -0.80504  -0.79127  -0.77429
 Alpha  occ. eigenvalues --   -0.72003  -0.71130  -0.70442  -0.65966  -0.64967
 Alpha  occ. eigenvalues --   -0.64723  -0.62068  -0.61821  -0.60232  -0.58453
 Alpha  occ. eigenvalues --   -0.56126  -0.55212  -0.53537  -0.53253  -0.53048
 Alpha  occ. eigenvalues --   -0.52810  -0.50777  -0.48814  -0.48758  -0.48746
 Alpha  occ. eigenvalues --   -0.47540  -0.46662  -0.46573  -0.44768  -0.44660
 Alpha  occ. eigenvalues --   -0.37292  -0.36327
 Alpha virt. eigenvalues --    0.05106   0.11328   0.16593   0.19217   0.22492
 Alpha virt. eigenvalues --    0.23621   0.25178   0.26268   0.26755   0.27703
 Alpha virt. eigenvalues --    0.28820   0.30372   0.30829   0.31004   0.32008

 Mulliken charges:
               1
     1  C   -0.298426
     2  C   -0.300286
     3  C   -0.476202
     4  H    0.151024
     5  H    0.145877
     6  H    0.153792
     7  H    0.153032
     8  H    0.154962
     9  H    0.155994
    10  H    0.162677
    11  C   -0.297973
    12  C   -0.304804
    13  C   -0.477671
    14  H    0.153535
    15  H    0.150985
    16  H    0.156526
    17  H    0.141781
    18  H    0.155483
    19  H    0.161218
    20  H    0.159496
    21  C   -0.178250
    22  C   -0.221935
    23  C   -0.170837
    24  C    0.158216
    25  C   -0.170655
    26  C   -0.221330
    27  H    0.238490
    28  H    0.223449
    29  H    0.275485
    30  H    0.275406
    31  H    0.224067
    32  N    0.487986
    33  O   -0.460548
    34  O   -0.460563
 Sum of Mulliken charges =  -0.00000

 Dipole moment (field-independent basis, Debye):
    X=              5.3192    Y=              1.3063    Z=             -0.2744  Tot=              5.4841
 Quadrupole moment (field-independent basis, Debye-Ang):
   XX=           -131.9731   YY=            -92.3173   ZZ=            -93.9743
   XY=             -6.6046   XZ=              2.0418   YZ=             -1.6931

 Normal termination of Gaussian 16 at Thu May  6 17:20:56 2021.
