 Gaussian 16, Revision A.03,
 Gaussian 16:  EM64L-G16RevA.03 25-Dec-2016

 -------------
 #p 6-31g* mp2
 -------------

 ------------------------------------------------------
 Input file generated by CHIRIPA (05-May-2021 14:51:14)
 ------------------------------------------------------
 Symbolic Z-matrix:
 Charge =  0 Multiplicity = 1

                         Standard orientation:
 ---------------------------------------------------------------------
 Center     Atomic      Atomic             Coordinates (Angstroms)
 Number     Number       Type             X           Y           Z
 ---------------------------------------------------------------------
      1          6           0       -1.967230    1.345957   -0.337900
      2          6           0       -1.896914    2.677812    0.409900
      3          6           0       -0.997951    3.699980   -0.286399
      4          1           0       -0.953166    0.935662   -0.439278
      5          1           0       -2.335378    1.524954   -1.357617
      6          1           0       -1.530320    2.496175    1.428346
      7          1           0       -2.911284    3.084891    0.509677
      8          1           0       -1.364265    3.910358   -1.296427
      9          1           0        0.024545    3.318297   -0.372538
     10          1           0       -0.962107    4.644660    0.265104
     11          6           0       -2.862115    0.313783    0.345858
     12          6           0       -2.932431   -1.018071   -0.401942
     13          6           0       -3.831393   -2.040240    0.294356
     14          1           0       -2.493966    0.134787    1.365574
     15          1           0       -3.876179    0.724079    0.447235
     16          1           0       -1.918060   -1.425150   -0.501720
     17          1           0       -3.299024   -0.836435   -1.420389
     18          1           0       -4.853890   -1.658556    0.380495
     19          1           0       -3.465080   -2.250617    1.304384
     20          1           0       -3.867237   -2.984919   -0.257147
     21          6           0        1.907673   -1.295671   -0.334755
     22          6           0        1.763091   -2.639867    0.379541
     23          6           0        0.745235   -3.560767   -0.294038
     24          1           0        0.928383   -0.798958   -0.369570
     25          1           0        2.205639   -1.472631   -1.377490
     26          1           0        1.466831   -2.460368    1.420995
     27          1           0        2.742877   -3.133352    0.412827
     28          1           0        1.039204   -3.769133   -1.327849
     29          1           0       -0.244091   -3.092326   -0.313954
     30          1           0        0.657742   -4.516039    0.232897
     31          6           0        2.921672   -0.364070    0.326797
     32          6           0        3.066254    0.980126   -0.387498
     33          6           0        4.084109    1.901025    0.286080
     34          1           0        2.623706   -0.187110    1.369533
     35          1           0        3.900962   -0.860783    0.361612
     36          1           0        2.086468    1.473611   -0.420784
     37          1           0        3.362513    0.800627   -1.428952
     38          1           0        5.073436    1.432585    0.305997
     39          1           0        3.790140    2.109393    1.319892
     40          1           0        4.171603    2.856298   -0.240854
 ---------------------------------------------------------------------

 SCF Done:  E(RHF) =  -470.732976445     A.U. after   11 cycles
 E2 =    -0.1584742909D+01 EUMP2 =    -0.47231771935389D+03

 The electronic state is 1-A.
 Alpha  occ. eigenvalues --  -11.21660 -11.21645 -11.21645 -11.21633 -11.21459
 Alpha  occ. eigenvalues --  -11.21451 -11.21399 -11.21392 -11.21107 -11.21104
 Alpha  occ. eigenvalues --  -11.21098 -11.21083  -1.08512  -1.08453  -1.03603
 Alpha  occ. eigenvalues --   -1.03544  -0.96048  -0.95992  -0.87050  -0.87020
 Alpha  occ. eigenvalues --   -0.79705  -0.79572  -0.78430  -0.78172  -0.65367
 Alpha  occ. eigenvalues --   -0.64881  -0.61215  -0.60764  -0.59432  -0.59333
 Alpha  occ. eigenvalues --   -0.57739  -0.57541  -0.55493  -0.55130  -0.52712
 Alpha  occ. eigenvalues --   -0.52706  -0.52483  -0.52403  -0.50089  -0.49834
 Alpha  occ. eigenvalues --   -0.48139  -0.47824  -0.46905  -0.46535  -0.46323
 Alpha  occ. eigenvalues --   -0.45797  -0.45786  -0.45080  -0.43834  -0.43813
 Alpha virt. eigenvalues --    0.19218   0.21418   0.23928   0.24608   0.25285
 Alpha virt. eigenvalues --    0.26211   0.27006   0.27132   0.28246   0.29361
 Alpha virt. eigenvalues --    0.31381   0.31582   0.31668   0.31996   0.32028

 Mulliken charges:
               1
     1  C   -0.306685
     2  C   -0.299057
     3  C   -0.479985
     4  H    0.156256
     5  H    0.150164
     6  H    0.151555
     7  H    0.152335
     8  H    0.155599
     9  H    0.158748
    10  H    0.160602
    11  C   -0.297210
    12  C   -0.309649
    13  C   -0.475580
    14  H    0.148969
    15  H    0.150131
    16  H    0.159587
    17  H    0.152639
    18  H    0.155498
    19  H    0.155105
    20  H    0.160895
    21  C   -0.307325
    22  C   -0.298973
    23  C   -0.483220
    24  H    0.156818
    25  H    0.150111
    26  H    0.151456
    27  H    0.152340
    28  H    0.155476
    29  H    0.162304
    30  H    0.160646
    31  C   -0.297660
    32  C   -0.305589
    33  C   -0.475576
    34  H    0.149202
    35  H    0.150228
    36  H    0.155887
    37  H    0.152584
    38  H    0.155462
    39  H    0.155203
    40  H    0.160706
 Sum of Mulliken charges =  -0.00000

 Dipole moment (field-independent basis, Debye):
    X=             -0.0019    Y=             -0.0029    Z=             -0.0156  Tot=              0.0160
 Quadrupole moment (field-independent basis, Debye-Ang):
   XX=            -84.3314   YY=            -85.7866   ZZ=            -84.4337
   XY=             -1.6233   XZ=             -0.0274   YZ=              0.0830

 Normal termination of Gaussian 16 at Wed May  5 21:39:40 2021.
