 Gaussian 16, Revision A.03,
 Gaussian 16:  EM64L-G16RevA.03 25-Dec-2016

 -------------
 #p 6-31g* mp2
 -------------

 ------------------------------------------------------
 Input file generated by CHIRIPA (05-May-2021 14:51:09)
 ------------------------------------------------------
 Symbolic Z-matrix:
 Charge =  0 Multiplicity = 1

                         Standard orientation:
 ---------------------------------------------------------------------
 Center     Atomic      Atomic             Coordinates (Angstroms)
 Number     Number       Type             X           Y           Z
 ---------------------------------------------------------------------
      1          6           0       -2.316562   -0.776744    0.776324
      2          6           0       -1.209107   -1.758355    0.391659
      3          6           0       -0.334463   -2.158213    1.580316
      4          1           0       -1.864326    0.121235    1.219111
      5          1           0       -2.942759   -1.229106    1.557759
      6          1           0       -0.586013   -1.304824   -0.389802
      7          1           0       -1.664021   -2.654021   -0.050440
      8          1           0       -0.938030   -2.634367    2.359793
      9          1           0        0.146103   -1.277504    2.018504
     10          1           0        0.450641   -2.860336    1.282835
     11          6           0       -3.199391   -0.367585   -0.401356
     12          6           0       -4.306846    0.614026   -0.016690
     13          6           0       -5.181490    1.013885   -1.205347
     14          1           0       -2.573194    0.084777   -1.182791
     15          1           0       -3.651627   -1.265564   -0.844143
     16          1           0       -3.851932    1.509692    0.425408
     17          1           0       -4.929940    0.160495    0.764770
     18          1           0       -5.662056    0.133175   -1.643535
     19          1           0       -4.577923    1.490038   -1.984825
     20          1           0       -5.966594    1.716008   -0.907867
     21          6           0        3.127598    0.077304   -0.636844
     22          6           0        2.910212   -1.382820   -0.238389
     23          6           0        3.656064   -2.360796   -1.146719
     24          1           0        2.802276    0.219357   -1.676522
     25          1           0        4.203242    0.300466   -0.612643
     26          1           0        1.835188   -1.602780   -0.261995
     27          1           0        3.235912   -1.521372    0.800523
     28          1           0        4.733645   -2.169812   -1.115982
     29          1           0        3.324962   -2.251683   -2.184538
     30          1           0        3.486717   -3.398826   -0.843938
     31          6           0        2.388354    1.067025    0.261876
     32          6           0        2.605741    2.527149   -0.136579
     33          6           0        1.859889    3.505124    0.771751
     34          1           0        1.312712    0.843863    0.237675
     35          1           0        2.713677    0.924971    1.301554
     36          1           0        2.280041    2.665700   -1.175491
     37          1           0        3.680765    2.747109   -0.112973
     38          1           0        2.190991    3.396013    1.809569
     39          1           0        0.782308    3.314141    0.741014
     40          1           0        2.029235    4.543154    0.468969
 ---------------------------------------------------------------------

 SCF Done:  E(RHF) =  -470.732343134     A.U. after   11 cycles
 E2 =    -0.1584353666D+01 EUMP2 =    -0.47231669679976D+03

 The electronic state is 1-A.
 Alpha  occ. eigenvalues --  -11.21646 -11.21640 -11.21632 -11.21489 -11.21447
 Alpha  occ. eigenvalues --  -11.21430 -11.21388 -11.21353 -11.21117 -11.21096
 Alpha  occ. eigenvalues --  -11.21042 -11.21009  -1.08500  -1.08412  -1.03606
 Alpha  occ. eigenvalues --   -1.03487  -0.96014  -0.95978  -0.87048  -0.86972
 Alpha  occ. eigenvalues --   -0.79637  -0.79586  -0.78303  -0.78246  -0.65298
 Alpha  occ. eigenvalues --   -0.64911  -0.61125  -0.60810  -0.59539  -0.59200
 Alpha  occ. eigenvalues --   -0.57741  -0.57461  -0.55299  -0.55275  -0.52732
 Alpha  occ. eigenvalues --   -0.52644  -0.52463  -0.52364  -0.49949  -0.49922
 Alpha  occ. eigenvalues --   -0.47987  -0.47832  -0.46784  -0.46532  -0.45962
 Alpha  occ. eigenvalues --   -0.45808  -0.45706  -0.45474  -0.43827  -0.43762
 Alpha virt. eigenvalues --    0.20097   0.23146   0.23756   0.24309   0.26030
 Alpha virt. eigenvalues --    0.26356   0.27066   0.27382   0.27988   0.29756
 Alpha virt. eigenvalues --    0.30736   0.31058   0.31661   0.31938   0.32298

 Mulliken charges:
               1
     1  C   -0.298644
     2  C   -0.305085
     3  C   -0.480001
     4  H    0.149921
     5  H    0.150130
     6  H    0.153860
     7  H    0.152408
     8  H    0.155655
     9  H    0.158371
    10  H    0.162440
    11  C   -0.298300
    12  C   -0.299676
    13  C   -0.475725
    14  H    0.148967
    15  H    0.149859
    16  H    0.151936
    17  H    0.152139
    18  H    0.155245
    19  H    0.155113
    20  H    0.160429
    21  C   -0.297549
    22  C   -0.309771
    23  C   -0.475415
    24  H    0.148831
    25  H    0.149421
    26  H    0.165511
    27  H    0.151667
    28  H    0.154976
    29  H    0.154762
    30  H    0.159617
    31  C   -0.301760
    32  C   -0.299586
    33  C   -0.475626
    34  H    0.151467
    35  H    0.149873
    36  H    0.151861
    37  H    0.152380
    38  H    0.155356
    39  H    0.154414
    40  H    0.160528
 Sum of Mulliken charges =  -0.00000

 Dipole moment (field-independent basis, Debye):
    X=             -0.0147    Y=             -0.0101    Z=              0.0203  Tot=              0.0271
 Quadrupole moment (field-independent basis, Debye-Ang):
   XX=            -84.5245   YY=            -85.0062   ZZ=            -85.2793
   XY=              1.2518   XZ=              0.1667   YZ=             -0.3292

 Normal termination of Gaussian 16 at Wed May  5 18:10:58 2021.
