 Gaussian 16, Revision A.03,
 Gaussian 16:  EM64L-G16RevA.03 25-Dec-2016

 -------------
 #p 6-31g* mp2
 -------------

 ------------------------------------------------------
 Input file generated by CHIRIPA (05-May-2021 14:57:24)
 ------------------------------------------------------
 Symbolic Z-matrix:
 Charge =  0 Multiplicity = 1

                         Standard orientation:
 ---------------------------------------------------------------------
 Center     Atomic      Atomic             Coordinates (Angstroms)
 Number     Number       Type             X           Y           Z
 ---------------------------------------------------------------------
      1          6           0       -4.306795    1.567355    1.266368
      2          6           0       -4.626009    1.265651   -0.061637
      3          6           0       -3.982468    0.217302   -0.725993
      4          6           0       -3.020420   -0.511995   -0.028944
      5          6           0       -2.680406   -0.235810    1.294462
      6          6           0       -3.336722    0.816985    1.938993
      7          1           0       -4.811675    2.383464    1.774755
      8          1           0       -5.378968    1.846704   -0.586495
      9          1           0       -4.210205   -0.037806   -1.753843
     10          1           0       -1.925474   -0.832882    1.791453
     11          1           0       -3.086784    1.049035    2.970366
     12          7           0       -2.332369   -1.624188   -0.721774
     13          8           0       -1.488472   -2.251630   -0.085542
     14          8           0       -2.650001   -1.847423   -1.887927
     15          6           0        4.631363   -1.442599    0.907636
     16          6           0        3.283790   -1.723807    0.659670
     17          6           0        2.444786   -0.750016    0.109802
     18          6           0        2.989041    0.499934   -0.181231
     19          6           0        4.327452    0.810560    0.054264
     20          6           0        5.147984   -0.178542    0.604676
     21          1           0        5.275947   -2.205010    1.334998
     22          1           0        2.879844   -2.704615    0.893952
     23          1           0        1.397823   -0.940846   -0.092365
     24          1           0        4.701341    1.797499   -0.189819
     25          1           0        6.194138    0.042663    0.796181
     26          7           0        2.110604    1.538947   -0.763639
     27          8           0        2.614395    2.632370   -1.011143
     28          8           0        0.934927    1.240229   -0.961599
 ---------------------------------------------------------------------

 SCF Done:  E(RHF) =  -868.340157753     A.U. after   16 cycles
 E2 =    -0.2598766840D+01 EUMP2 =    -0.87093892459306D+03

 The electronic state is 1-A.
 Alpha  occ. eigenvalues --  -20.60756 -20.60670 -20.60442 -20.60434 -15.85734
 Alpha  occ. eigenvalues --  -15.85488 -11.30818 -11.30695 -11.27413 -11.27351
 Alpha  occ. eigenvalues --  -11.27321 -11.27120 -11.27097 -11.27025 -11.26370
 Alpha  occ. eigenvalues --  -11.26334 -11.26318 -11.26177  -1.59752  -1.59518
 Alpha  occ. eigenvalues --   -1.39325  -1.39074  -1.18969  -1.18872  -1.08423
 Alpha  occ. eigenvalues --   -1.08310  -1.04357  -1.04235  -0.95310  -0.95158
 Alpha  occ. eigenvalues --   -0.85776  -0.85650  -0.82171  -0.81985  -0.77245
 Alpha  occ. eigenvalues --   -0.77035  -0.71985  -0.71718  -0.71015  -0.70838
 Alpha  occ. eigenvalues --   -0.70125  -0.69976  -0.64656  -0.64523  -0.64390
 Alpha  occ. eigenvalues --   -0.64232  -0.61733  -0.61554  -0.54895  -0.54779
 Alpha  occ. eigenvalues --   -0.52659  -0.52607  -0.52476  -0.52311  -0.48744
 Alpha  occ. eigenvalues --   -0.48698  -0.48470  -0.48457  -0.44786  -0.44512
 Alpha  occ. eigenvalues --   -0.36920  -0.36884  -0.35926  -0.35843
 Alpha virt. eigenvalues --    0.05276   0.05466   0.11716   0.11806   0.16783
 Alpha virt. eigenvalues --    0.16973   0.21636   0.22078   0.27436   0.27895
 Alpha virt. eigenvalues --    0.28399   0.29118   0.31070   0.31637   0.32462

 Mulliken charges:
               1
     1  C   -0.169015
     2  C   -0.217509
     3  C   -0.167515
     4  C    0.164165
     5  C   -0.166806
     6  C   -0.217215
     7  H    0.225011
     8  H    0.223202
     9  H    0.275483
    10  H    0.269729
    11  H    0.221662
    12  N    0.491393
    13  O   -0.472855
    14  O   -0.455582
    15  C   -0.171008
    16  C   -0.221485
    17  C   -0.176895
    18  C    0.156969
    19  C   -0.171682
    20  C   -0.219458
    21  H    0.224190
    22  H    0.228646
    23  H    0.288716
    24  H    0.273240
    25  H    0.221197
    26  N    0.488020
    27  O   -0.463157
    28  O   -0.461439
 Sum of Mulliken charges =  -0.00000

 Dipole moment (field-independent basis, Debye):
    X=              0.4223    Y=              0.2454    Z=              4.3981  Tot=              4.4251
 Quadrupole moment (field-independent basis, Debye-Ang):
   XX=            -68.2970   YY=           -111.5683   ZZ=           -103.3167
   XY=            -18.6224   XZ=              0.9728   YZ=             -0.4892

 Normal termination of Gaussian 16 at Fri May  7 09:35:15 2021.
