 Gaussian 16, Revision A.03,
 Gaussian 16:  EM64L-G16RevA.03 25-Dec-2016

 -------------
 #p 6-31g* mp2
 -------------

 ------------------------------------------------------
 Input file generated by CHIRIPA (05-May-2021 14:55:19)
 ------------------------------------------------------
 Symbolic Z-matrix:
 Charge =  0 Multiplicity = 1

                         Standard orientation:
 ---------------------------------------------------------------------
 Center     Atomic      Atomic             Coordinates (Angstroms)
 Number     Number       Type             X           Y           Z
 ---------------------------------------------------------------------
      1          6           0       -1.951459   -2.364932    1.268342
      2          6           0       -1.687957   -1.168589    1.943511
      3          6           0       -1.748704    0.055031    1.270005
      4          6           0       -2.077488    0.045423   -0.084653
      5          6           0       -2.345329   -1.129728   -0.785062
      6          6           0       -2.278727   -2.341724   -0.091392
      7          1           0       -1.901994   -3.310955    1.799370
      8          1           0       -1.433544   -1.183586    2.999491
      9          1           0       -1.549393    0.996019    1.768237
     10          1           0       -2.596290   -1.082879   -1.837793
     11          1           0       -2.483857   -3.269265   -0.618301
     12          7           0       -2.144897    1.334662   -0.808337
     13          8           0       -2.436792    1.299265   -2.001728
     14          8           0       -1.904562    2.356152   -0.168467
     15          6           0        2.701742    0.800149    0.441945
     16          6           0        1.960543    2.052056   -0.028519
     17          6           0        2.083439    3.216386    0.954857
     18          1           0        2.310131    0.496688    1.422506
     19          1           0        3.762514    1.044894    0.591136
     20          1           0        0.901749    1.804677   -0.178106
     21          1           0        2.353832    2.352461   -1.008160
     22          1           0        3.133564    3.491431    1.096938
     23          1           0        1.673231    2.940536    1.931708
     24          1           0        1.546223    4.100979    0.598835
     25          6           0        2.588184   -0.372477   -0.530568
     26          6           0        3.329384   -1.624383   -0.060105
     27          6           0        3.206488   -2.788713   -1.043480
     28          1           0        1.527412   -0.617222   -0.679759
     29          1           0        2.979796   -0.069016   -1.511128
     30          1           0        2.936094   -1.924788    0.919537
     31          1           0        4.388177   -1.377006    0.089483
     32          1           0        3.616696   -2.512865   -2.020331
     33          1           0        2.156362   -3.063760   -1.185561
     34          1           0        3.743704   -3.673308   -0.687458
 ---------------------------------------------------------------------

 SCF Done:  E(RHF) =  -669.536212283     A.U. after   15 cycles
 E2 =    -0.2093022196D+01 EUMP2 =    -0.67162923447836D+03

 The electronic state is 1-A.
 Alpha  occ. eigenvalues --  -20.60970 -20.60963 -15.85983 -11.31341 -11.27899
 Alpha  occ. eigenvalues --  -11.27896 -11.27627 -11.26903 -11.26894 -11.21641
 Alpha  occ. eigenvalues --  -11.21261 -11.21194 -11.21152 -11.21028 -11.20540
 Alpha  occ. eigenvalues --   -1.60023  -1.39579  -1.19504  -1.08901  -1.08238
 Alpha  occ. eigenvalues --   -1.04898  -1.03299  -0.95769  -0.95736  -0.86792
 Alpha  occ. eigenvalues --   -0.86296  -0.82569  -0.79384  -0.78031  -0.77619
 Alpha  occ. eigenvalues --   -0.72210  -0.71347  -0.70601  -0.65158  -0.64916
 Alpha  occ. eigenvalues --   -0.64855  -0.62244  -0.60702  -0.59147  -0.57347
 Alpha  occ. eigenvalues --   -0.55395  -0.55083  -0.53226  -0.52984  -0.52445
 Alpha  occ. eigenvalues --   -0.52194  -0.49746  -0.48981  -0.48969  -0.47702
 Alpha  occ. eigenvalues --   -0.46472  -0.45657  -0.45556  -0.44723  -0.43554
 Alpha  occ. eigenvalues --   -0.37470  -0.36493
 Alpha virt. eigenvalues --    0.04894   0.11099   0.16357   0.21103   0.22814
 Alpha virt. eigenvalues --    0.24244   0.26469   0.27104   0.27635   0.27852
 Alpha virt. eigenvalues --    0.28595   0.30611   0.31543   0.31902   0.32204

 Mulliken charges:
               1
     1  C   -0.170575
     2  C   -0.218598
     3  C   -0.172260
     4  C    0.158087
     5  C   -0.171178
     6  C   -0.218794
     7  H    0.226401
     8  H    0.224165
     9  H    0.276563
    10  H    0.276320
    11  H    0.224276
    12  N    0.488092
    13  O   -0.457745
    14  O   -0.457612
    15  C   -0.297186
    16  C   -0.303967
    17  C   -0.473265
    18  H    0.143112
    19  H    0.148457
    20  H    0.158022
    21  H    0.153229
    22  H    0.151416
    23  H    0.148080
    24  H    0.169103
    25  C   -0.298818
    26  C   -0.298381
    27  C   -0.475325
    28  H    0.148703
    29  H    0.151377
    30  H    0.148163
    31  H    0.152411
    32  H    0.156823
    33  H    0.152334
    34  H    0.158566
 Sum of Mulliken charges =  -0.00000

 Dipole moment (field-independent basis, Debye):
    X=              0.0640    Y=             -4.4591    Z=              2.4643  Tot=              5.0952
 Quadrupole moment (field-independent basis, Debye-Ang):
   XX=            -95.7476   YY=            -95.0116   ZZ=            -92.0120
   XY=             10.6118   XZ=             -4.7736   YZ=              1.8826

 Normal termination of Gaussian 16 at Wed May  5 18:51:46 2021.
