 Gaussian 16, Revision A.03,
 Gaussian 16:  EM64L-G16RevA.03 25-Dec-2016

 -------------
 #p 6-31g* mp2
 -------------

 ------------------------------------------------------
 Input file generated by CHIRIPA (05-May-2021 14:57:23)
 ------------------------------------------------------
 Symbolic Z-matrix:
 Charge =  0 Multiplicity = 1

                         Standard orientation:
 ---------------------------------------------------------------------
 Center     Atomic      Atomic             Coordinates (Angstroms)
 Number     Number       Type             X           Y           Z
 ---------------------------------------------------------------------
      1          6           0        5.535414    0.662445    0.899511
      2          6           0        5.458218    0.057483   -0.359291
      3          6           0        4.224802   -0.348118   -0.877676
      4          6           0        3.083518   -0.132421   -0.106810
      5          6           0        3.127862    0.467638    1.150669
      6          6           0        4.372041    0.865234    1.649152
      7          1           0        6.497741    0.974417    1.294475
      8          1           0        6.360061   -0.101268   -0.943690
      9          1           0        4.136303   -0.818824   -1.849284
     10          1           0        2.211501    0.612583    1.709856
     11          1           0        4.428980    1.334808    2.627059
     12          7           0        1.772059   -0.557576   -0.645067
     13          8           0        0.781242   -0.356314    0.053798
     14          8           0        1.759788   -1.084024   -1.755625
     15          6           0       -3.399583    2.498942   -0.629172
     16          6           0       -2.608209    1.611010   -1.365260
     17          6           0       -2.545277    0.258831   -1.015690
     18          6           0       -3.290002   -0.173210    0.080675
     19          6           0       -4.087715    0.686885    0.833789
     20          6           0       -4.135513    2.034865    0.466071
     21          1           0       -3.442591    3.547716   -0.907776
     22          1           0       -2.035612    1.968614   -2.216317
     23          1           0       -1.940782   -0.450260   -1.568133
     24          1           0       -4.647301    0.300847    1.677149
     25          1           0       -4.750960    2.722171    1.039551
     26          7           0       -3.231390   -1.602478    0.460354
     27          8           0       -3.896955   -1.958150    1.430487
     28          8           0       -2.520994   -2.340004   -0.219374
 ---------------------------------------------------------------------

 SCF Done:  E(RHF) =  -868.338464383     A.U. after   16 cycles
 E2 =    -0.2599693693D+01 EUMP2 =    -0.87093815807568D+03

 The electronic state is 1-A.
 Alpha  occ. eigenvalues --  -20.61008 -20.60983 -20.59499 -20.59421 -15.86020
 Alpha  occ. eigenvalues --  -15.84516 -11.31324 -11.29869 -11.27885 -11.27878
 Alpha  occ. eigenvalues --  -11.27621 -11.26889 -11.26879 -11.26610 -11.26390
 Alpha  occ. eigenvalues --  -11.26354 -11.25635 -11.25490  -1.60056  -1.58535
 Alpha  occ. eigenvalues --   -1.39610  -1.38084  -1.19491  -1.18105  -1.08900
 Alpha  occ. eigenvalues --   -1.07526  -1.04884  -1.03514  -0.95745  -0.94342
 Alpha  occ. eigenvalues --   -0.86285  -0.84923  -0.82577  -0.81178  -0.77632
 Alpha  occ. eigenvalues --   -0.76186  -0.72248  -0.71365  -0.70751  -0.70599
 Alpha  occ. eigenvalues --   -0.69844  -0.69258  -0.65146  -0.64888  -0.63777
 Alpha  occ. eigenvalues --   -0.63556  -0.62230  -0.60847  -0.55392  -0.54103
 Alpha  occ. eigenvalues --   -0.53218  -0.52975  -0.51859  -0.51632  -0.49001
 Alpha  occ. eigenvalues --   -0.48985  -0.47528  -0.47473  -0.45022  -0.43488
 Alpha  occ. eigenvalues --   -0.37471  -0.36484  -0.36146  -0.35081
 Alpha virt. eigenvalues --    0.04891   0.06365   0.11171   0.12555   0.16401
 Alpha virt. eigenvalues --    0.17792   0.21316   0.22520   0.27229   0.28201
 Alpha virt. eigenvalues --    0.28432   0.29486   0.30882   0.32001   0.32436

 Mulliken charges:
               1
     1  C   -0.170555
     2  C   -0.218633
     3  C   -0.170834
     4  C    0.158289
     5  C   -0.170703
     6  C   -0.218648
     7  H    0.226034
     8  H    0.223866
     9  H    0.275833
    10  H    0.276389
    11  H    0.223900
    12  N    0.488756
    13  O   -0.460155
    14  O   -0.461085
    15  C   -0.171644
    16  C   -0.222590
    17  C   -0.153500
    18  C    0.155026
    19  C   -0.172244
    20  C   -0.220904
    21  H    0.219672
    22  H    0.220531
    23  H    0.288131
    24  H    0.271231
    25  H    0.217365
    26  N    0.488460
    27  O   -0.469231
    28  O   -0.452759
 Sum of Mulliken charges =  -0.00000

 Dipole moment (field-independent basis, Debye):
    X=              4.8293    Y=              6.3164    Z=              0.4414  Tot=              7.9633
 Quadrupole moment (field-independent basis, Debye-Ang):
   XX=            -74.3555   YY=           -108.2088   ZZ=            -99.8111
   XY=            -13.5051   XZ=              5.4869   YZ=              2.8438

 Normal termination of Gaussian 16 at Fri May  7 06:26:36 2021.
