 Gaussian 16, Revision A.03,
 Gaussian 16:  EM64L-G16RevA.03 25-Dec-2016

 -------------
 #p 6-31g* mp2
 -------------

 ------------------------------------------------------
 Input file generated by CHIRIPA (05-May-2021 14:53:13)
 ------------------------------------------------------
 Symbolic Z-matrix:
 Charge =  0 Multiplicity = 1

                         Standard orientation:
 ---------------------------------------------------------------------
 Center     Atomic      Atomic             Coordinates (Angstroms)
 Number     Number       Type             X           Y           Z
 ---------------------------------------------------------------------
      1          6           0       -5.254034   -0.389609    0.160456
      2          6           0       -6.298208    0.002655   -0.885400
      3          6           0       -7.579199   -0.825619   -0.781393
      4          1           0       -5.013366   -1.455533    0.047186
      5          1           0       -5.687485   -0.271886    1.163280
      6          1           0       -5.862460   -0.114452   -1.885912
      7          1           0       -6.536276    1.067815   -0.769751
      8          1           0       -8.039657   -0.700887    0.204011
      9          1           0       -7.362012   -1.889872   -0.918492
     10          1           0       -8.311864   -0.528635   -1.538270
     11          6           0       -3.967812    0.429563    0.069248
     12          6           0       -2.923638    0.037298    1.115104
     13          6           0       -1.642647    0.865572    1.011097
     14          1           0       -3.534361    0.311840   -0.933577
     15          1           0       -4.208480    1.495487    0.182517
     16          1           0       -2.685570   -1.027861    0.999455
     17          1           0       -3.359386    0.154406    2.115616
     18          1           0       -1.859834    1.929826    1.148196
     19          1           0       -1.182189    0.740841    0.025693
     20          1           0       -0.909982    0.568589    1.767974
     21          6           0        2.872139    2.398806   -0.148210
     22          6           0        2.054333    1.434477    0.449940
     23          6           0        2.448785    0.093768    0.488110
     24          6           0        3.672871   -0.249023   -0.084074
     25          6           0        4.509759    0.688559   -0.687272
     26          6           0        4.095086    2.023431   -0.713909
     27          1           0        2.557866    3.438034   -0.173383
     28          1           0        1.104056    1.723112    0.890061
     29          1           0        1.835156   -0.673256    0.944784
     30          1           0        5.451552    0.370424   -1.117661
     31          1           0        4.732248    2.770197   -1.179111
     32          7           0        4.101163   -1.665282   -0.049769
     33          8           0        5.184222   -1.941609   -0.560911
     34          8           0        3.345690   -2.472203    0.487611
 ---------------------------------------------------------------------

 SCF Done:  E(RHF) =  -669.535384547     A.U. after   15 cycles
 E2 =    -0.2091299048D+01 EUMP2 =    -0.67162668359439D+03

 The electronic state is 1-A.
 Alpha  occ. eigenvalues --  -20.60703 -20.60698 -15.85754 -11.31096 -11.27662
 Alpha  occ. eigenvalues --  -11.27634 -11.27378 -11.26679 -11.26566 -11.22269
 Alpha  occ. eigenvalues --  -11.22139 -11.21893 -11.21883 -11.21723 -11.21284
 Alpha  occ. eigenvalues --   -1.59779  -1.39333  -1.19258  -1.08904  -1.08657
 Alpha  occ. eigenvalues --   -1.04658  -1.04060  -0.96555  -0.95499  -0.87604
 Alpha  occ. eigenvalues --   -0.86044  -0.82332  -0.80148  -0.78675  -0.77373
 Alpha  occ. eigenvalues --   -0.71973  -0.71102  -0.70371  -0.65526  -0.64907
 Alpha  occ. eigenvalues --   -0.64660  -0.62062  -0.61433  -0.59918  -0.58128
 Alpha  occ. eigenvalues --   -0.55829  -0.55164  -0.53415  -0.53041  -0.52939
 Alpha  occ. eigenvalues --   -0.52551  -0.50469  -0.48731  -0.48729  -0.48443
 Alpha  occ. eigenvalues --   -0.47130  -0.46229  -0.46120  -0.44744  -0.44301
 Alpha  occ. eigenvalues --   -0.37241  -0.36247
 Alpha virt. eigenvalues --    0.05134   0.11380   0.16591   0.20685   0.22474
 Alpha virt. eigenvalues --    0.23747   0.25883   0.26213   0.27001   0.28146
 Alpha virt. eigenvalues --    0.28832   0.30298   0.30863   0.31153   0.32173

 Mulliken charges:
               1
     1  C   -0.299119
     2  C   -0.300016
     3  C   -0.476049
     4  H    0.151897
     5  H    0.150274
     6  H    0.152640
     7  H    0.151644
     8  H    0.155519
     9  H    0.156390
    10  H    0.161055
    11  C   -0.299400
    12  C   -0.299771
    13  C   -0.486153
    14  H    0.150934
    15  H    0.149236
    16  H    0.156946
    17  H    0.154640
    18  H    0.155387
    19  H    0.159237
    20  H    0.154955
    21  C   -0.172618
    22  C   -0.225122
    23  C   -0.174931
    24  C    0.158830
    25  C   -0.171463
    26  C   -0.218440
    27  H    0.225506
    28  H    0.238147
    29  H    0.275252
    30  H    0.275146
    31  H    0.222876
    32  N    0.488152
    33  O   -0.460808
    34  O   -0.460773
 Sum of Mulliken charges =  -0.00000

 Dipole moment (field-independent basis, Debye):
    X=             -1.7451    Y=              4.9646    Z=             -0.1364  Tot=              5.2642
 Quadrupole moment (field-independent basis, Debye-Ang):
   XX=           -102.7984   YY=            -97.3839   ZZ=            -93.8952
   XY=             19.4230   XZ=             -2.9878   YZ=             -0.6822

 Normal termination of Gaussian 16 at Thu May  6 05:47:30 2021.
