 Gaussian 16, Revision A.03,
 Gaussian 16:  EM64L-G16RevA.03 25-Dec-2016

 -------------
 #p 6-31g* mp2
 -------------

 ------------------------------------------------------
 Input file generated by CHIRIPA (05-May-2021 14:51:12)
 ------------------------------------------------------
 Symbolic Z-matrix:
 Charge =  0 Multiplicity = 1

                         Standard orientation:
 ---------------------------------------------------------------------
 Center     Atomic      Atomic             Coordinates (Angstroms)
 Number     Number       Type             X           Y           Z
 ---------------------------------------------------------------------
      1          6           0       -3.025291   -0.399149    0.670112
      2          6           0       -1.646135   -0.658522    0.062955
      3          6           0       -0.537529   -0.710592    1.114657
      4          1           0       -3.001546    0.547507    1.227088
      5          1           0       -3.249943   -1.187057    1.402319
      6          1           0       -1.424740    0.128874   -0.668897
      7          1           0       -1.673218   -1.604576   -0.492800
      8          1           0       -0.731435   -1.507702    1.839652
      9          1           0       -0.481545    0.235597    1.662554
     10          1           0        0.439870   -0.897005    0.658803
     11          6           0       -4.143984   -0.344329   -0.368757
     12          6           0       -5.523140   -0.084957    0.238400
     13          6           0       -6.631746   -0.032886   -0.813302
     14          1           0       -3.919332    0.443579   -1.100964
     15          1           0       -4.167729   -1.290985   -0.925733
     16          1           0       -5.496057    0.861097    0.794155
     17          1           0       -5.744535   -0.872352    0.970252
     18          1           0       -6.687730   -0.979075   -1.361199
     19          1           0       -6.437841    0.764224   -1.538297
     20          1           0       -7.609145    0.153527   -0.357448
     21          6           0        3.553893    1.110846    0.039605
     22          6           0        2.220270    1.772037   -0.310058
     23          6           0        2.174127    3.250576    0.076705
     24          1           0        3.735958    1.215085    1.117999
     25          1           0        4.366287    1.649117   -0.468010
     26          1           0        1.410503    1.231831    0.196962
     27          1           0        2.041268    1.666044   -1.387713
     28          1           0        2.961790    3.808641   -0.439773
     29          1           0        2.327442    3.371962    1.153906
     30          1           0        1.211964    3.703433   -0.182188
     31          6           0        3.615383   -0.367368   -0.340960
     32          6           0        4.949004   -1.028559    0.008703
     33          6           0        4.995149   -2.507098   -0.378060
     34          1           0        2.802987   -0.905639    0.166655
     35          1           0        3.433317   -0.471607   -1.419353
     36          1           0        5.128008   -0.922566    1.086358
     37          1           0        5.758772   -0.488354   -0.498317
     38          1           0        4.841833   -2.628483   -1.455261
     39          1           0        4.207485   -3.065163    0.138418
     40          1           0        5.957310   -2.959954   -0.119168
 ---------------------------------------------------------------------

 SCF Done:  E(RHF) =  -470.732292864     A.U. after   11 cycles
 E2 =    -0.1583752093D+01 EUMP2 =    -0.47231604495748D+03

 The electronic state is 1-A.
 Alpha  occ. eigenvalues --  -11.21629 -11.21611 -11.21593 -11.21466 -11.21422
 Alpha  occ. eigenvalues --  -11.21386 -11.21362 -11.21317 -11.21102 -11.21078
 Alpha  occ. eigenvalues --  -11.21065 -11.21032  -1.08460  -1.08395  -1.03574
 Alpha  occ. eigenvalues --   -1.03479  -0.96018  -0.95955  -0.87050  -0.86962
 Alpha  occ. eigenvalues --   -0.79650  -0.79543  -0.78263  -0.78220  -0.65148
 Alpha  occ. eigenvalues --   -0.65006  -0.61097  -0.60781  -0.59453  -0.59257
 Alpha  occ. eigenvalues --   -0.57653  -0.57542  -0.55353  -0.55204  -0.52817
 Alpha  occ. eigenvalues --   -0.52589  -0.52430  -0.52377  -0.50048  -0.49828
 Alpha  occ. eigenvalues --   -0.47956  -0.47863  -0.46738  -0.46495  -0.45801
 Alpha  occ. eigenvalues --   -0.45750  -0.45726  -0.45627  -0.43775  -0.43682
 Alpha virt. eigenvalues --    0.21504   0.23059   0.23809   0.24386   0.26132
 Alpha virt. eigenvalues --    0.26572   0.26942   0.27543   0.27705   0.28927
 Alpha virt. eigenvalues --    0.31084   0.31499   0.31567   0.32019   0.32162

 Mulliken charges:
               1
     1  C   -0.298742
     2  C   -0.300199
     3  C   -0.486395
     4  H    0.149775
     5  H    0.149594
     6  H    0.153577
     7  H    0.152321
     8  H    0.156237
     9  H    0.155148
    10  H    0.168379
    11  C   -0.298256
    12  C   -0.299663
    13  C   -0.475717
    14  H    0.149611
    15  H    0.149721
    16  H    0.151963
    17  H    0.151933
    18  H    0.155202
    19  H    0.155214
    20  H    0.160285
    21  C   -0.297389
    22  C   -0.310547
    23  C   -0.475151
    24  H    0.149362
    25  H    0.149292
    26  H    0.165724
    27  H    0.150663
    28  H    0.154911
    29  H    0.154752
    30  H    0.159282
    31  C   -0.305279
    32  C   -0.299099
    33  C   -0.475800
    34  H    0.155027
    35  H    0.149552
    36  H    0.152081
    37  H    0.152069
    38  H    0.155125
    39  H    0.155145
    40  H    0.160289
 Sum of Mulliken charges =  -0.00000

 Dipole moment (field-independent basis, Debye):
    X=             -0.0253    Y=             -0.0270    Z=              0.0090  Tot=              0.0381
 Quadrupole moment (field-independent basis, Debye-Ang):
   XX=            -85.5862   YY=            -84.9709   ZZ=            -84.4054
   XY=              0.4268   XZ=             -0.8380   YZ=             -0.5083

 Normal termination of Gaussian 16 at Wed May  5 23:09:24 2021.
