 Gaussian 16, Revision A.03,
 Gaussian 16:  EM64L-G16RevA.03 25-Dec-2016

 -------------
 #p 6-31g* mp2
 -------------

 ------------------------------------------------------
 Input file generated by CHIRIPA (05-May-2021 14:53:17)
 ------------------------------------------------------
 Symbolic Z-matrix:
 Charge =  0 Multiplicity = 1

                         Standard orientation:
 ---------------------------------------------------------------------
 Center     Atomic      Atomic             Coordinates (Angstroms)
 Number     Number       Type             X           Y           Z
 ---------------------------------------------------------------------
      1          6           0       -3.464165   -0.359519    0.014459
      2          6           0       -4.307617   -1.311276   -0.834501
      3          6           0       -4.643305   -2.613102   -0.106245
      4          1           0       -2.535166   -0.866629    0.308983
      5          1           0       -4.004289   -0.132021    0.943924
      6          1           0       -3.766669   -1.535816   -1.762711
      7          1           0       -5.234630   -0.801775   -1.127199
      8          1           0       -5.204542   -2.407696    0.811045
      9          1           0       -3.728241   -3.145907    0.171922
     10          1           0       -5.246737   -3.278693   -0.731320
     11          6           0       -3.120442    0.946343   -0.699899
     12          6           0       -2.276990    1.898100    0.149061
     13          6           0       -1.941302    3.199926   -0.579195
     14          1           0       -2.580318    0.718845   -1.629364
     15          1           0       -4.049441    1.453452   -0.994423
     16          1           0       -1.349977    1.388599    0.441759
     17          1           0       -2.817938    2.122640    1.077271
     18          1           0       -2.856366    3.732731   -0.857362
     19          1           0       -1.380065    2.994519   -1.496486
     20          1           0       -1.337870    3.865517    0.045880
     21          6           0        0.675244    0.131650    1.891813
     22          6           0        1.342487    1.229991    1.339587
     23          6           0        2.394910    1.041910    0.438712
     24          6           0        2.755494   -0.264116    0.110742
     25          6           0        2.110160   -1.378768    0.644021
     26          6           0        1.060531   -1.166935    1.542882
     27          1           0       -0.141219    0.286982    2.590853
     28          1           0        1.045423    2.239619    1.608753
     29          1           0        2.928637    1.874256   -0.003731
     30          1           0        2.428983   -2.373311    0.356526
     31          1           0        0.544140   -2.021803    1.970183
     32          7           0        3.868169   -0.475802   -0.841910
     33          8           0        4.166683   -1.636463   -1.114660
     34          8           0        4.420701    0.522948   -1.297809
 ---------------------------------------------------------------------

 SCF Done:  E(RHF) =  -669.534740903     A.U. after   15 cycles
 E2 =    -0.2093380936D+01 EUMP2 =    -0.67162812183892D+03

 The electronic state is 1-A.
 Alpha  occ. eigenvalues --  -20.60830 -20.60824 -15.85884 -11.31276 -11.27859
 Alpha  occ. eigenvalues --  -11.27842 -11.27577 -11.26869 -11.26841 -11.22116
 Alpha  occ. eigenvalues --  -11.22063 -11.21957 -11.21862 -11.21673 -11.21547
 Alpha  occ. eigenvalues --   -1.59905  -1.39457  -1.19465  -1.08987  -1.08833
 Alpha  occ. eigenvalues --   -1.04868  -1.04061  -0.96515  -0.95680  -0.87529
 Alpha  occ. eigenvalues --   -0.86263  -0.82504  -0.80143  -0.78804  -0.77544
 Alpha  occ. eigenvalues --   -0.72102  -0.71229  -0.70558  -0.65612  -0.65109
 Alpha  occ. eigenvalues --   -0.64850  -0.62218  -0.61454  -0.59899  -0.58139
 Alpha  occ. eigenvalues --   -0.55794  -0.55353  -0.53311  -0.53157  -0.52976
 Alpha  occ. eigenvalues --   -0.52895  -0.50441  -0.48862  -0.48855  -0.48457
 Alpha  occ. eigenvalues --   -0.47162  -0.46338  -0.46245  -0.44857  -0.44318
 Alpha  occ. eigenvalues --   -0.37327  -0.36446
 Alpha virt. eigenvalues --    0.04959   0.11041   0.16392   0.20564   0.22641
 Alpha virt. eigenvalues --    0.23593   0.25991   0.26243   0.26657   0.28167
 Alpha virt. eigenvalues --    0.28988   0.30228   0.30979   0.31423   0.32115

 Mulliken charges:
               1
     1  C   -0.299561
     2  C   -0.300081
     3  C   -0.475623
     4  H    0.146122
     5  H    0.147296
     6  H    0.154518
     7  H    0.153591
     8  H    0.154638
     9  H    0.152679
    10  H    0.162736
    11  C   -0.296834
    12  C   -0.312662
    13  C   -0.475125
    14  H    0.153007
    15  H    0.150931
    16  H    0.160276
    17  H    0.146965
    18  H    0.158125
    19  H    0.159225
    20  H    0.153472
    21  C   -0.171482
    22  C   -0.218157
    23  C   -0.171510
    24  C    0.158318
    25  C   -0.170918
    26  C   -0.219957
    27  H    0.229343
    28  H    0.226312
    29  H    0.276264
    30  H    0.276042
    31  H    0.224292
    32  N    0.488081
    33  O   -0.460246
    34  O   -0.460076
 Sum of Mulliken charges =  -0.00000

 Dipole moment (field-independent basis, Debye):
    X=             -3.8952    Y=              0.7071    Z=              3.2915  Tot=              5.1485
 Quadrupole moment (field-independent basis, Debye-Ang):
   XX=           -116.3629   YY=            -91.1827   ZZ=            -94.6107
   XY=              3.2388   XZ=              8.9455   YZ=             -0.8193

 Normal termination of Gaussian 16 at Thu May  6 02:49:22 2021.
