 Gaussian 16, Revision A.03,
 Gaussian 16:  EM64L-G16RevA.03 25-Dec-2016

 -------------
 #p 6-31g* mp2
 -------------

 ------------------------------------------------------
 Input file generated by CHIRIPA (05-May-2021 14:57:23)
 ------------------------------------------------------
 Symbolic Z-matrix:
 Charge =  0 Multiplicity = 1

                         Standard orientation:
 ---------------------------------------------------------------------
 Center     Atomic      Atomic             Coordinates (Angstroms)
 Number     Number       Type             X           Y           Z
 ---------------------------------------------------------------------
      1          6           0        2.645826    2.707946   -0.078915
      2          6           0        1.843911    2.005620    0.826729
      3          6           0        2.005240    0.627436    0.997403
      4          6           0        2.982536   -0.019592    0.242725
      5          6           0        3.797013    0.652299   -0.667483
      6          6           0        3.618104    2.030239   -0.821821
      7          1           0        2.513673    3.778458   -0.205153
      8          1           0        1.088032    2.529329    1.405021
      9          1           0        1.398110    0.059140    1.691558
     10          1           0        4.542138    0.102767   -1.229820
     11          1           0        4.242316    2.573098   -1.525886
     12          7           0        3.162634   -1.478484    0.414763
     13          8           0        4.030702   -2.025323   -0.262041
     14          8           0        2.432317   -2.047502    1.223152
     15          6           0       -0.915197   -1.571318   -0.838966
     16          6           0       -2.102473   -2.219553   -0.483035
     17          6           0       -3.237671   -1.481416   -0.135146
     18          6           0       -3.149846   -0.090294   -0.153988
     19          6           0       -1.981443    0.584670   -0.504055
     20          6           0       -0.858571   -0.173739   -0.848324
     21          1           0       -0.038135   -2.152595   -1.107808
     22          1           0       -2.149354   -3.304809   -0.474887
     23          1           0       -4.169623   -1.957571    0.144424
     24          1           0       -1.965318    1.667794   -0.502901
     25          1           0        0.062142    0.332381   -1.124323
     26          7           0       -4.345106    0.701871    0.212390
     27          8           0       -4.241891    1.926365    0.187958
     28          8           0       -5.362533    0.083274    0.517051
 ---------------------------------------------------------------------

 SCF Done:  E(RHF) =  -868.337999636     A.U. after   16 cycles
 E2 =    -0.2602152592D+01 EUMP2 =    -0.87094015222784D+03

 The electronic state is 1-A.
 Alpha  occ. eigenvalues --  -20.61779 -20.61772 -20.60838 -20.60817 -15.86818
 Alpha  occ. eigenvalues --  -15.85880 -11.32121 -11.31150 -11.28709 -11.28657
 Alpha  occ. eigenvalues --  -11.28406 -11.27740 -11.27654 -11.27648 -11.27612
 Alpha  occ. eigenvalues --  -11.27296 -11.26605 -11.26594  -1.60864  -1.59908
 Alpha  occ. eigenvalues --   -1.40409  -1.39465  -1.20333  -1.19292  -1.09709
 Alpha  occ. eigenvalues --   -1.08680  -1.05697  -1.04677  -0.96544  -0.95538
 Alpha  occ. eigenvalues --   -0.87072  -0.86069  -0.83355  -0.82376  -0.78417
 Alpha  occ. eigenvalues --   -0.77470  -0.73019  -0.72237  -0.72093  -0.71361
 Alpha  occ. eigenvalues --   -0.71232  -0.70326  -0.65934  -0.65631  -0.64925
 Alpha  occ. eigenvalues --   -0.64687  -0.62996  -0.62066  -0.56145  -0.55141
 Alpha  occ. eigenvalues --   -0.54173  -0.53727  -0.52989  -0.52586  -0.49787
 Alpha  occ. eigenvalues --   -0.49781  -0.48864  -0.48839  -0.45814  -0.44893
 Alpha  occ. eigenvalues --   -0.38345  -0.37618  -0.37051  -0.36083
 Alpha virt. eigenvalues --    0.04060   0.05062   0.10061   0.11625   0.15453
 Alpha virt. eigenvalues --    0.16704   0.20610   0.21575   0.26399   0.27361
 Alpha virt. eigenvalues --    0.27597   0.28253   0.30410   0.31180   0.31746

 Mulliken charges:
               1
     1  C   -0.171600
     2  C   -0.225185
     3  C   -0.174443
     4  C    0.151617
     5  C   -0.171925
     6  C   -0.219716
     7  H    0.230744
     8  H    0.230073
     9  H    0.281224
    10  H    0.277854
    11  H    0.227271
    12  N    0.485847
    13  O   -0.458260
    14  O   -0.459629
    15  C   -0.169251
    16  C   -0.217875
    17  C   -0.171801
    18  C    0.158633
    19  C   -0.177385
    20  C   -0.225048
    21  H    0.233498
    22  H    0.227140
    23  H    0.275629
    24  H    0.269456
    25  H    0.228283
    26  N    0.488189
    27  O   -0.463932
    28  O   -0.459407
 Sum of Mulliken charges =  -0.00000

 Dipole moment (field-independent basis, Debye):
    X=              3.8079    Y=              2.2705    Z=             -1.8488  Tot=              4.8035
 Quadrupole moment (field-independent basis, Debye-Ang):
   XX=           -131.9056   YY=           -101.0754   ZZ=           -103.4226
   XY=             27.1184   XZ=             -1.8759   YZ=              1.1553

 Normal termination of Gaussian 16 at Wed May  5 19:24:40 2021.
