 Gaussian 16, Revision A.03,
 Gaussian 16:  EM64L-G16RevA.03 25-Dec-2016

 -------------
 #p 6-31g* mp2
 -------------

 ------------------------------------------------------
 Input file generated by CHIRIPA (05-May-2021 14:55:22)
 ------------------------------------------------------
 Symbolic Z-matrix:
 Charge =  0 Multiplicity = 1

                         Standard orientation:
 ---------------------------------------------------------------------
 Center     Atomic      Atomic             Coordinates (Angstroms)
 Number     Number       Type             X           Y           Z
 ---------------------------------------------------------------------
      1          6           0        5.639260    0.175035    0.609438
      2          6           0        4.618586    0.935552    1.189404
      3          6           0        3.281734    0.704966    0.851464
      4          6           0        3.000211   -0.298620   -0.074199
      5          6           0        3.994816   -1.073166   -0.669285
      6          6           0        5.324672   -0.825133   -0.316423
      7          1           0        6.675041    0.360937    0.877754
      8          1           0        4.859948    1.712952    1.908736
      9          1           0        2.471870    1.278886    1.285231
     10          1           0        3.723118   -1.841205   -1.383228
     11          1           0        6.115277   -1.417317   -0.768427
     12          7           0        1.588648   -0.551966   -0.439860
     13          8           0        1.366881   -1.441962   -1.258006
     14          8           0        0.730762    0.144254    0.098606
     15          6           0       -4.078752    1.090092    0.036009
     16          6           0       -2.795555    1.613930   -0.609734
     17          6           0       -2.691395    3.138724   -0.565595
     18          1           0       -4.945384    1.533143   -0.473501
     19          1           0       -4.121566    1.431407    1.079592
     20          1           0       -2.754500    1.270572   -1.651386
     21          1           0       -1.931880    1.169432   -0.098753
     22          1           0       -2.706925    3.496126    0.469115
     23          1           0       -3.534219    3.597842   -1.092339
     24          1           0       -1.766606    3.491637   -1.032581
     25          6           0       -4.197352   -0.432518   -0.000339
     26          6           0       -5.480549   -0.956355    0.645405
     27          6           0       -5.584709   -2.481149    0.601265
     28          1           0       -4.154538   -0.773833   -1.043922
     29          1           0       -3.330721   -0.875568    0.509171
     30          1           0       -6.344224   -0.511857    0.134424
     31          1           0       -5.521604   -0.612997    1.687056
     32          1           0       -4.741886   -2.940266    1.128010
     33          1           0       -5.569179   -2.838551   -0.433444
     34          1           0       -6.509499   -2.834063    1.068251
 ---------------------------------------------------------------------

 SCF Done:  E(RHF) =  -669.536119448     A.U. after   15 cycles
 E2 =    -0.2090881000D+01 EUMP2 =    -0.67162700044783D+03

 The electronic state is 1-A.
 Alpha  occ. eigenvalues --  -20.60966 -20.60959 -15.86004 -11.31314 -11.27876
 Alpha  occ. eigenvalues --  -11.27872 -11.27611 -11.26881 -11.26871 -11.20684
 Alpha  occ. eigenvalues --  -11.20259 -11.20220 -11.20161 -11.20017 -11.19952
 Alpha  occ. eigenvalues --   -1.60026  -1.39583  -1.19481  -1.08887  -1.07256
 Alpha  occ. eigenvalues --   -1.04876  -1.02406  -0.95730  -0.94912  -0.86277
 Alpha  occ. eigenvalues --   -0.85934  -0.82567  -0.78459  -0.77619  -0.77015
 Alpha  occ. eigenvalues --   -0.72226  -0.71341  -0.70590  -0.65138  -0.64879
 Alpha  occ. eigenvalues --   -0.63891  -0.62223  -0.59806  -0.58277  -0.56495
 Alpha  occ. eigenvalues --   -0.55380  -0.54219  -0.53208  -0.52968  -0.51635
 Alpha  occ. eigenvalues --   -0.51327  -0.49053  -0.48973  -0.48830  -0.46766
 Alpha  occ. eigenvalues --   -0.45469  -0.45000  -0.44581  -0.44415  -0.42659
 Alpha  occ. eigenvalues --   -0.37460  -0.36477
 Alpha virt. eigenvalues --    0.04912   0.11178   0.16412   0.21306   0.23985
 Alpha virt. eigenvalues --    0.25351   0.27233   0.27781   0.28167   0.28774
 Alpha virt. eigenvalues --    0.29050   0.30880   0.32319   0.32501   0.32918

 Mulliken charges:
               1
     1  C   -0.170572
     2  C   -0.218534
     3  C   -0.170812
     4  C    0.157416
     5  C   -0.170424
     6  C   -0.218605
     7  H    0.226064
     8  H    0.223906
     9  H    0.275662
    10  H    0.275942
    11  H    0.223884
    12  N    0.492876
    13  O   -0.458628
    14  O   -0.464382
    15  C   -0.297534
    16  C   -0.309878
    17  C   -0.474424
    18  H    0.143971
    19  H    0.145003
    20  H    0.150244
    21  H    0.181171
    22  H    0.150134
    23  H    0.149663
    24  H    0.157875
    25  C   -0.298430
    26  C   -0.298865
    27  C   -0.474940
    28  H    0.149855
    29  H    0.157072
    30  H    0.148996
    31  H    0.149204
    32  H    0.155691
    33  H    0.154949
    34  H    0.156448
 Sum of Mulliken charges =  -0.00000

 Dipole moment (field-independent basis, Debye):
    X=              5.3532    Y=              0.7619    Z=              1.2803  Tot=              5.5567
 Quadrupole moment (field-independent basis, Debye-Ang):
   XX=            -66.3206   YY=            -94.9496   ZZ=            -92.8311
   XY=              0.0986   XZ=              3.0737   YZ=              2.4076

 Normal termination of Gaussian 16 at Wed May  5 19:01:10 2021.
