 Gaussian 16, Revision A.03,
 Gaussian 16:  EM64L-G16RevA.03 25-Dec-2016

 -------------
 #p 6-31g* mp2
 -------------

 ------------------------------------------------------
 Input file generated by CHIRIPA (05-May-2021 14:55:22)
 ------------------------------------------------------
 Symbolic Z-matrix:
 Charge =  0 Multiplicity = 1

                         Standard orientation:
 ---------------------------------------------------------------------
 Center     Atomic      Atomic             Coordinates (Angstroms)
 Number     Number       Type             X           Y           Z
 ---------------------------------------------------------------------
      1          6           0        0.784947   -2.138334    1.376307
      2          6           0        0.693078   -0.783760    1.712773
      3          6           0        1.479627    0.166267    1.054489
      4          6           0        2.351303   -0.275311    0.060266
      5          6           0        2.465557   -1.617765   -0.297578
      6          6           0        1.669335   -2.550288    0.373972
      7          1           0        0.170180   -2.869539    1.892830
      8          1           0        0.007126   -0.460952    2.490790
      9          1           0        1.428555    1.221234    1.295016
     10          1           0        3.158569   -1.909210   -1.077459
     11          1           0        1.742783   -3.601607    0.110576
     12          7           0        3.189107    0.721174   -0.643652
     13          8           0        3.949270    0.306523   -1.515922
     14          8           0        3.069752    1.898002   -0.309785
     15          6           0       -2.764946   -0.129331   -0.541897
     16          6           0       -4.004412   -1.005272   -0.356320
     17          6           0       -3.853134   -2.386450   -0.994486
     18          1           0       -2.559627   -0.018306   -1.615425
     19          1           0       -1.894563   -0.641180   -0.108494
     20          1           0       -4.872450   -0.491307   -0.788715
     21          1           0       -4.206916   -1.114067    0.716886
     22          1           0       -3.004778   -2.922315   -0.556604
     23          1           0       -3.674092   -2.296016   -2.070760
     24          1           0       -4.750590   -2.995981   -0.849896
     25          6           0       -2.900903    1.254564    0.090621
     26          6           0       -1.661438    2.130504   -0.094957
     27          6           0       -1.812715    3.511683    0.543210
     28          1           0       -3.771287    1.766413   -0.342782
     29          1           0       -3.106222    1.143538    1.164149
     30          1           0       -1.458933    2.239300   -1.168162
     31          1           0       -0.793399    1.616539    0.337439
     32          1           0       -1.991757    3.421248    1.619484
     33          1           0       -2.661072    4.047547    0.105328
     34          1           0       -0.915259    4.121213    0.398619
 ---------------------------------------------------------------------

 SCF Done:  E(RHF) =  -669.534637243     A.U. after   15 cycles
 E2 =    -0.2094000820D+01 EUMP2 =    -0.67162863806268D+03

 The electronic state is 1-A.
 Alpha  occ. eigenvalues --  -20.60830 -20.60825 -15.85886 -11.31289 -11.27864
 Alpha  occ. eigenvalues --  -11.27860 -11.27633 -11.26907 -11.26881 -11.21963
 Alpha  occ. eigenvalues --  -11.21734 -11.21655 -11.21581 -11.21499 -11.21184
 Alpha  occ. eigenvalues --   -1.59904  -1.39457  -1.19484  -1.08868  -1.08701
 Alpha  occ. eigenvalues --   -1.04901  -1.03801  -0.96248  -0.95693  -0.87265
 Alpha  occ. eigenvalues --   -0.86285  -0.82528  -0.79867  -0.78521  -0.77553
 Alpha  occ. eigenvalues --   -0.72106  -0.71227  -0.70594  -0.65387  -0.65128
 Alpha  occ. eigenvalues --   -0.64894  -0.62275  -0.61189  -0.59605  -0.57842
 Alpha  occ. eigenvalues --   -0.55562  -0.55386  -0.53281  -0.52981  -0.52898
 Alpha  occ. eigenvalues --   -0.52666  -0.50213  -0.48866  -0.48857  -0.48176
 Alpha  occ. eigenvalues --   -0.46923  -0.46038  -0.45977  -0.44847  -0.44036
 Alpha  occ. eigenvalues --   -0.37439  -0.36385
 Alpha virt. eigenvalues --    0.04930   0.11069   0.16335   0.20426   0.23012
 Alpha virt. eigenvalues --    0.23706   0.26157   0.26861   0.27463   0.28151
 Alpha virt. eigenvalues --    0.28279   0.30635   0.31429   0.31542   0.32081

 Mulliken charges:
               1
     1  C   -0.171554
     2  C   -0.216869
     3  C   -0.170325
     4  C    0.158213
     5  C   -0.170810
     6  C   -0.217879
     7  H    0.226443
     8  H    0.224726
     9  H    0.277294
    10  H    0.276194
    11  H    0.224241
    12  N    0.488277
    13  O   -0.460122
    14  O   -0.460141
    15  C   -0.303782
    16  C   -0.299357
    17  C   -0.474494
    18  H    0.151971
    19  H    0.151855
    20  H    0.153804
    21  H    0.148226
    22  H    0.149640
    23  H    0.157581
    24  H    0.160594
    25  C   -0.297289
    26  C   -0.304700
    27  C   -0.477542
    28  H    0.151313
    29  H    0.143557
    30  H    0.157127
    31  H    0.149942
    32  H    0.150175
    33  H    0.156829
    34  H    0.166861
 Sum of Mulliken charges =  -0.00000

 Dipole moment (field-independent basis, Debye):
    X=             -2.8316    Y=             -3.4907    Z=              2.3954  Tot=              5.0933
 Quadrupole moment (field-independent basis, Debye-Ang):
   XX=           -108.5477   YY=            -91.1975   ZZ=            -92.8149
   XY=             -9.4808   XZ=              4.9805   YZ=              0.4770

 Normal termination of Gaussian 16 at Wed May  5 19:03:48 2021.
