 Gaussian 16, Revision A.03,
 Gaussian 16:  EM64L-G16RevA.03 25-Dec-2016

 -------------
 #p 6-31g* mp2
 -------------

 ------------------------------------------------------
 Input file generated by CHIRIPA (05-May-2021 14:57:22)
 ------------------------------------------------------
 Symbolic Z-matrix:
 Charge =  0 Multiplicity = 1

                         Standard orientation:
 ---------------------------------------------------------------------
 Center     Atomic      Atomic             Coordinates (Angstroms)
 Number     Number       Type             X           Y           Z
 ---------------------------------------------------------------------
      1          6           0        3.378974    2.346242   -0.577718
      2          6           0        2.277188    1.571088   -0.201256
      3          6           0        2.440663    0.227418    0.148565
      4          6           0        3.725863   -0.311207    0.110700
      5          6           0        4.843323    0.435194   -0.260055
      6          6           0        4.656273    1.776825   -0.605866
      7          1           0        3.242826    3.389246   -0.847910
      8          1           0        1.284056    2.010651   -0.178487
      9          1           0        1.605100   -0.395538    0.443825
     10          1           0        5.821051   -0.030953   -0.273180
     11          1           0        5.513759    2.376424   -0.897832
     12          7           0        3.911405   -1.732611    0.478917
     13          8           0        5.054031   -2.183527    0.437477
     14          8           0        2.910693   -2.368878    0.801994
     15          6           0       -2.870274    2.382352    0.558570
     16          6           0       -2.144543    1.593857   -0.340381
     17          6           0       -2.592210    0.314988   -0.684823
     18          6           0       -3.775042   -0.145936   -0.108848
     19          6           0       -4.520368    0.615708    0.789860
     20          6           0       -4.053783    1.891626    1.119831
     21          1           0       -2.515167    3.374661    0.820519
     22          1           0       -1.225075    1.972371   -0.777817
     23          1           0       -2.050019   -0.316572   -1.378060
     24          1           0       -5.433361    0.211101    1.209569
     25          1           0       -4.619454    2.501766    1.818252
     26          7           0       -4.258980   -1.498254   -0.465834
     27          8           0       -5.304078   -1.881293    0.055403
     28          8           0       -3.584029   -2.149556   -1.260116
 ---------------------------------------------------------------------

 SCF Done:  E(RHF) =  -868.336329433     A.U. after   16 cycles
 E2 =    -0.2599757967D+01 EUMP2 =    -0.87093608739997D+03

 The electronic state is 1-A.
 Alpha  occ. eigenvalues --  -20.61017 -20.61013 -20.61009 -20.61004 -15.86079
 Alpha  occ. eigenvalues --  -15.86073 -11.31637 -11.31603 -11.28293 -11.28241
 Alpha  occ. eigenvalues --  -11.28223 -11.28185 -11.28082 -11.28025 -11.27434
 Alpha  occ. eigenvalues --  -11.27373 -11.27257 -11.27220  -1.60087  -1.60085
 Alpha  occ. eigenvalues --   -1.39636  -1.39633  -1.19854  -1.19812  -1.09218
 Alpha  occ. eigenvalues --   -1.09180  -1.05307  -1.05246  -0.96010  -0.95979
 Alpha  occ. eigenvalues --   -0.86719  -0.86624  -0.82869  -0.82798  -0.77897
 Alpha  occ. eigenvalues --   -0.77790  -0.72294  -0.72286  -0.71414  -0.71412
 Alpha  occ. eigenvalues --   -0.70966  -0.70922  -0.65533  -0.65510  -0.65469
 Alpha  occ. eigenvalues --   -0.65125  -0.62766  -0.62471  -0.55822  -0.55744
 Alpha  occ. eigenvalues --   -0.53615  -0.53568  -0.53540  -0.53201  -0.49078
 Alpha  occ. eigenvalues --   -0.49053  -0.49035  -0.49031  -0.45002  -0.44998
 Alpha  occ. eigenvalues --   -0.37847  -0.37805  -0.36908  -0.36857
 Alpha virt. eigenvalues --    0.04697   0.04730   0.10667   0.10776   0.16050
 Alpha virt. eigenvalues --    0.16156   0.18526   0.21953   0.24706   0.27384
 Alpha virt. eigenvalues --    0.28033   0.28803   0.29409   0.31621   0.31800

 Mulliken charges:
               1
     1  C   -0.170905
     2  C   -0.221990
     3  C   -0.171769
     4  C    0.159211
     5  C   -0.169662
     6  C   -0.218368
     7  H    0.224890
     8  H    0.216245
     9  H    0.277540
    10  H    0.277616
    11  H    0.224980
    12  N    0.487932
    13  O   -0.459178
    14  O   -0.457604
    15  C   -0.170392
    16  C   -0.224868
    17  C   -0.171279
    18  C    0.159656
    19  C   -0.169036
    20  C   -0.218266
    21  H    0.224272
    22  H    0.217595
    23  H    0.278075
    24  H    0.278133
    25  H    0.225410
    26  N    0.488083
    27  O   -0.458726
    28  O   -0.457598
 Sum of Mulliken charges =  -0.00000

 Dipole moment (field-independent basis, Debye):
    X=              0.9983    Y=              9.5847    Z=              0.0129  Tot=              9.6366
 Quadrupole moment (field-independent basis, Debye-Ang):
   XX=           -113.1441   YY=           -110.5955   ZZ=           -104.7652
   XY=              0.5976   XZ=            -13.7793   YZ=              0.7140

 Normal termination of Gaussian 16 at Wed May  5 16:17:04 2021.
