 Gaussian 16, Revision A.03,
 Gaussian 16:  EM64L-G16RevA.03 25-Dec-2016

 -------------
 #p 6-31g* mp2
 -------------

 ------------------------------------------------------
 Input file generated by CHIRIPA (05-May-2021 14:53:15)
 ------------------------------------------------------
 Symbolic Z-matrix:
 Charge =  0 Multiplicity = 1

                         Standard orientation:
 ---------------------------------------------------------------------
 Center     Atomic      Atomic             Coordinates (Angstroms)
 Number     Number       Type             X           Y           Z
 ---------------------------------------------------------------------
      1          6           0       -5.168465    0.234394   -0.073007
      2          6           0       -5.600796   -0.943633    0.800680
      3          6           0       -7.080947   -1.289818    0.636054
      4          1           0       -5.781496    1.111494    0.175658
      5          1           0       -5.375495   -0.003389   -1.125619
      6          1           0       -5.391736   -0.704257    1.851208
      7          1           0       -4.986535   -1.817978    0.550040
      8          1           0       -7.301412   -1.554469   -0.403155
      9          1           0       -7.708916   -0.434420    0.905405
     10          1           0       -7.368530   -2.134653    1.269624
     11          6           0       -3.691325    0.592470    0.080503
     12          6           0       -3.258994    1.770497   -0.793183
     13          6           0       -1.778843    2.116683   -0.628558
     14          1           0       -3.484295    0.830253    1.133116
     15          1           0       -3.078294   -0.284629   -0.168161
     16          1           0       -3.873255    2.644842   -0.542544
     17          1           0       -3.468054    1.531121   -1.843711
     18          1           0       -1.150874    1.261284   -0.897909
     19          1           0       -1.558378    2.381333    0.410652
     20          1           0       -1.491260    2.961517   -1.262128
     21          6           0        5.500720    0.964473    0.736871
     22          6           0        4.260630    1.606005    0.652403
     23          6           0        3.123692    0.902535    0.243688
     24          6           0        3.263649   -0.447462   -0.074449
     25          6           0        4.485357   -1.114708   -0.000268
     26          6           0        5.608935   -0.391445    0.410841
     27          1           0        6.378733    1.518634    1.055301
     28          1           0        4.173616    2.658942    0.904984
     29          1           0        2.151456    1.374417    0.169493
     30          1           0        4.540772   -2.165243   -0.258576
     31          1           0        6.570726   -0.892264    0.475518
     32          7           0        2.067094   -1.202670   -0.508405
     33          8           0        2.216843   -2.391247   -0.783176
     34          8           0        1.002144   -0.591727   -0.565551
 ---------------------------------------------------------------------

 SCF Done:  E(RHF) =  -669.536211433     A.U. after   15 cycles
 E2 =    -0.2090749787D+01 EUMP2 =    -0.67162696122031D+03

 The electronic state is 1-A.
 Alpha  occ. eigenvalues --  -20.60893 -20.60883 -15.85940 -11.31244 -11.27813
 Alpha  occ. eigenvalues --  -11.27795 -11.27551 -11.26819 -11.26806 -11.20980
 Alpha  occ. eigenvalues --  -11.20832 -11.20705 -11.20557 -11.20520 -11.20149
 Alpha  occ. eigenvalues --   -1.59959  -1.39515  -1.19415  -1.08823  -1.07695
 Alpha  occ. eigenvalues --   -1.04809  -1.02816  -0.95668  -0.95262  -0.86285
 Alpha  occ. eigenvalues --   -0.86210  -0.82502  -0.78893  -0.77571  -0.77472
 Alpha  occ. eigenvalues --   -0.72169  -0.71275  -0.70524  -0.65073  -0.64813
 Alpha  occ. eigenvalues --   -0.64321  -0.62155  -0.60205  -0.58648  -0.56872
 Alpha  occ. eigenvalues --   -0.55317  -0.54530  -0.53144  -0.52901  -0.51993
 Alpha  occ. eigenvalues --   -0.51678  -0.49215  -0.48917  -0.48876  -0.47192
 Alpha  occ. eigenvalues --   -0.45909  -0.45043  -0.44947  -0.44921  -0.43078
 Alpha  occ. eigenvalues --   -0.37397  -0.36411
 Alpha virt. eigenvalues --    0.04978   0.11244   0.16476   0.21238   0.23595
 Alpha virt. eigenvalues --    0.24912   0.26737   0.27375   0.27658   0.28336
 Alpha virt. eigenvalues --    0.29131   0.30803   0.31854   0.32125   0.32591

 Mulliken charges:
               1
     1  C   -0.297949
     2  C   -0.299579
     3  C   -0.475341
     4  H    0.146616
     5  H    0.149156
     6  H    0.150455
     7  H    0.154776
     8  H    0.154887
     9  H    0.153431
    10  H    0.158958
    11  C   -0.300009
    12  C   -0.297833
    13  C   -0.488313
    14  H    0.146521
    15  H    0.160630
    16  H    0.146946
    17  H    0.151559
    18  H    0.183334
    19  H    0.147398
    20  H    0.152261
    21  C   -0.170583
    22  C   -0.218820
    23  C   -0.171255
    24  C    0.157503
    25  C   -0.170855
    26  C   -0.218667
    27  H    0.225809
    28  H    0.223949
    29  H    0.277876
    30  H    0.275623
    31  H    0.223595
    32  N    0.495907
    33  O   -0.459603
    34  O   -0.468382
 Sum of Mulliken charges =  -0.00000

 Dipole moment (field-independent basis, Debye):
    X=              4.4357    Y=              2.5082    Z=              1.4898  Tot=              5.3090
 Quadrupole moment (field-independent basis, Debye-Ang):
   XX=            -67.9485   YY=            -94.1824   ZZ=            -95.3203
   XY=              4.1773   XZ=              4.4479   YZ=              0.2193

 Normal termination of Gaussian 16 at Thu May  6 04:16:50 2021.
