 Gaussian 16, Revision A.03,
 Gaussian 16:  EM64L-G16RevA.03 25-Dec-2016

 -------------
 #p 6-31g* mp2
 -------------

 ------------------------------------------------------
 Input file generated by CHIRIPA (05-May-2021 14:57:27)
 ------------------------------------------------------
 Symbolic Z-matrix:
 Charge =  0 Multiplicity = 1

                         Standard orientation:
 ---------------------------------------------------------------------
 Center     Atomic      Atomic             Coordinates (Angstroms)
 Number     Number       Type             X           Y           Z
 ---------------------------------------------------------------------
      1          6           0        1.079291    1.077375   -0.939816
      2          6           0        2.105637    1.948471   -0.559915
      3          6           0        3.365795    1.452431   -0.212791
      4          6           0        3.565672    0.073518   -0.256830
      5          6           0        2.563244   -0.819973   -0.631132
      6          6           0        1.310961   -0.301636   -0.974152
      7          1           0        0.103429    1.471371   -1.207876
      8          1           0        1.928581    3.019889   -0.532340
      9          1           0        4.178135    2.104218    0.085025
     10          1           0        2.769898   -1.883172   -0.649040
     11          1           0        0.515750   -0.980508   -1.268799
     12          7           0        4.895576   -0.463420    0.108482
     13          8           0        5.046209   -1.682333    0.061594
     14          8           0        5.762139    0.344807    0.434783
     15          6           0       -1.142143   -0.405610    1.520136
     16          6           0       -1.653122   -1.471666    0.772510
     17          6           0       -2.873520   -1.347925    0.101790
     18          6           0       -3.559596   -0.138462    0.200728
     19          6           0       -3.076697    0.941820    0.937673
     20          6           0       -1.854306    0.795613    1.600190
     21          1           0       -0.193334   -0.510461    2.037981
     22          1           0       -1.102217   -2.405722    0.708564
     23          1           0       -3.292224   -2.157220   -0.483998
     24          1           0       -3.648738    1.860601    0.982727
     25          1           0       -1.459896    1.625205    2.180074
     26          7           0       -4.852632    0.004429   -0.504992
     27          8           0       -5.437754    1.080380   -0.402050
     28          8           0       -5.256507   -0.962230   -1.147714
 ---------------------------------------------------------------------

 SCF Done:  E(RHF) =  -868.336695875     A.U. after   16 cycles
 E2 =    -0.2602730627D+01 EUMP2 =    -0.87093942650188D+03

 The electronic state is 1-A.
 Alpha  occ. eigenvalues --  -20.61496 -20.61490 -20.61321 -20.61315 -15.86560
 Alpha  occ. eigenvalues --  -15.86377 -11.32041 -11.31802 -11.28678 -11.28670
 Alpha  occ. eigenvalues --  -11.28372 -11.28361 -11.28331 -11.28028 -11.27629
 Alpha  occ. eigenvalues --  -11.27603 -11.27361 -11.27313  -1.60574  -1.60398
 Alpha  occ. eigenvalues --   -1.40123  -1.39949  -1.20268  -1.19974  -1.09626
 Alpha  occ. eigenvalues --   -1.09313  -1.05689  -1.05383  -0.96411  -0.96157
 Alpha  occ. eigenvalues --   -0.87070  -0.86738  -0.83236  -0.82996  -0.78287
 Alpha  occ. eigenvalues --   -0.78049  -0.72766  -0.72587  -0.71911  -0.71730
 Alpha  occ. eigenvalues --   -0.71279  -0.71023  -0.65885  -0.65700  -0.65598
 Alpha  occ. eigenvalues --   -0.65328  -0.63021  -0.62711  -0.56090  -0.55814
 Alpha  occ. eigenvalues --   -0.54326  -0.53743  -0.53543  -0.53309  -0.49536
 Alpha  occ. eigenvalues --   -0.49518  -0.49353  -0.49343  -0.45503  -0.45342
 Alpha  occ. eigenvalues --   -0.38853  -0.37595  -0.37270  -0.36702
 Alpha virt. eigenvalues --    0.04175   0.04504   0.09928   0.10979   0.15654
 Alpha virt. eigenvalues --    0.16005   0.20223   0.21329   0.25693   0.27449
 Alpha virt. eigenvalues --    0.27536   0.27872   0.29907   0.30958   0.31769

 Mulliken charges:
               1
     1  C   -0.170823
     2  C   -0.222298
     3  C   -0.171579
     4  C    0.158176
     5  C   -0.177628
     6  C   -0.220513
     7  H    0.230931
     8  H    0.224587
     9  H    0.276898
    10  H    0.274439
    11  H    0.225602
    12  N    0.487980
    13  O   -0.460292
    14  O   -0.458893
    15  C   -0.163332
    16  C   -0.228936
    17  C   -0.173127
    18  C    0.156748
    19  C   -0.173239
    20  C   -0.224473
    21  H    0.233345
    22  H    0.224589
    23  H    0.277892
    24  H    0.277532
    25  H    0.225950
    26  N    0.488128
    27  O   -0.459036
    28  O   -0.458628
 Sum of Mulliken charges =  -0.00000

 Dipole moment (field-independent basis, Debye):
    X=             -0.2167    Y=              1.4494    Z=              1.2633  Tot=              1.9349
 Quadrupole moment (field-independent basis, Debye-Ang):
   XX=           -171.3494   YY=            -95.7877   ZZ=           -103.6686
   XY=              9.0104   XZ=            -11.2819   YZ=              1.6762

 Normal termination of Gaussian 16 at Fri May  7 12:46:17 2021.
