 Gaussian 16, Revision A.03,
 Gaussian 16:  EM64L-G16RevA.03 25-Dec-2016

 -------------
 #p 6-31g* mp2
 -------------

 ------------------------------------------------------
 Input file generated by CHIRIPA (05-May-2021 14:57:21)
 ------------------------------------------------------
 Symbolic Z-matrix:
 Charge =  0 Multiplicity = 1

                         Standard orientation:
 ---------------------------------------------------------------------
 Center     Atomic      Atomic             Coordinates (Angstroms)
 Number     Number       Type             X           Y           Z
 ---------------------------------------------------------------------
      1          6           0       -2.850832    2.590964   -0.085751
      2          6           0       -2.138236    1.948947    0.932356
      3          6           0       -2.101889    0.553113    1.002174
      4          6           0       -2.792580   -0.172870    0.033058
      5          6           0       -3.511439    0.437616   -0.993508
      6          6           0       -3.533955    1.834583   -1.043744
      7          1           0       -2.873695    3.675722   -0.132381
      8          1           0       -1.606781    2.533808    1.677701
      9          1           0       -1.558057    0.030344    1.779591
     10          1           0       -4.031397   -0.172318   -1.722235
     11          1           0       -4.088188    2.330484   -1.835548
     12          7           0       -2.761422   -1.651177    0.096606
     13          8           0       -3.378214   -2.268045   -0.769234
     14          8           0       -2.120799   -2.165014    1.011051
     15          6           0        3.276213    2.406493   -0.011837
     16          6           0        2.056428    1.927036    0.476801
     17          6           0        1.780527    0.556480    0.475717
     18          6           0        2.751455   -0.310265   -0.023624
     19          6           0        3.976133    0.136695   -0.517264
     20          6           0        4.230490    1.511370   -0.506437
     21          1           0        3.482171    3.472775   -0.007210
     22          1           0        1.313459    2.619881    0.861521
     23          1           0        0.844483    0.158182    0.848004
     24          1           0        4.697116   -0.578416   -0.894383
     25          1           0        5.178659    1.880880   -0.886548
     26          7           0        2.470776   -1.763393   -0.029929
     27          8           0        3.342750   -2.506355   -0.475243
     28          8           0        1.384119   -2.131877    0.410564
 ---------------------------------------------------------------------

 SCF Done:  E(RHF) =  -868.334773342     A.U. after   16 cycles
 E2 =    -0.2602887154D+01 EUMP2 =    -0.87093766049581D+03

 The electronic state is 1-A.
 Alpha  occ. eigenvalues --  -20.60524 -20.60465 -20.60430 -20.60412 -15.85541
 Alpha  occ. eigenvalues --  -15.85495 -11.31410 -11.31166 -11.28091 -11.27981
 Alpha  occ. eigenvalues --  -11.27862 -11.27797 -11.27759 -11.27600 -11.27260
 Alpha  occ. eigenvalues --  -11.27091 -11.26928 -11.26835  -1.59536  -1.59519
 Alpha  occ. eigenvalues --   -1.39081  -1.39056  -1.19633  -1.19378  -1.08923
 Alpha  occ. eigenvalues --   -1.08721  -1.05138  -1.04824  -0.95683  -0.95494
 Alpha  occ. eigenvalues --   -0.86502  -0.86209  -0.82546  -0.82301  -0.77550
 Alpha  occ. eigenvalues --   -0.77258  -0.71805  -0.71652  -0.70885  -0.70825
 Alpha  occ. eigenvalues --   -0.70773  -0.70454  -0.65278  -0.65211  -0.65021
 Alpha  occ. eigenvalues --   -0.64785  -0.62609  -0.62055  -0.55592  -0.55333
 Alpha  occ. eigenvalues --   -0.53428  -0.53297  -0.53119  -0.52831  -0.48566
 Alpha  occ. eigenvalues --   -0.48527  -0.48488  -0.48400  -0.44453  -0.44301
 Alpha  occ. eigenvalues --   -0.37610  -0.37374  -0.36811  -0.36372
 Alpha virt. eigenvalues --    0.04998   0.05258   0.10689   0.11266   0.16337
 Alpha virt. eigenvalues --    0.16675   0.19449   0.22166   0.25291   0.26421
 Alpha virt. eigenvalues --    0.28219   0.29021   0.30220   0.31630   0.32036

 Mulliken charges:
               1
     1  C   -0.171401
     2  C   -0.221894
     3  C   -0.180546
     4  C    0.163217
     5  C   -0.169787
     6  C   -0.217215
     7  H    0.224452
     8  H    0.217815
     9  H    0.277566
    10  H    0.278460
    11  H    0.224791
    12  N    0.488554
    13  O   -0.460666
    14  O   -0.448299
    15  C   -0.171354
    16  C   -0.219924
    17  C   -0.173027
    18  C    0.158341
    19  C   -0.169845
    20  C   -0.218693
    21  H    0.223664
    22  H    0.214473
    23  H    0.277411
    24  H    0.276770
    25  H    0.223386
    26  N    0.486183
    27  O   -0.461465
    28  O   -0.450966
 Sum of Mulliken charges =  -0.00000

 Dipole moment (field-independent basis, Debye):
    X=              0.7081    Y=              9.9320    Z=             -0.2979  Tot=              9.9617
 Quadrupole moment (field-independent basis, Debye-Ang):
   XX=            -93.3328   YY=           -110.9690   ZZ=           -101.7229
   XY=             -1.3730   XZ=              1.3905   YZ=              0.2989

 Normal termination of Gaussian 16 at Thu May  6 21:07:40 2021.
