 Gaussian 16, Revision A.03,
 Gaussian 16:  EM64L-G16RevA.03 25-Dec-2016

 -------------
 #p 6-31g* mp2
 -------------

 ------------------------------------------------------
 Input file generated by CHIRIPA (05-May-2021 14:55:22)
 ------------------------------------------------------
 Symbolic Z-matrix:
 Charge =  0 Multiplicity = 1

                         Standard orientation:
 ---------------------------------------------------------------------
 Center     Atomic      Atomic             Coordinates (Angstroms)
 Number     Number       Type             X           Y           Z
 ---------------------------------------------------------------------
      1          6           0       -3.236812    2.530961    0.110923
      2          6           0       -2.006452    2.046288   -0.344959
      3          6           0       -1.820820    0.678778   -0.568578
      4          6           0       -2.891818   -0.179635   -0.324897
      5          6           0       -4.129639    0.272677    0.129528
      6          6           0       -4.292617    1.644172    0.346296
      7          1           0       -3.372216    3.594823    0.281975
      8          1           0       -1.184735    2.732657   -0.528602
      9          1           0       -0.878891    0.276579   -0.921315
     10          1           0       -4.930180   -0.436008    0.303652
     11          1           0       -5.249239    2.017746    0.700361
     12          7           0       -2.707289   -1.629466   -0.558006
     13          8           0       -3.666532   -2.365063   -0.335775
     14          8           0       -1.606907   -2.002793   -0.958533
     15          6           0        4.495726   -0.169282    0.301255
     16          6           0        5.105031    0.614190   -0.861889
     17          6           0        6.616686    0.417236   -0.979801
     18          1           0        4.981252    0.139367    1.237176
     19          1           0        4.718214   -1.237447    0.171193
     20          1           0        4.880275    1.680403   -0.730397
     21          1           0        4.617865    0.303779   -1.795126
     22          1           0        6.856507   -0.639585   -1.135414
     23          1           0        7.120408    0.744860   -0.064636
     24          1           0        7.031528    0.986204   -1.817680
     25          6           0        2.985184    0.017436    0.432127
     26          6           0        2.375879   -0.766035    1.595272
     27          6           0        0.864224   -0.569081    1.713183
     28          1           0        2.762696    1.085602    0.562189
     29          1           0        2.499658   -0.291212   -0.503792
     30          1           0        2.863046   -0.455624    2.528508
     31          1           0        2.600635   -1.832248    1.463780
     32          1           0        0.360501   -0.896705    0.798018
     33          1           0        0.624403    0.487740    1.868796
     34          1           0        0.449381   -1.138049    2.551063
 ---------------------------------------------------------------------

 SCF Done:  E(RHF) =  -669.535508173     A.U. after   15 cycles
 E2 =    -0.2092515658D+01 EUMP2 =    -0.67162802383177D+03

 The electronic state is 1-A.
 Alpha  occ. eigenvalues --  -20.60878 -20.60873 -15.85898 -11.31175 -11.27761
 Alpha  occ. eigenvalues --  -11.27739 -11.27499 -11.26751 -11.26737 -11.21642
 Alpha  occ. eigenvalues --  -11.21470 -11.21416 -11.21357 -11.21084 -11.20810
 Alpha  occ. eigenvalues --   -1.59932  -1.39492  -1.19358  -1.08769  -1.08411
 Alpha  occ. eigenvalues --   -1.04754  -1.03468  -0.95934  -0.95609  -0.86956
 Alpha  occ. eigenvalues --   -0.86153  -0.82454  -0.79554  -0.78260  -0.77500
 Alpha  occ. eigenvalues --   -0.72129  -0.71240  -0.70485  -0.65064  -0.64998
 Alpha  occ. eigenvalues --   -0.64758  -0.62138  -0.60838  -0.59295  -0.57547
 Alpha  occ. eigenvalues --   -0.55310  -0.55164  -0.53145  -0.52882  -0.52591
 Alpha  occ. eigenvalues --   -0.52270  -0.49884  -0.48881  -0.48875  -0.47849
 Alpha  occ. eigenvalues --   -0.46570  -0.45793  -0.45710  -0.44814  -0.43739
 Alpha  occ. eigenvalues --   -0.37334  -0.36316
 Alpha virt. eigenvalues --    0.04998   0.11265   0.16462   0.20871   0.22950
 Alpha virt. eigenvalues --    0.24132   0.26030   0.26891   0.27806   0.28010
 Alpha virt. eigenvalues --    0.29225   0.30103   0.31618   0.31911   0.32095

 Mulliken charges:
               1
     1  C   -0.170336
     2  C   -0.220741
     3  C   -0.166229
     4  C    0.158459
     5  C   -0.170587
     6  C   -0.218891
     7  H    0.225549
     8  H    0.223797
     9  H    0.276404
    10  H    0.275410
    11  H    0.223295
    12  N    0.489072
    13  O   -0.458898
    14  O   -0.461536
    15  C   -0.298082
    16  C   -0.299741
    17  C   -0.475732
    18  H    0.149522
    19  H    0.152454
    20  H    0.149254
    21  H    0.152500
    22  H    0.156605
    23  H    0.154964
    24  H    0.159842
    25  C   -0.299658
    26  C   -0.298360
    27  C   -0.488536
    28  H    0.143143
    29  H    0.150243
    30  H    0.150162
    31  H    0.157009
    32  H    0.170052
    33  H    0.146883
    34  H    0.162706
 Sum of Mulliken charges =  -0.00000

 Dipole moment (field-independent basis, Debye):
    X=             -0.7109    Y=              4.9893    Z=              0.7931  Tot=              5.1017
 Quadrupole moment (field-independent basis, Debye-Ang):
   XX=            -87.6198   YY=            -96.3312   ZZ=            -95.5002
   XY=            -14.0137   XZ=             -3.5004   YZ=             -1.6704

 Normal termination of Gaussian 16 at Thu May  6 03:02:41 2021.
