 Gaussian 16, Revision A.03,
 Gaussian 16:  EM64L-G16RevA.03 25-Dec-2016

 -------------
 #p 6-31g* mp2
 -------------

 ------------------------------------------------------
 Input file generated by CHIRIPA (05-May-2021 14:53:13)
 ------------------------------------------------------
 Symbolic Z-matrix:
 Charge =  0 Multiplicity = 1

                         Standard orientation:
 ---------------------------------------------------------------------
 Center     Atomic      Atomic             Coordinates (Angstroms)
 Number     Number       Type             X           Y           Z
 ---------------------------------------------------------------------
      1          6           0        3.639546    0.589684   -0.001469
      2          6           0        3.001765    1.775549   -0.726000
      3          6           0        3.986030    2.920834   -0.965454
      4          1           0        4.047314    0.931605    0.959656
      5          1           0        4.492183    0.224497   -0.590573
      6          1           0        2.149736    2.137515   -0.136387
      7          1           0        2.595299    1.430726   -1.685427
      8          1           0        4.831200    2.581733   -1.573154
      9          1           0        4.383105    3.292538   -0.015313
     10          1           0        3.509183    3.758059   -1.484619
     11          6           0        2.668105   -0.563228    0.245154
     12          6           0        3.305886   -1.749092    0.969685
     13          6           0        2.321621   -2.894378    1.209139
     14          1           0        1.815468   -0.198041    0.834258
     15          1           0        2.260337   -0.905149   -0.715971
     16          1           0        3.712352   -1.404270    1.929111
     17          1           0        4.157915   -2.111059    0.380072
     18          1           0        1.924545   -3.266082    0.258998
     19          1           0        1.476451   -2.555277    1.816839
     20          1           0        2.798468   -3.731603    1.728304
     21          6           0       -3.500259    1.966124    1.081904
     22          6           0       -2.117578    1.762841    1.140135
     23          6           0       -1.532510    0.671134    0.491739
     24          6           0       -2.363737   -0.201411   -0.208986
     25          6           0       -3.744537   -0.025831   -0.285493
     26          6           0       -4.307902    1.072715    0.370529
     27          1           0       -3.946324    2.816845    1.588555
     28          1           0       -1.487897    2.455050    1.691854
     29          1           0       -0.464909    0.489974    0.520504
     30          1           0       -4.346357   -0.732993   -0.843305
     31          1           0       -5.382006    1.228094    0.323597
     32          7           0       -1.755840   -1.360772   -0.899452
     33          8           0       -2.510001   -2.115020   -1.510180
     34          8           0       -0.536720   -1.493279   -0.816836
 ---------------------------------------------------------------------

 SCF Done:  E(RHF) =  -669.535310577     A.U. after   15 cycles
 E2 =    -0.2093032912D+01 EUMP2 =    -0.67162834348960D+03

 The electronic state is 1-A.
 Alpha  occ. eigenvalues --  -20.60839 -20.60831 -15.85874 -11.31202 -11.27778
 Alpha  occ. eigenvalues --  -11.27737 -11.27519 -11.26787 -11.26774 -11.21537
 Alpha  occ. eigenvalues --  -11.21058 -11.21034 -11.20941 -11.20732 -11.20082
 Alpha  occ. eigenvalues --   -1.59907  -1.39461  -1.19377  -1.08783  -1.08011
 Alpha  occ. eigenvalues --   -1.04775  -1.03082  -0.95627  -0.95502  -0.86519
 Alpha  occ. eigenvalues --   -0.86176  -0.82466  -0.79197  -0.77967  -0.77310
 Alpha  occ. eigenvalues --   -0.72094  -0.71220  -0.70496  -0.65039  -0.64846
 Alpha  occ. eigenvalues --   -0.64600  -0.62126  -0.60490  -0.58914  -0.57107
 Alpha  occ. eigenvalues --   -0.55293  -0.54781  -0.53108  -0.52888  -0.52233
 Alpha  occ. eigenvalues --   -0.51896  -0.49444  -0.48873  -0.48860  -0.47479
 Alpha  occ. eigenvalues --   -0.46252  -0.45323  -0.45136  -0.44828  -0.43337
 Alpha  occ. eigenvalues --   -0.37361  -0.36376
 Alpha virt. eigenvalues --    0.04998   0.11265   0.16485   0.20299   0.23233
 Alpha virt. eigenvalues --    0.24664   0.24963   0.27517   0.27798   0.28460
 Alpha virt. eigenvalues --    0.29794   0.31201   0.31794   0.32046   0.32521

 Mulliken charges:
               1
     1  C   -0.298285
     2  C   -0.298063
     3  C   -0.475260
     4  H    0.145545
     5  H    0.150613
     6  H    0.139921
     7  H    0.157106
     8  H    0.157109
     9  H    0.153598
    10  H    0.158513
    11  C   -0.300534
    12  C   -0.300063
    13  C   -0.474006
    14  H    0.137590
    15  H    0.171796
    16  H    0.145671
    17  H    0.150642
    18  H    0.171540
    19  H    0.151249
    20  H    0.153910
    21  C   -0.170196
    22  C   -0.222992
    23  C   -0.177580
    24  C    0.154103
    25  C   -0.169523
    26  C   -0.219269
    27  H    0.225695
    28  H    0.223735
    29  H    0.291774
    30  H    0.275608
    31  H    0.223473
    32  N    0.491875
    33  O   -0.459968
    34  O   -0.465331
 Sum of Mulliken charges =  -0.00000

 Dipole moment (field-independent basis, Debye):
    X=             -2.2313    Y=              3.9061    Z=              2.2254  Tot=              5.0188
 Quadrupole moment (field-independent basis, Debye-Ang):
   XX=            -81.2428   YY=            -97.3924   ZZ=            -95.4566
   XY=             -8.8297   XZ=             -4.4252   YZ=              0.1397

 Normal termination of Gaussian 16 at Thu May  6 15:23:43 2021.
