 Gaussian 16, Revision A.03,
 Gaussian 16:  EM64L-G16RevA.03 25-Dec-2016

 -------------
 #p 6-31g* mp2
 -------------

 ------------------------------------------------------
 Input file generated by CHIRIPA (05-May-2021 14:53:13)
 ------------------------------------------------------
 Symbolic Z-matrix:
 Charge =  0 Multiplicity = 1

                         Standard orientation:
 ---------------------------------------------------------------------
 Center     Atomic      Atomic             Coordinates (Angstroms)
 Number     Number       Type             X           Y           Z
 ---------------------------------------------------------------------
      1          6           0       -5.029453   -0.347653   -0.454022
      2          6           0       -6.250499    0.569807   -0.526801
      3          6           0       -7.149293    0.263752   -1.725256
      4          1           0       -4.450340   -0.251102   -1.382597
      5          1           0       -5.366832   -1.392158   -0.403232
      6          1           0       -5.910942    1.612348   -0.576044
      7          1           0       -6.826669    0.471203    0.402135
      8          1           0       -7.516143   -0.766700   -1.678465
      9          1           0       -6.595213    0.380928   -2.662201
     10          1           0       -8.016014    0.931277   -1.757906
     11          6           0       -4.121277   -0.053997    0.738753
     12          6           0       -2.900230   -0.971457    0.811532
     13          6           0       -2.001437   -0.665403    2.009987
     14          1           0       -3.783898    0.990508    0.687963
     15          1           0       -4.700389   -0.150548    1.667328
     16          1           0       -2.324061   -0.872854   -0.117404
     17          1           0       -3.239788   -2.013998    0.860774
     18          1           0       -2.555517   -0.782578    2.946932
     19          1           0       -1.634587    0.365050    1.963196
     20          1           0       -1.134716   -1.332927    2.042637
     21          6           0        1.328468    1.044676    0.618907
     22          6           0        1.491489   -0.320463    0.361339
     23          6           0        2.731425   -0.823456   -0.043760
     24          6           0        3.791642    0.071067   -0.181809
     25          6           0        3.660776    1.436384    0.067333
     26          6           0        2.411722    1.917205    0.471343
     27          1           0        0.361715    1.426800    0.933175
     28          1           0        0.651983   -1.000411    0.475109
     29          1           0        2.885475   -1.875716   -0.249761
     30          1           0        4.516209    2.089631   -0.054824
     31          1           0        2.288036    2.977870    0.670683
     32          7           0        5.109133   -0.449692   -0.610093
     33          8           0        6.027507    0.359119   -0.724330
     34          8           0        5.198462   -1.656813   -0.823434
 ---------------------------------------------------------------------

 SCF Done:  E(RHF) =  -669.534901262     A.U. after   15 cycles
 E2 =    -0.2091777185D+01 EUMP2 =    -0.67162667844699D+03

 The electronic state is 1-A.
 Alpha  occ. eigenvalues --  -20.60712 -20.60707 -15.85765 -11.31116 -11.27688
 Alpha  occ. eigenvalues --  -11.27674 -11.27399 -11.26698 -11.26640 -11.22757
 Alpha  occ. eigenvalues --  -11.22480 -11.22316 -11.22202 -11.22090 -11.21556
 Alpha  occ. eigenvalues --   -1.59788  -1.39342  -1.19285  -1.09306  -1.08680
 Alpha  occ. eigenvalues --   -1.04694  -1.04432  -0.96900  -0.95518  -0.87917
 Alpha  occ. eigenvalues --   -0.86079  -0.82356  -0.80510  -0.79058  -0.77407
 Alpha  occ. eigenvalues --   -0.71984  -0.71111  -0.70416  -0.65955  -0.64935
 Alpha  occ. eigenvalues --   -0.64735  -0.62147  -0.61762  -0.60258  -0.58484
 Alpha  occ. eigenvalues --   -0.56219  -0.55167  -0.53642  -0.53330  -0.53011
 Alpha  occ. eigenvalues --   -0.52667  -0.50817  -0.48832  -0.48740  -0.48717
 Alpha  occ. eigenvalues --   -0.47536  -0.46609  -0.46502  -0.44751  -0.44662
 Alpha  occ. eigenvalues --   -0.37259  -0.36290
 Alpha virt. eigenvalues --    0.05128   0.11316   0.16612   0.19016   0.22552
 Alpha virt. eigenvalues --    0.23989   0.24758   0.25759   0.26527   0.27418
 Alpha virt. eigenvalues --    0.29114   0.30005   0.31165   0.31519   0.32002

 Mulliken charges:
               1
     1  C   -0.299127
     2  C   -0.300232
     3  C   -0.476214
     4  H    0.150546
     5  H    0.151527
     6  H    0.151914
     7  H    0.153010
     8  H    0.156287
     9  H    0.155992
    10  H    0.161958
    11  C   -0.298070
    12  C   -0.303810
    13  C   -0.482376
    14  H    0.147600
    15  H    0.152694
    16  H    0.150196
    17  H    0.157391
    18  H    0.164559
    19  H    0.149291
    20  H    0.158035
    21  C   -0.174423
    22  C   -0.224447
    23  C   -0.171823
    24  C    0.158657
    25  C   -0.171070
    26  C   -0.219020
    27  H    0.228998
    28  H    0.231295
    29  H    0.275510
    30  H    0.275259
    31  H    0.223182
    32  N    0.488007
    33  O   -0.460669
    34  O   -0.460626
 Sum of Mulliken charges =  -0.00000

 Dipole moment (field-independent basis, Debye):
    X=             -4.9334    Y=              1.7907    Z=              1.5322  Tot=              5.4674
 Quadrupole moment (field-independent basis, Debye-Ang):
   XX=           -129.1239   YY=            -89.8436   ZZ=            -96.3480
   XY=              9.1389   XZ=              5.7061   YZ=             -0.5199

 Normal termination of Gaussian 16 at Thu May  6 05:47:13 2021.
