 Gaussian 16, Revision A.03,
 Gaussian 16:  EM64L-G16RevA.03 25-Dec-2016

 -------------
 #p 6-31g* mp2
 -------------

 ------------------------------------------------------
 Input file generated by CHIRIPA (05-May-2021 14:51:11)
 ------------------------------------------------------
 Symbolic Z-matrix:
 Charge =  0 Multiplicity = 1

                         Standard orientation:
 ---------------------------------------------------------------------
 Center     Atomic      Atomic             Coordinates (Angstroms)
 Number     Number       Type             X           Y           Z
 ---------------------------------------------------------------------
      1          6           0       -3.988951    0.465857   -0.472330
      2          6           0       -2.526699    0.022560   -0.414939
      3          6           0       -1.565024    1.087259   -0.943514
      4          1           0       -4.249587    0.714633   -1.510176
      5          1           0       -4.107759    1.390118    0.109924
      6          1           0       -2.410960   -0.901347   -0.995987
      7          1           0       -2.269569   -0.225372    0.622861
      8          1           0       -1.651170    2.008689   -0.358580
      9          1           0       -1.793365    1.328874   -1.986626
     10          1           0       -0.525188    0.749503   -0.893298
     11          6           0       -4.962487   -0.587855    0.052692
     12          6           0       -6.424738   -0.144559   -0.004699
     13          6           0       -7.386413   -1.209258    0.523875
     14          1           0       -4.843678   -1.512116   -0.529563
     15          1           0       -4.701850   -0.836631    1.090538
     16          1           0       -6.681869    0.103374   -1.042499
     17          1           0       -6.540478    0.779348    0.576348
     18          1           0       -7.158073   -1.450873    1.566987
     19          1           0       -7.300267   -2.130688   -0.061058
     20          1           0       -8.426250   -0.871502    0.473660
     21          6           0        3.821160    0.088259    0.602555
     22          6           0        2.925929    1.263448    0.208246
     23          6           0        1.620164    1.304447    1.002658
     24          1           0        3.270047   -0.850373    0.453594
     25          1           0        4.045952    0.151720    1.676258
     26          1           0        2.704026    1.198556   -0.864677
     27          1           0        3.479304    2.199381    0.357982
     28          1           0        1.824043    1.393240    2.074643
     29          1           0        1.044361    0.386728    0.845037
     30          1           0        0.995453    2.152299    0.704761
     31          6           0        5.130278    0.033739   -0.182916
     32          6           0        6.025508   -1.141449    0.211393
     33          6           0        7.331274   -1.182448   -0.583020
     34          1           0        4.905486   -0.029722   -1.256619
     35          1           0        5.681390    0.972371   -0.033956
     36          1           0        5.472134   -2.077383    0.061657
     37          1           0        6.247411   -1.076558    1.284316
     38          1           0        7.907076   -0.264730   -0.425399
     39          1           0        7.127395   -1.271242   -1.655004
     40          1           0        7.955985   -2.030301   -0.285122
 ---------------------------------------------------------------------

 SCF Done:  E(RHF) =  -470.732313779     A.U. after   11 cycles
 E2 =    -0.1582782954D+01 EUMP2 =    -0.47231509673285D+03

 The electronic state is 1-A.
 Alpha  occ. eigenvalues --  -11.21599 -11.21595 -11.21583 -11.21560 -11.21401
 Alpha  occ. eigenvalues --  -11.21377 -11.21342 -11.21317 -11.21069 -11.21057
 Alpha  occ. eigenvalues --  -11.20999 -11.20931  -1.08430  -1.08394  -1.03558
 Alpha  occ. eigenvalues --   -1.03460  -0.96057  -0.95858  -0.87108  -0.86842
 Alpha  occ. eigenvalues --   -0.79639  -0.79505  -0.78238  -0.78214  -0.65076
 Alpha  occ. eigenvalues --   -0.65022  -0.61036  -0.60865  -0.59485  -0.59163
 Alpha  occ. eigenvalues --   -0.57584  -0.57574  -0.55347  -0.55151  -0.52874
 Alpha  occ. eigenvalues --   -0.52460  -0.52376  -0.52299  -0.49945  -0.49788
 Alpha  occ. eigenvalues --   -0.47931  -0.47834  -0.46619  -0.46576  -0.45779
 Alpha  occ. eigenvalues --   -0.45754  -0.45706  -0.45680  -0.43854  -0.43619
 Alpha virt. eigenvalues --    0.21797   0.23011   0.23547   0.25065   0.26495
 Alpha virt. eigenvalues --    0.26562   0.27105   0.27390   0.27627   0.29039
 Alpha virt. eigenvalues --    0.29666   0.31153   0.31425   0.32090   0.32262

 Mulliken charges:
               1
     1  C   -0.298253
     2  C   -0.300595
     3  C   -0.479083
     4  H    0.149590
     5  H    0.149572
     6  H    0.151193
     7  H    0.152286
     8  H    0.154379
     9  H    0.153557
    10  H    0.167757
    11  C   -0.298266
    12  C   -0.299627
    13  C   -0.475685
    14  H    0.149351
    15  H    0.149651
    16  H    0.151876
    17  H    0.151923
    18  H    0.155171
    19  H    0.155115
    20  H    0.160188
    21  C   -0.298238
    22  C   -0.301760
    23  C   -0.478898
    24  H    0.149507
    25  H    0.149628
    26  H    0.152321
    27  H    0.152271
    28  H    0.154921
    29  H    0.155980
    30  H    0.164145
    31  C   -0.298262
    32  C   -0.299646
    33  C   -0.475703
    34  H    0.149508
    35  H    0.149686
    36  H    0.151910
    37  H    0.151922
    38  H    0.155186
    39  H    0.155183
    40  H    0.160238
 Sum of Mulliken charges =  -0.00000

 Dipole moment (field-independent basis, Debye):
    X=              0.0195    Y=              0.0127    Z=              0.0094  Tot=              0.0251
 Quadrupole moment (field-independent basis, Debye-Ang):
   XX=            -86.3918   YY=            -84.7625   ZZ=            -83.7968
   XY=             -0.0674   XZ=              1.1214   YZ=              0.9777

 Normal termination of Gaussian 16 at Wed May  5 18:16:26 2021.
