 Gaussian 16, Revision A.03,
 Gaussian 16:  EM64L-G16RevA.03 25-Dec-2016

 -------------
 #p 6-31g* mp2
 -------------

 ------------------------------------------------------
 Input file generated by CHIRIPA (05-May-2021 14:51:10)
 ------------------------------------------------------
 Symbolic Z-matrix:
 Charge =  0 Multiplicity = 1

                         Standard orientation:
 ---------------------------------------------------------------------
 Center     Atomic      Atomic             Coordinates (Angstroms)
 Number     Number       Type             X           Y           Z
 ---------------------------------------------------------------------
      1          6           0       -3.534436   -0.262268   -0.356967
      2          6           0       -2.322236   -0.182613    0.571587
      3          6           0       -0.995406   -0.170628   -0.188131
      4          1           0       -3.456011   -1.167105   -0.975080
      5          1           0       -3.514531    0.591389   -1.048536
      6          1           0       -2.345169   -1.035414    1.262110
      7          1           0       -2.403653    0.722039    1.187697
      8          1           0       -0.946700    0.688624   -0.864826
      9          1           0       -0.887885   -1.078815   -0.789990
     10          1           0       -0.142180   -0.113313    0.494937
     11          6           0       -4.868212   -0.275120    0.387751
     12          6           0       -6.080411   -0.354775   -0.540803
     13          6           0       -7.407242   -0.366761    0.218915
     14          1           0       -4.888117   -1.128777    1.079320
     15          1           0       -4.946637    0.629717    1.005864
     16          1           0       -5.998995   -1.259428   -1.156913
     17          1           0       -6.057478    0.498026   -1.231325
     18          1           0       -7.514763    0.541427    0.820774
     19          1           0       -7.455947   -1.226012    0.895610
     20          1           0       -8.260467   -0.424076   -0.464153
     21          6           0        3.755271    0.793389    0.315008
     22          6           0        2.578609    1.226789   -0.559988
     23          6           0        1.695452    2.276834    0.114723
     24          1           0        3.371115    0.396154    1.264520
     25          1           0        4.360152    1.675416    0.567083
     26          1           0        1.976904    0.344001   -0.811481
     27          1           0        2.965604    1.622862   -1.507605
     28          1           0        2.276117    3.174419    0.350876
     29          1           0        1.281800    1.888293    1.050954
     30          1           0        0.860520    2.572331   -0.528262
     31          6           0        4.647377   -0.256001   -0.345792
     32          6           0        5.824038   -0.689402    0.529203
     33          6           0        6.707196   -1.739445   -0.145507
     34          1           0        4.042496   -1.138028   -0.597868
     35          1           0        5.031532    0.141234   -1.295305
     36          1           0        5.437043   -1.085474    1.476821
     37          1           0        6.425744    0.193387    0.780697
     38          1           0        7.120847   -1.350905   -1.081739
     39          1           0        6.126530   -2.637031   -0.381660
     40          1           0        7.542128   -2.034943    0.497478
 ---------------------------------------------------------------------

 SCF Done:  E(RHF) =  -470.732181997     A.U. after   11 cycles
 E2 =    -0.1583384830D+01 EUMP2 =    -0.47231556682621D+03

 The electronic state is 1-A.
 Alpha  occ. eigenvalues --  -11.21601 -11.21590 -11.21575 -11.21485 -11.21403
 Alpha  occ. eigenvalues --  -11.21363 -11.21344 -11.21303 -11.21071 -11.21051
 Alpha  occ. eigenvalues --  -11.21020 -11.20979  -1.08436  -1.08375  -1.03581
 Alpha  occ. eigenvalues --   -1.03429  -0.96075  -0.95842  -0.87064  -0.86887
 Alpha  occ. eigenvalues --   -0.79607  -0.79532  -0.78251  -0.78184  -0.65085
 Alpha  occ. eigenvalues --   -0.65013  -0.61092  -0.60859  -0.59368  -0.59217
 Alpha  occ. eigenvalues --   -0.57631  -0.57517  -0.55412  -0.55092  -0.52684
 Alpha  occ. eigenvalues --   -0.52556  -0.52453  -0.52281  -0.49998  -0.49760
 Alpha  occ. eigenvalues --   -0.47941  -0.47819  -0.46623  -0.46562  -0.45801
 Alpha  occ. eigenvalues --   -0.45736  -0.45706  -0.45645  -0.43771  -0.43697
 Alpha virt. eigenvalues --    0.21493   0.23009   0.23586   0.25220   0.26198
 Alpha virt. eigenvalues --    0.26515   0.26735   0.27609   0.27702   0.29032
 Alpha virt. eigenvalues --    0.29599   0.31052   0.31348   0.32082   0.32378

 Mulliken charges:
               1
     1  C   -0.298556
     2  C   -0.300905
     3  C   -0.477145
     4  H    0.149582
     5  H    0.149465
     6  H    0.151474
     7  H    0.152223
     8  H    0.157158
     9  H    0.153676
    10  H    0.163565
    11  C   -0.298274
    12  C   -0.299617
    13  C   -0.475699
    14  H    0.149464
    15  H    0.149705
    16  H    0.151903
    17  H    0.151924
    18  H    0.155202
    19  H    0.155158
    20  H    0.160247
    21  C   -0.298109
    22  C   -0.305834
    23  C   -0.474765
    24  H    0.148622
    25  H    0.149430
    26  H    0.159224
    27  H    0.151558
    28  H    0.154273
    29  H    0.154600
    30  H    0.160656
    31  C   -0.298212
    32  C   -0.299595
    33  C   -0.475677
    34  H    0.149571
    35  H    0.149624
    36  H    0.151792
    37  H    0.151873
    38  H    0.155149
    39  H    0.155130
    40  H    0.160139
 Sum of Mulliken charges =  -0.00000

 Dipole moment (field-independent basis, Debye):
    X=             -0.0177    Y=             -0.0015    Z=             -0.0121  Tot=              0.0215
 Quadrupole moment (field-independent basis, Debye-Ang):
   XX=            -86.2812   YY=            -83.8245   ZZ=            -84.9413
   XY=              0.8595   XZ=              0.4126   YZ=             -0.6308

 Normal termination of Gaussian 16 at Wed May  5 19:48:48 2021.
