 Gaussian 16, Revision A.03,
 Gaussian 16:  EM64L-G16RevA.03 25-Dec-2016

 -------------
 #p 6-31g* mp2
 -------------

 ------------------------------------------------------
 Input file generated by CHIRIPA (05-May-2021 14:55:23)
 ------------------------------------------------------
 Symbolic Z-matrix:
 Charge =  0 Multiplicity = 1

                         Standard orientation:
 ---------------------------------------------------------------------
 Center     Atomic      Atomic             Coordinates (Angstroms)
 Number     Number       Type             X           Y           Z
 ---------------------------------------------------------------------
      1          6           0        2.612752    2.214733   -0.378284
      2          6           0        1.931577    1.156706    0.232536
      3          6           0        2.546806   -0.089237    0.386377
      4          6           0        3.849945   -0.242751   -0.084316
      5          6           0        4.554832    0.792067   -0.697159
      6          6           0        3.919901    2.029363   -0.840367
      7          1           0        2.127175    3.179253   -0.493662
      8          1           0        0.916355    1.297783    0.592349
      9          1           0        2.042595   -0.925374    0.855488
     10          1           0        5.566082    0.621053   -1.045793
     11          1           0        4.451335    2.849254   -1.315133
     12          7           0        4.511689   -1.557198    0.072920
     13          8           0        5.660410   -1.666793   -0.350241
     14          8           0        3.869113   -2.452978    0.616346
     15          6           0       -5.495589    0.141651   -0.126303
     16          6           0       -6.222399   -1.160761   -0.463132
     17          6           0       -7.636126   -0.927809   -0.996898
     18          1           0       -6.082046    0.699922    0.616224
     19          1           0       -5.449811    0.771058   -1.025829
     20          1           0       -6.265575   -1.788113    0.436413
     21          1           0       -5.634049   -1.716085   -1.204802
     22          1           0       -7.608738   -0.322676   -1.908856
     23          1           0       -8.243852   -0.395113   -0.258315
     24          1           0       -8.137438   -1.872071   -1.231240
     25          6           0       -4.081068   -0.074799    0.408493
     26          6           0       -3.354257    1.227613    0.745321
     27          6           0       -1.940532    0.994661    1.279088
     28          1           0       -4.126846   -0.704206    1.308019
     29          1           0       -3.494611   -0.633070   -0.334034
     30          1           0       -3.942608    1.782938    1.486991
     31          1           0       -3.311082    1.854965   -0.154223
     32          1           0       -1.332806    0.461965    0.540505
     33          1           0       -1.967919    0.389529    2.191045
     34          1           0       -1.439219    1.938923    1.513429
 ---------------------------------------------------------------------

 SCF Done:  E(RHF) =  -669.535409166     A.U. after   15 cycles
 E2 =    -0.2091094966D+01 EUMP2 =    -0.67162650413201D+03

 The electronic state is 1-A.
 Alpha  occ. eigenvalues --  -20.60695 -20.60690 -15.85746 -11.31092 -11.27662
 Alpha  occ. eigenvalues --  -11.27634 -11.27385 -11.26680 -11.26565 -11.22426
 Alpha  occ. eigenvalues --  -11.22240 -11.21977 -11.21943 -11.21823 -11.21350
 Alpha  occ. eigenvalues --   -1.59771  -1.39325  -1.19256  -1.09004  -1.08656
 Alpha  occ. eigenvalues --   -1.04655  -1.04157  -0.96639  -0.95497  -0.87680
 Alpha  occ. eigenvalues --   -0.86048  -0.82329  -0.80241  -0.78767  -0.77375
 Alpha  occ. eigenvalues --   -0.71965  -0.71093  -0.70372  -0.65641  -0.64905
 Alpha  occ. eigenvalues --   -0.64673  -0.62074  -0.61497  -0.60031  -0.58212
 Alpha  occ. eigenvalues --   -0.55938  -0.55155  -0.53459  -0.53077  -0.52982
 Alpha  occ. eigenvalues --   -0.52620  -0.50538  -0.48722  -0.48721  -0.48539
 Alpha  occ. eigenvalues --   -0.47229  -0.46321  -0.46211  -0.44734  -0.44392
 Alpha  occ. eigenvalues --   -0.37242  -0.36255
 Alpha virt. eigenvalues --    0.05144   0.11375   0.16613   0.20721   0.22464
 Alpha virt. eigenvalues --    0.23827   0.25817   0.26234   0.26930   0.28127
 Alpha virt. eigenvalues --    0.28919   0.30313   0.30646   0.31155   0.32032

 Mulliken charges:
               1
     1  C   -0.173398
     2  C   -0.228043
     3  C   -0.174587
     4  C    0.158893
     5  C   -0.171568
     6  C   -0.218338
     7  H    0.225317
     8  H    0.239175
     9  H    0.275454
    10  H    0.275165
    11  H    0.222836
    12  N    0.488089
    13  O   -0.460851
    14  O   -0.460602
    15  C   -0.298894
    16  C   -0.300249
    17  C   -0.476049
    18  H    0.150440
    19  H    0.149818
    20  H    0.153049
    21  H    0.153059
    22  H    0.155365
    23  H    0.155498
    24  H    0.161804
    25  C   -0.299824
    26  C   -0.298700
    27  C   -0.484699
    28  H    0.151625
    29  H    0.151295
    30  H    0.155259
    31  H    0.152588
    32  H    0.153032
    33  H    0.161878
    34  H    0.156162
 Sum of Mulliken charges =  -0.00000

 Dipole moment (field-independent basis, Debye):
    X=             -2.6056    Y=              4.6073    Z=             -0.5331  Tot=              5.3198
 Quadrupole moment (field-independent basis, Debye-Ang):
   XX=           -109.8109   YY=            -97.0070   ZZ=            -93.5854
   XY=             20.3249   XZ=             -4.9018   YZ=             -1.2639

 Normal termination of Gaussian 16 at Wed May  5 20:44:53 2021.
