 Gaussian 16, Revision A.03,
 Gaussian 16:  EM64L-G16RevA.03 25-Dec-2016

 -------------
 #p 6-31g* mp2
 -------------

 ------------------------------------------------------
 Input file generated by CHIRIPA (05-May-2021 14:57:25)
 ------------------------------------------------------
 Symbolic Z-matrix:
 Charge =  0 Multiplicity = 1

                         Standard orientation:
 ---------------------------------------------------------------------
 Center     Atomic      Atomic             Coordinates (Angstroms)
 Number     Number       Type             X           Y           Z
 ---------------------------------------------------------------------
      1          6           0       -1.732613    1.808260    0.991024
      2          6           0       -1.672809    1.331611   -0.322654
      3          6           0       -2.596827    0.386273   -0.777710
      4          6           0       -3.571779   -0.062740    0.111753
      5          6           0       -3.657392    0.392981    1.426393
      6          6           0       -2.722968    1.338252    1.859824
      7          1           0       -1.010772    2.542595    1.336123
      8          1           0       -0.904775    1.694843   -0.999581
      9          1           0       -2.573495    0.000346   -1.789607
     10          1           0       -4.434469    0.012116    2.077938
     11          1           0       -2.771820    1.706650    2.880579
     12          7           0       -4.555504   -1.063491   -0.358548
     13          8           0       -5.404760   -1.443219    0.444700
     14          8           0       -4.458663   -1.449203   -1.521512
     15          6           0        2.063108    1.712550   -1.311512
     16          6           0        3.178435    2.046366   -0.536185
     17          6           0        3.931884    1.049139    0.090233
     18          6           0        3.539829   -0.277639   -0.080769
     19          6           0        2.433695   -0.642049   -0.846906
     20          6           0        1.694946    0.371772   -1.464129
     21          1           0        1.483520    2.493666   -1.794558
     22          1           0        3.466689    3.086794   -0.415909
     23          1           0        4.799830    1.279491    0.696061
     24          1           0        2.170954   -1.688040   -0.948338
     25          1           0        0.829239    0.109584   -2.065672
     26          7           0        4.329690   -1.342142    0.577525
     27          8           0        3.963514   -2.503571    0.411282
     28          8           0        5.300002   -0.994915    1.247274
 ---------------------------------------------------------------------

 SCF Done:  E(RHF) =  -868.335565800     A.U. after   16 cycles
 E2 =    -0.2601642291D+01 EUMP2 =    -0.87093720809103D+03

 The electronic state is 1-A.
 Alpha  occ. eigenvalues --  -20.61305 -20.61295 -20.61190 -20.61177 -15.86361
 Alpha  occ. eigenvalues --  -15.86245 -11.31925 -11.31708 -11.28493 -11.28475
 Alpha  occ. eigenvalues --  -11.28390 -11.28352 -11.28239 -11.28036 -11.27634
 Alpha  occ. eigenvalues --  -11.27606 -11.27392 -11.27265  -1.60374  -1.60259
 Alpha  occ. eigenvalues --   -1.39921  -1.39811  -1.20131  -1.19889  -1.09533
 Alpha  occ. eigenvalues --   -1.09255  -1.05560  -1.05316  -0.96317  -0.96079
 Alpha  occ. eigenvalues --   -0.87016  -0.86675  -0.83126  -0.82930  -0.78150
 Alpha  occ. eigenvalues --   -0.77937  -0.72579  -0.72461  -0.71699  -0.71584
 Alpha  occ. eigenvalues --   -0.71312  -0.70989  -0.65894  -0.65711  -0.65542
 Alpha  occ. eigenvalues --   -0.65174  -0.62969  -0.62572  -0.56147  -0.55799
 Alpha  occ. eigenvalues --   -0.54018  -0.53688  -0.53569  -0.53295  -0.49354
 Alpha  occ. eigenvalues --   -0.49318  -0.49227  -0.49210  -0.45281  -0.45196
 Alpha  occ. eigenvalues --   -0.38267  -0.37805  -0.37260  -0.36714
 Alpha virt. eigenvalues --    0.04357   0.04597   0.10115   0.11046   0.15647
 Alpha virt. eigenvalues --    0.16102   0.18719   0.22033   0.25127   0.25868
 Alpha virt. eigenvalues --    0.28002   0.28721   0.29976   0.30936   0.32489

 Mulliken charges:
               1
     1  C   -0.171025
     2  C   -0.213431
     3  C   -0.174844
     4  C    0.159832
     5  C   -0.169883
     6  C   -0.217839
     7  H    0.225605
     8  H    0.213750
     9  H    0.272238
    10  H    0.277846
    11  H    0.225918
    12  N    0.488141
    13  O   -0.457924
    14  O   -0.460898
    15  C   -0.179135
    16  C   -0.219225
    17  C   -0.170755
    18  C    0.159398
    19  C   -0.169858
    20  C   -0.215049
    21  H    0.221168
    22  H    0.224724
    23  H    0.277831
    24  H    0.280185
    25  H    0.221309
    26  N    0.487817
    27  O   -0.456991
    28  O   -0.458905
 Sum of Mulliken charges =  -0.00000

 Dipole moment (field-independent basis, Debye):
    X=              0.7805    Y=              7.1114    Z=             -0.4497  Tot=              7.1682
 Quadrupole moment (field-independent basis, Debye-Ang):
   XX=           -146.4123   YY=           -106.0621   ZZ=           -100.0687
   XY=              3.5444   XZ=            -14.7455   YZ=              2.4747

 Normal termination of Gaussian 16 at Thu May  6 21:17:34 2021.
