 Gaussian 16, Revision A.03,
 Gaussian 16:  EM64L-G16RevA.03 25-Dec-2016

 -------------
 #p 6-31g* mp2
 -------------

 ------------------------------------------------------
 Input file generated by CHIRIPA (05-May-2021 14:57:25)
 ------------------------------------------------------
 Symbolic Z-matrix:
 Charge =  0 Multiplicity = 1

                         Standard orientation:
 ---------------------------------------------------------------------
 Center     Atomic      Atomic             Coordinates (Angstroms)
 Number     Number       Type             X           Y           Z
 ---------------------------------------------------------------------
      1          6           0        1.895607    0.262429    1.238696
      2          6           0        2.347784    1.230216    0.335675
      3          6           0        3.558583    1.058508   -0.341842
      4          6           0        4.295125   -0.098193   -0.091172
      5          6           0        3.871366   -1.080514    0.802564
      6          6           0        2.657498   -0.887819    1.468853
      7          1           0        0.953837    0.403968    1.760647
      8          1           0        1.758174    2.124501    0.154957
      9          1           0        3.932251    1.791773   -1.046195
     10          1           0        4.481092   -1.961573    0.961897
     11          1           0        2.308806   -1.641087    2.169599
     12          7           0        5.578569   -0.291082   -0.802486
     13          8           0        6.208911   -1.318926   -0.564071
     14          8           0        5.929887    0.589229   -1.584960
     15          6           0       -2.256781    1.540623    0.898785
     16          6           0       -2.296465    0.182719    1.232017
     17          6           0       -3.304048   -0.643527    0.725419
     18          6           0       -4.260209   -0.076119   -0.115472
     19          6           0       -4.247599    1.273074   -0.465913
     20          6           0       -3.230758    2.080515    0.052375
     21          1           0       -1.470471    2.175166    1.296862
     22          1           0       -1.541379   -0.239296    1.889126
     23          1           0       -3.358532   -1.698052    0.967132
     24          1           0       -5.014181    1.665010   -1.123299
     25          1           0       -3.202429    3.134737   -0.208122
     26          7           0       -5.331792   -0.940874   -0.657972
     27          8           0       -6.162456   -0.416715   -1.396817
     28          8           0       -5.320744   -2.126454   -0.334068
 ---------------------------------------------------------------------

 SCF Done:  E(RHF) =  -868.335889951     A.U. after   16 cycles
 E2 =    -0.2600245030D+01 EUMP2 =    -0.87093613498168D+03

 The electronic state is 1-A.
 Alpha  occ. eigenvalues --  -20.61364 -20.61357 -20.61243 -20.61237 -15.86424
 Alpha  occ. eigenvalues --  -15.86302 -11.31971 -11.31820 -11.28593 -11.28534
 Alpha  occ. eigenvalues --  -11.28466 -11.28409 -11.28388 -11.28325 -11.27759
 Alpha  occ. eigenvalues --  -11.27614 -11.27537 -11.27490  -1.60434  -1.60314
 Alpha  occ. eigenvalues --   -1.39983  -1.39863  -1.20182  -1.20023  -1.09574
 Alpha  occ. eigenvalues --   -1.09418  -1.05614  -1.05444  -0.96370  -0.96220
 Alpha  occ. eigenvalues --   -0.87030  -0.86856  -0.83191  -0.83046  -0.78188
 Alpha  occ. eigenvalues --   -0.78037  -0.72643  -0.72520  -0.71758  -0.71638
 Alpha  occ. eigenvalues --   -0.71442  -0.71149  -0.65854  -0.65692  -0.65689
 Alpha  occ. eigenvalues --   -0.65443  -0.62963  -0.62786  -0.56200  -0.56069
 Alpha  occ. eigenvalues --   -0.53928  -0.53772  -0.53698  -0.53557  -0.49416
 Alpha  occ. eigenvalues --   -0.49382  -0.49291  -0.49262  -0.45347  -0.45234
 Alpha  occ. eigenvalues --   -0.38247  -0.38008  -0.37192  -0.37029
 Alpha virt. eigenvalues --    0.04351   0.04488   0.10383   0.10613   0.15748
 Alpha virt. eigenvalues --    0.15912   0.17333   0.22250   0.24502   0.25178
 Alpha virt. eigenvalues --    0.27624   0.29184   0.30063   0.30679   0.32856

 Mulliken charges:
               1
     1  C   -0.170141
     2  C   -0.217327
     3  C   -0.169708
     4  C    0.159460
     5  C   -0.169562
     6  C   -0.218691
     7  H    0.216084
     8  H    0.219320
     9  H    0.277431
    10  H    0.278118
    11  H    0.223518
    12  N    0.487921
    13  O   -0.458356
    14  O   -0.458853
    15  C   -0.172102
    16  C   -0.217938
    17  C   -0.169187
    18  C    0.159617
    19  C   -0.169436
    20  C   -0.217715
    21  H    0.218597
    22  H    0.215676
    23  H    0.277649
    24  H    0.278620
    25  H    0.225560
    26  N    0.487932
    27  O   -0.457882
    28  O   -0.458606
 Sum of Mulliken charges =  -0.00000

 Dipole moment (field-independent basis, Debye):
    X=             -0.7944    Y=              3.6474    Z=              4.2311  Tot=              5.6425
 Quadrupole moment (field-independent basis, Debye-Ang):
   XX=           -174.2535   YY=            -98.7742   ZZ=           -104.8883
   XY=            -12.5004   XZ=              4.1773   YZ=             -5.6238

 Normal termination of Gaussian 16 at Thu May  6 14:42:49 2021.
