 Gaussian 16, Revision A.03,
 Gaussian 16:  EM64L-G16RevA.03 25-Dec-2016

 -------------
 #p 6-31g* mp2
 -------------

 ------------------------------------------------------
 Input file generated by CHIRIPA (05-May-2021 14:55:21)
 ------------------------------------------------------
 Symbolic Z-matrix:
 Charge =  0 Multiplicity = 1

                         Standard orientation:
 ---------------------------------------------------------------------
 Center     Atomic      Atomic             Coordinates (Angstroms)
 Number     Number       Type             X           Y           Z
 ---------------------------------------------------------------------
      1          6           0       -3.886799   -1.947333   -1.016662
      2          6           0       -2.991997   -2.317623   -0.007338
      3          6           0       -2.284791   -1.345456    0.706314
      4          6           0       -2.497715   -0.006272    0.382987
      5          6           0       -3.382339    0.394300   -0.617149
      6          6           0       -4.078776   -0.594937   -1.317815
      7          1           0       -4.431991   -2.709165   -1.566000
      8          1           0       -2.840903   -3.367148    0.228695
      9          1           0       -1.585986   -1.604202    1.492533
     10          1           0       -3.511855    1.448551   -0.829749
     11          1           0       -4.773054   -0.304439   -2.101163
     12          7           0       -1.754728    1.031953    1.131625
     13          8           0       -1.960130    2.204995    0.827619
     14          8           0       -0.981041    0.653013    2.008238
     15          6           0        3.067730    0.738551   -0.822144
     16          6           0        2.033805    1.671036   -0.190120
     17          6           0        1.470656    2.688675   -1.182627
     18          1           0        3.887866    1.339305   -1.238576
     19          1           0        2.606322    0.210461   -1.668087
     20          1           0        2.496626    2.196184    0.655239
     21          1           0        1.216128    1.067982    0.225025
     22          1           0        0.983939    2.180266   -2.021213
     23          1           0        2.271713    3.314878   -1.588554
     24          1           0        0.733471    3.345071   -0.709800
     25          6           0        3.639901   -0.284447    0.157561
     26          6           0        4.673825   -1.216933   -0.474463
     27          6           0        5.236974   -2.234572    0.518043
     28          1           0        4.101308    0.243643    1.003504
     29          1           0        2.819764   -0.885200    0.573994
     30          1           0        5.491503   -0.613878   -0.889608
     31          1           0        4.211004   -1.742081   -1.319823
     32          1           0        4.435917   -2.860775    0.923972
     33          1           0        5.723691   -1.726163    1.356630
     34          1           0        5.974159   -2.890967    0.045217
 ---------------------------------------------------------------------

 SCF Done:  E(RHF) =  -669.536140739     A.U. after   15 cycles
 E2 =    -0.2091883043D+01 EUMP2 =    -0.67162802378131D+03

 The electronic state is 1-A.
 Alpha  occ. eigenvalues --  -20.60976 -20.60967 -15.85983 -11.31307 -11.27872
 Alpha  occ. eigenvalues --  -11.27864 -11.27606 -11.26875 -11.26865 -11.21200
 Alpha  occ. eigenvalues --  -11.20795 -11.20765 -11.20669 -11.20504 -11.20050
 Alpha  occ. eigenvalues --   -1.60025  -1.39580  -1.19475  -1.08880  -1.07766
 Alpha  occ. eigenvalues --   -1.04870  -1.02835  -0.95723  -0.95309  -0.86333
 Alpha  occ. eigenvalues --   -0.86270  -0.82556  -0.78913  -0.77612  -0.77532
 Alpha  occ. eigenvalues --   -0.72208  -0.71350  -0.70583  -0.65130  -0.64872
 Alpha  occ. eigenvalues --   -0.64413  -0.62217  -0.60249  -0.58679  -0.56871
 Alpha  occ. eigenvalues --   -0.55374  -0.54632  -0.53202  -0.52961  -0.51977
 Alpha  occ. eigenvalues --   -0.51732  -0.49302  -0.48977  -0.48967  -0.47238
 Alpha  occ. eigenvalues --   -0.46013  -0.45316  -0.45047  -0.44601  -0.43073
 Alpha  occ. eigenvalues --   -0.37453  -0.36471
 Alpha virt. eigenvalues --    0.04882   0.11180   0.16345   0.21302   0.23428
 Alpha virt. eigenvalues --    0.24932   0.27105   0.27312   0.27923   0.28460
 Alpha virt. eigenvalues --    0.28639   0.30873   0.32010   0.32261   0.32563

 Mulliken charges:
               1
     1  C   -0.170545
     2  C   -0.218577
     3  C   -0.171322
     4  C    0.157986
     5  C   -0.170581
     6  C   -0.218617
     7  H    0.226089
     8  H    0.223886
     9  H    0.275768
    10  H    0.276117
    11  H    0.223965
    12  N    0.487479
    13  O   -0.458472
    14  O   -0.457769
    15  C   -0.298016
    16  C   -0.301267
    17  C   -0.479958
    18  H    0.147140
    19  H    0.144129
    20  H    0.154736
    21  H    0.159470
    22  H    0.146537
    23  H    0.149838
    24  H    0.174863
    25  C   -0.296937
    26  C   -0.299005
    27  C   -0.474900
    28  H    0.151163
    29  H    0.149178
    30  H    0.151342
    31  H    0.148967
    32  H    0.153169
    33  H    0.155981
    34  H    0.158161
 Sum of Mulliken charges =  -0.00000

 Dipole moment (field-independent basis, Debye):
    X=             -2.8468    Y=             -3.5796    Z=             -2.4891  Tot=              5.2071
 Quadrupole moment (field-independent basis, Debye-Ang):
   XX=            -81.4089   YY=            -92.5907   ZZ=            -96.3999
   XY=              8.5510   XZ=              7.4705   YZ=             -2.6908

 Normal termination of Gaussian 16 at Thu May  6 02:59:52 2021.
