 Gaussian 16, Revision A.03,
 Gaussian 16:  EM64L-G16RevA.03 25-Dec-2016

 -------------
 #p 6-31g* mp2
 -------------

 ------------------------------------------------------
 Input file generated by CHIRIPA (05-May-2021 14:51:13)
 ------------------------------------------------------
 Symbolic Z-matrix:
 Charge =  0 Multiplicity = 1

                         Standard orientation:
 ---------------------------------------------------------------------
 Center     Atomic      Atomic             Coordinates (Angstroms)
 Number     Number       Type             X           Y           Z
 ---------------------------------------------------------------------
      1          6           0        2.434253    1.028124   -0.332209
      2          6           0        2.242632    2.215203    0.612306
      3          6           0        1.002492    3.043953    0.276124
      4          1           0        2.506801    1.397043   -1.364479
      5          1           0        1.542102    0.387994   -0.291027
      6          1           0        3.135456    2.852168    0.570394
      7          1           0        2.170724    1.843430    1.642467
      8          1           0        0.099444    2.427978    0.336795
      9          1           0        1.069658    3.442447   -0.741369
     10          1           0        0.884725    3.887311    0.963684
     11          6           0        3.669876    0.190007   -0.008905
     12          6           0        3.861496   -0.997072   -0.953421
     13          6           0        5.101637   -1.825822   -0.617238
     14          1           0        4.562026    0.830137   -0.050087
     15          1           0        3.597328   -0.178912    1.023364
     16          1           0        3.933405   -0.625300   -1.983581
     17          1           0        2.968672   -1.634037   -0.911509
     18          1           0        5.034471   -2.224317    0.400255
     19          1           0        6.004684   -1.209847   -0.677909
     20          1           0        5.219403   -2.669180   -1.304798
     21          6           0       -2.603481   -1.171731    0.426706
     22          6           0       -1.189245   -0.707880    0.777084
     23          6           0       -0.303793   -1.844834    1.288067
     24          1           0       -3.063934   -1.626308    1.314562
     25          1           0       -2.544609   -1.962220   -0.334252
     26          1           0       -1.250836    0.082465    1.536146
     27          1           0       -0.732175   -0.254182   -0.111658
     28          1           0       -0.212642   -2.631609    0.532238
     29          1           0       -0.734250   -2.293048    2.189405
     30          1           0        0.702640   -1.491036    1.532569
     31          6           0       -3.500647   -0.046399   -0.085591
     32          6           0       -4.914884   -0.510251   -0.435969
     33          6           0       -5.800336    0.626703   -0.946953
     34          1           0       -3.559519    0.744090    0.675366
     35          1           0       -3.040195    0.408177   -0.973447
     36          1           0       -5.371954   -0.963948    0.452773
     37          1           0       -4.853293   -1.300596   -1.195032
     38          1           0       -5.369879    1.074918   -1.848291
     39          1           0       -5.891487    1.413478   -0.191124
     40          1           0       -6.806768    0.272905   -1.191455
 ---------------------------------------------------------------------

 SCF Done:  E(RHF) =  -470.732978657     A.U. after   11 cycles
 E2 =    -0.1584071301D+01 EUMP2 =    -0.47231704995816D+03

 The electronic state is 1-A.
 Alpha  occ. eigenvalues --  -11.21702 -11.21633 -11.21573 -11.21550 -11.21466
 Alpha  occ. eigenvalues --  -11.21401 -11.21361 -11.21277 -11.21194 -11.21088
 Alpha  occ. eigenvalues --  -11.21047 -11.20986  -1.08509  -1.08380  -1.03613
 Alpha  occ. eigenvalues --   -1.03478  -0.96056  -0.95928  -0.87065  -0.86950
 Alpha  occ. eigenvalues --   -0.79714  -0.79523  -0.78378  -0.78141  -0.65211
 Alpha  occ. eigenvalues --   -0.64983  -0.61017  -0.60886  -0.59424  -0.59284
 Alpha  occ. eigenvalues --   -0.57676  -0.57532  -0.55366  -0.55191  -0.52747
 Alpha  occ. eigenvalues --   -0.52626  -0.52487  -0.52343  -0.50015  -0.49856
 Alpha  occ. eigenvalues --   -0.48107  -0.47799  -0.46829  -0.46532  -0.46040
 Alpha  occ. eigenvalues --   -0.45786  -0.45726  -0.45281  -0.43851  -0.43738
 Alpha virt. eigenvalues --    0.19972   0.22947   0.23568   0.24660   0.26075
 Alpha virt. eigenvalues --    0.26296   0.26493   0.27315   0.28579   0.29750
 Alpha virt. eigenvalues --    0.30771   0.30958   0.31830   0.31954   0.32227

 Mulliken charges:
               1
     1  C   -0.308745
     2  C   -0.298582
     3  C   -0.479973
     4  H    0.148983
     5  H    0.160772
     6  H    0.151681
     7  H    0.151197
     8  H    0.159935
     9  H    0.154483
    10  H    0.159667
    11  C   -0.297922
    12  C   -0.300574
    13  C   -0.475616
    14  H    0.149525
    15  H    0.149120
    16  H    0.151710
    17  H    0.152757
    18  H    0.155250
    19  H    0.155095
    20  H    0.160113
    21  C   -0.297487
    22  C   -0.306749
    23  C   -0.478770
    24  H    0.149868
    25  H    0.149803
    26  H    0.153321
    27  H    0.156688
    28  H    0.155676
    29  H    0.156209
    30  H    0.161930
    31  C   -0.298910
    32  C   -0.299663
    33  C   -0.475778
    34  H    0.149712
    35  H    0.150160
    36  H    0.152009
    37  H    0.152027
    38  H    0.155395
    39  H    0.155339
    40  H    0.160343
 Sum of Mulliken charges =  -0.00000

 Dipole moment (field-independent basis, Debye):
    X=             -0.0617    Y=             -0.0311    Z=              0.0001  Tot=              0.0691
 Quadrupole moment (field-independent basis, Debye-Ang):
   XX=            -85.7659   YY=            -85.4823   ZZ=            -83.6176
   XY=              1.3710   XZ=             -1.0439   YZ=              0.1584

 Normal termination of Gaussian 16 at Wed May  5 15:19:46 2021.
