 Gaussian 16, Revision A.03,
 Gaussian 16:  EM64L-G16RevA.03 25-Dec-2016

 -------------
 #p 6-31g* mp2
 -------------

 ------------------------------------------------------
 Input file generated by CHIRIPA (05-May-2021 14:57:21)
 ------------------------------------------------------
 Symbolic Z-matrix:
 Charge =  0 Multiplicity = 1

                         Standard orientation:
 ---------------------------------------------------------------------
 Center     Atomic      Atomic             Coordinates (Angstroms)
 Number     Number       Type             X           Y           Z
 ---------------------------------------------------------------------
      1          6           0       -2.530778    2.038804   -0.069026
      2          6           0       -2.310544    0.994385    0.834968
      3          6           0       -3.202053   -0.079952    0.909542
      4          6           0       -4.308441   -0.077600    0.061492
      5          6           0       -4.555230    0.948152   -0.849671
      6          6           0       -3.650444    2.012401   -0.906984
      7          1           0       -1.833076    2.869456   -0.120252
      8          1           0       -1.441845    1.012239    1.486955
      9          1           0       -3.055700   -0.901591    1.600127
     10          1           0       -5.430122    0.902425   -1.486767
     11          1           0       -3.824011    2.822139   -1.610008
     12          7           0       -5.259269   -1.209613    0.131302
     13          8           0       -6.226460   -1.183961   -0.626669
     14          8           0       -5.019334   -2.101101    0.942670
     15          6           0        1.675242    0.373105   -0.027166
     16          6           0        2.150388   -0.823804   -0.573212
     17          6           0        3.520476   -1.101449   -0.591203
     18          6           0        4.391151   -0.155574   -0.052192
     19          6           0        3.948533    1.045948    0.498921
     20          6           0        2.574246    1.302522    0.506217
     21          1           0        0.609295    0.580603   -0.017344
     22          1           0        1.454525   -1.547439   -0.988145
     23          1           0        3.915478   -2.020105   -1.007691
     24          1           0        4.666591    1.747935    0.905152
     25          1           0        2.208088    2.232891    0.930936
     26          7           0        5.843824   -0.438352   -0.065578
     27          8           0        6.590302    0.411317    0.415536
     28          8           0        6.208445   -1.504307   -0.556930
 ---------------------------------------------------------------------

 SCF Done:  E(RHF) =  -868.336953746     A.U. after   16 cycles
 E2 =    -0.2600164161D+01 EUMP2 =    -0.87093711790656D+03

 The electronic state is 1-A.
 Alpha  occ. eigenvalues --  -20.61518 -20.61510 -20.61140 -20.61133 -15.86579
 Alpha  occ. eigenvalues --  -15.86197 -11.32136 -11.31670 -11.28778 -11.28705
 Alpha  occ. eigenvalues --  -11.28581 -11.28271 -11.28217 -11.28043 -11.27881
 Alpha  occ. eigenvalues --  -11.27732 -11.27371 -11.27260  -1.60589  -1.60212
 Alpha  occ. eigenvalues --   -1.40137  -1.39762  -1.20350  -1.19859  -1.09720
 Alpha  occ. eigenvalues --   -1.09250  -1.05779  -1.05275  -0.96510  -0.96064
 Alpha  occ. eigenvalues --   -0.87178  -0.86679  -0.83333  -0.82887  -0.78340
 Alpha  occ. eigenvalues --   -0.77904  -0.72792  -0.72413  -0.71917  -0.71537
 Alpha  occ. eigenvalues --   -0.71468  -0.71015  -0.66002  -0.65799  -0.65516
 Alpha  occ. eigenvalues --   -0.65283  -0.63109  -0.62616  -0.56306  -0.55860
 Alpha  occ. eigenvalues --   -0.54062  -0.53845  -0.53598  -0.53374  -0.49566
 Alpha  occ. eigenvalues --   -0.49534  -0.49181  -0.49160  -0.45499  -0.45143
 Alpha  occ. eigenvalues --   -0.38356  -0.37875  -0.37378  -0.36875
 Alpha virt. eigenvalues --    0.04199   0.04621   0.10031   0.10762   0.15605
 Alpha virt. eigenvalues --    0.16059   0.19076   0.21810   0.25543   0.26721
 Alpha virt. eigenvalues --    0.27276   0.29127   0.29966   0.30694   0.31720

 Mulliken charges:
               1
     1  C   -0.172544
     2  C   -0.225949
     3  C   -0.171488
     4  C    0.158791
     5  C   -0.169001
     6  C   -0.217957
     7  H    0.225000
     8  H    0.221060
     9  H    0.278555
    10  H    0.279131
    11  H    0.227172
    12  N    0.487936
    13  O   -0.457528
    14  O   -0.458480
    15  C   -0.177802
    16  C   -0.220091
    17  C   -0.170013
    18  C    0.158920
    19  C   -0.169986
    20  C   -0.220204
    21  H    0.224782
    22  H    0.227124
    23  H    0.277851
    24  H    0.276551
    25  H    0.218460
    26  N    0.487937
    27  O   -0.459673
    28  O   -0.458554
 Sum of Mulliken charges =  -0.00000

 Dipole moment (field-independent basis, Debye):
    X=             -1.9690    Y=              4.8786    Z=             -0.2952  Tot=              5.2692
 Quadrupole moment (field-independent basis, Debye-Ang):
   XX=           -176.1247   YY=           -101.5828   ZZ=           -102.3007
   XY=            -13.0446   XZ=              4.6073   YZ=              0.6218

 Normal termination of Gaussian 16 at Wed May  5 19:15:26 2021.
