 Gaussian 16, Revision A.03,
 Gaussian 16:  EM64L-G16RevA.03 25-Dec-2016

 -------------
 #p 6-31g* mp2
 -------------

 ------------------------------------------------------
 Input file generated by CHIRIPA (05-May-2021 14:53:15)
 ------------------------------------------------------
 Symbolic Z-matrix:
 Charge =  0 Multiplicity = 1

                         Standard orientation:
 ---------------------------------------------------------------------
 Center     Atomic      Atomic             Coordinates (Angstroms)
 Number     Number       Type             X           Y           Z
 ---------------------------------------------------------------------
      1          6           0        2.761815   -0.297893    1.114658
      2          6           0        1.252277   -0.347829    0.876359
      3          6           0        0.454231   -0.503630    2.171212
      4          1           0        3.075421   -1.214779    1.632265
      5          1           0        2.991808    0.537065    1.790929
      6          1           0        1.025346   -1.181596    0.199638
      7          1           0        0.942257    0.569196    0.359089
      8          1           0        0.651429    0.333710    2.848394
      9          1           0        0.734990   -1.427029    2.688037
     10          1           0       -0.622465   -0.537099    1.977651
     11          6           0        3.573166   -0.142358   -0.170351
     12          6           0        5.082704   -0.092421    0.067948
     13          6           0        5.880750    0.063379   -1.226904
     14          1           0        3.343173   -0.977316   -0.846622
     15          1           0        3.259559    0.774528   -0.687957
     16          1           0        5.392723   -1.009446    0.585219
     17          1           0        5.309635    0.741345    0.744670
     18          1           0        5.599991    0.986779   -1.743730
     19          1           0        5.683551   -0.773961   -1.904087
     20          1           0        6.957445    0.096848   -1.033343
     21          6           0       -1.868709    2.615082   -0.195563
     22          6           0       -2.827207    2.068877    0.664357
     23          6           0       -3.170756    0.716491    0.577328
     24          6           0       -2.533177   -0.064218   -0.385625
     25          6           0       -1.574291    0.450665   -1.256672
     26          6           0       -1.246407    1.805660   -1.151647
     27          1           0       -1.607917    3.666661   -0.120967
     28          1           0       -3.312119    2.695104    1.407824
     29          1           0       -3.909342    0.267771    1.230442
     30          1           0       -1.108023   -0.198673   -1.987679
     31          1           0       -0.501663    2.227139   -1.820794
     32          7           0       -2.888585   -1.497309   -0.487284
     33          8           0       -2.312426   -2.163937   -1.344189
     34          8           0       -3.736583   -1.926802    0.291865
 ---------------------------------------------------------------------

 SCF Done:  E(RHF) =  -669.534321276     A.U. after   15 cycles
 E2 =    -0.2094637557D+01 EUMP2 =    -0.67162895883257D+03

 The electronic state is 1-A.
 Alpha  occ. eigenvalues --  -20.60829 -20.60824 -15.85879 -11.31235 -11.27821
 Alpha  occ. eigenvalues --  -11.27808 -11.27580 -11.26834 -11.26814 -11.21744
 Alpha  occ. eigenvalues --  -11.21553 -11.21506 -11.21404 -11.21228 -11.20971
 Alpha  occ. eigenvalues --   -1.59902  -1.39455  -1.19442  -1.08829  -1.08515
 Alpha  occ. eigenvalues --   -1.04845  -1.03580  -0.96044  -0.95656  -0.87056
 Alpha  occ. eigenvalues --   -0.86235  -0.82491  -0.79663  -0.78352  -0.77527
 Alpha  occ. eigenvalues --   -0.72096  -0.71234  -0.70538  -0.65163  -0.65077
 Alpha  occ. eigenvalues --   -0.64833  -0.62181  -0.60989  -0.59472  -0.57736
 Alpha  occ. eigenvalues --   -0.55352  -0.55326  -0.53304  -0.52925  -0.52568
 Alpha  occ. eigenvalues --   -0.52346  -0.49982  -0.48857  -0.48851  -0.48006
 Alpha  occ. eigenvalues --   -0.46691  -0.45897  -0.45802  -0.44850  -0.43861
 Alpha  occ. eigenvalues --   -0.37392  -0.36302
 Alpha virt. eigenvalues --    0.05001   0.11097   0.16445   0.21182   0.22822
 Alpha virt. eigenvalues --    0.24148   0.26355   0.26586   0.27564   0.28078
 Alpha virt. eigenvalues --    0.28545   0.30481   0.31298   0.31630   0.31802

 Mulliken charges:
               1
     1  C   -0.297811
     2  C   -0.306021
     3  C   -0.476933
     4  H    0.151558
     5  H    0.147340
     6  H    0.155026
     7  H    0.151995
     8  H    0.151336
     9  H    0.157732
    10  H    0.161007
    11  C   -0.297656
    12  C   -0.299516
    13  C   -0.475693
    14  H    0.151392
    15  H    0.143157
    16  H    0.153849
    17  H    0.151134
    18  H    0.152944
    19  H    0.156276
    20  H    0.160897
    21  C   -0.170831
    22  C   -0.216403
    23  C   -0.173707
    24  C    0.160729
    25  C   -0.165718
    26  C   -0.219856
    27  H    0.225939
    28  H    0.223914
    29  H    0.276069
    30  H    0.276323
    31  H    0.224045
    32  N    0.488299
    33  O   -0.460644
    34  O   -0.460172
 Sum of Mulliken charges =  -0.00000

 Dipole moment (field-independent basis, Debye):
    X=              1.1660    Y=              5.0247    Z=              0.3197  Tot=              5.1681
 Quadrupole moment (field-independent basis, Debye-Ang):
   XX=           -100.0013   YY=            -94.8634   ZZ=            -93.3874
   XY=            -13.7589   XZ=             -3.6349   YZ=             -1.3430

 Normal termination of Gaussian 16 at Thu May  6 20:25:44 2021.
