 Gaussian 16, Revision A.03,
 Gaussian 16:  EM64L-G16RevA.03 25-Dec-2016

 -------------
 #p 6-31g* mp2
 -------------

 ------------------------------------------------------
 Input file generated by CHIRIPA (05-May-2021 14:55:18)
 ------------------------------------------------------
 Symbolic Z-matrix:
 Charge =  0 Multiplicity = 1

                         Standard orientation:
 ---------------------------------------------------------------------
 Center     Atomic      Atomic             Coordinates (Angstroms)
 Number     Number       Type             X           Y           Z
 ---------------------------------------------------------------------
      1          6           0       -0.943520    0.959495    1.103549
      2          6           0       -0.889121   -0.364784    0.656506
      3          6           0       -2.033507   -0.992751    0.155921
      4          6           0       -3.220921   -0.263507    0.116634
      5          6           0       -3.307083    1.057126    0.554576
      6          6           0       -2.150200    1.664979    1.051250
      7          1           0       -0.049679    1.439502    1.490896
      8          1           0        0.046631   -0.915110    0.695936
      9          1           0       -2.019596   -2.016885   -0.196746
     10          1           0       -4.254342    1.580037    0.502775
     11          1           0       -2.195404    2.693545    1.397739
     12          7           0       -4.439046   -0.917661   -0.411243
     13          8           0       -5.472955   -0.253515   -0.435306
     14          8           0       -4.336839   -2.082146   -0.790934
     15          6           0        3.236225    0.490193   -0.580711
     16          6           0        3.100408    2.000899   -0.387561
     17          6           0        1.835948    2.568129   -1.033460
     18          1           0        3.238322    0.263106   -1.655594
     19          1           0        2.352504   -0.007413   -0.157839
     20          1           0        3.984771    2.495407   -0.809438
     21          1           0        3.098826    2.224433    0.686984
     22          1           0        0.942498    2.101611   -0.606014
     23          1           0        1.833477    2.374125   -2.110937
     24          1           0        1.758877    3.649501   -0.883272
     25          6           0        4.495382   -0.091614    0.059408
     26          6           0        4.631200   -1.602320   -0.133743
     27          6           0        5.895659   -2.169551    0.512155
     28          1           0        5.379103    0.405992   -0.363464
     29          1           0        4.493285    0.135473    1.134290
     30          1           0        4.632780   -1.825855   -1.208287
     31          1           0        3.746836   -2.096828    0.288133
     32          1           0        5.898131   -1.975545    1.589633
     33          1           0        6.789109   -1.703032    0.084709
     34          1           0        5.972730   -3.250922    0.361968
 ---------------------------------------------------------------------

 SCF Done:  E(RHF) =  -669.534574154     A.U. after   15 cycles
 E2 =    -0.2092981380D+01 EUMP2 =    -0.67162755553340D+03

 The electronic state is 1-A.
 Alpha  occ. eigenvalues --  -20.60785 -20.60780 -15.85839 -11.31226 -11.27797
 Alpha  occ. eigenvalues --  -11.27793 -11.27531 -11.26819 -11.26809 -11.22509
 Alpha  occ. eigenvalues --  -11.22347 -11.22322 -11.22162 -11.21808 -11.21648
 Alpha  occ. eigenvalues --   -1.59860  -1.39413  -1.19408  -1.09279  -1.08805
 Alpha  occ. eigenvalues --   -1.04807  -1.04311  -0.96752  -0.95634  -0.87760
 Alpha  occ. eigenvalues --   -0.86210  -0.82462  -0.80375  -0.79091  -0.77496
 Alpha  occ. eigenvalues --   -0.72058  -0.71183  -0.70563  -0.65956  -0.65057
 Alpha  occ. eigenvalues --   -0.64788  -0.62158  -0.61719  -0.60114  -0.58363
 Alpha  occ. eigenvalues --   -0.56203  -0.55202  -0.53415  -0.53311  -0.53015
 Alpha  occ. eigenvalues --   -0.52873  -0.50666  -0.48817  -0.48811  -0.48669
 Alpha  occ. eigenvalues --   -0.47427  -0.46612  -0.46558  -0.44814  -0.44577
 Alpha  occ. eigenvalues --   -0.37322  -0.36405
 Alpha virt. eigenvalues --    0.04992   0.11164   0.16383   0.18886   0.22878
 Alpha virt. eigenvalues --    0.23378   0.24660   0.26072   0.27293   0.28357
 Alpha virt. eigenvalues --    0.29228   0.30586   0.30942   0.31478   0.31768

 Mulliken charges:
               1
     1  C   -0.172275
     2  C   -0.220428
     3  C   -0.170821
     4  C    0.158969
     5  C   -0.170679
     6  C   -0.219564
     7  H    0.228700
     8  H    0.226710
     9  H    0.276092
    10  H    0.275916
    11  H    0.224234
    12  N    0.487998
    13  O   -0.460241
    14  O   -0.460221
    15  C   -0.299943
    16  C   -0.301385
    17  C   -0.483590
    18  H    0.154845
    19  H    0.140500
    20  H    0.156765
    21  H    0.146774
    22  H    0.156435
    23  H    0.160258
    24  H    0.160514
    25  C   -0.298654
    26  C   -0.299283
    27  C   -0.476133
    28  H    0.153016
    29  H    0.148634
    30  H    0.154515
    31  H    0.147386
    32  H    0.155421
    33  H    0.157032
    34  H    0.162503
 Sum of Mulliken charges =  -0.00000

 Dipole moment (field-independent basis, Debye):
    X=              4.3891    Y=              2.2972    Z=              1.7887  Tot=              5.2669
 Quadrupole moment (field-independent basis, Debye-Ang):
   XX=           -121.1818   YY=            -92.8960   ZZ=            -94.3024
   XY=            -10.7016   XZ=             -7.1175   YZ=              0.6390

 Normal termination of Gaussian 16 at Thu May  6 17:22:16 2021.
