 Gaussian 16, Revision A.03,
 Gaussian 16:  EM64L-G16RevA.03 25-Dec-2016

 -------------
 #p 6-31g* mp2
 -------------

 ------------------------------------------------------
 Input file generated by CHIRIPA (05-May-2021 14:51:13)
 ------------------------------------------------------
 Symbolic Z-matrix:
 Charge =  0 Multiplicity = 1

                         Standard orientation:
 ---------------------------------------------------------------------
 Center     Atomic      Atomic             Coordinates (Angstroms)
 Number     Number       Type             X           Y           Z
 ---------------------------------------------------------------------
      1          6           0       -2.219446    0.676758    0.731870
      2          6           0       -1.401865    0.841808    2.013395
      3          6           0       -1.289188    2.300063    2.459029
      4          1           0       -1.758759    1.271719   -0.068588
      5          1           0       -3.224597    1.091357    0.890532
      6          1           0       -0.398999    0.425771    1.852806
      7          1           0       -1.864443    0.246232    2.810845
      8          1           0       -2.281291    2.723316    2.646619
      9          1           0       -0.807521    2.903874    1.683136
     10          1           0       -0.700733    2.395023    3.376941
     11          6           0       -2.341071   -0.775480    0.273677
     12          6           0       -3.158651   -0.940531   -1.007848
     13          6           0       -3.271328   -2.398786   -1.453482
     14          1           0       -1.335920   -1.190080    0.115015
     15          1           0       -2.801758   -1.370442    1.074135
     16          1           0       -2.696073   -0.344955   -1.805298
     17          1           0       -4.161517   -0.524494   -0.847258
     18          1           0       -3.752996   -3.002597   -0.677589
     19          1           0       -2.279226   -2.822038   -1.641072
     20          1           0       -3.859783   -2.493745   -2.371394
     21          6           0        1.681091    0.368500   -0.852888
     22          6           0        2.044167    1.614531   -1.661324
     23          6           0        0.834994    2.241653   -2.355883
     24          1           0        1.215264   -0.370311   -1.519302
     25          1           0        0.923398    0.634482   -0.102854
     26          1           0        2.801961    1.346576   -2.408694
     27          1           0        2.509357    2.350387   -0.992945
     28          1           0        0.078862    2.536704   -1.621165
     29          1           0        0.373130    1.527189   -3.044958
     30          1           0        1.117227    3.130925   -2.928074
     31          6           0        2.879426   -0.269777   -0.152660
     32          6           0        2.516350   -1.515808    0.655776
     33          6           0        3.725523   -2.142931    1.350336
     34          1           0        3.637119   -0.535759   -0.902693
     35          1           0        3.345253    0.469035    0.513755
     36          1           0        2.051160   -2.251664   -0.012602
     37          1           0        1.758556   -1.247853    1.403147
     38          1           0        4.187387   -1.428466    2.039411
     39          1           0        4.481654   -2.437981    0.615617
     40          1           0        3.443290   -3.032202    1.922526
 ---------------------------------------------------------------------

 SCF Done:  E(RHF) =  -470.732880583     A.U. after   11 cycles
 E2 =    -0.1585276216D+01 EUMP2 =    -0.47231815679876D+03

 The electronic state is 1-A.
 Alpha  occ. eigenvalues --  -11.21678 -11.21673 -11.21624 -11.21555 -11.21468
 Alpha  occ. eigenvalues --  -11.21408 -11.21369 -11.21293 -11.21169 -11.21130
 Alpha  occ. eigenvalues --  -11.21116 -11.21046  -1.08542  -1.08385  -1.03605
 Alpha  occ. eigenvalues --   -1.03531  -0.96054  -0.95975  -0.87070  -0.86995
 Alpha  occ. eigenvalues --   -0.79674  -0.79592  -0.78389  -0.78176  -0.65418
 Alpha  occ. eigenvalues --   -0.64816  -0.61061  -0.60875  -0.59425  -0.59339
 Alpha  occ. eigenvalues --   -0.57677  -0.57573  -0.55357  -0.55257  -0.52747
 Alpha  occ. eigenvalues --   -0.52678  -0.52482  -0.52398  -0.50020  -0.49927
 Alpha  occ. eigenvalues --   -0.48003  -0.47942  -0.46798  -0.46623  -0.46243
 Alpha  occ. eigenvalues --   -0.45773  -0.45652  -0.45187  -0.43853  -0.43770
 Alpha virt. eigenvalues --    0.19369   0.22186   0.23169   0.23984   0.25307
 Alpha virt. eigenvalues --    0.26195   0.26928   0.27807   0.29067   0.29858
 Alpha virt. eigenvalues --    0.30607   0.31431   0.31570   0.31891   0.32346

 Mulliken charges:
               1
     1  C   -0.303566
     2  C   -0.307328
     3  C   -0.476164
     4  H    0.154271
     5  H    0.150001
     6  H    0.156804
     7  H    0.152923
     8  H    0.156010
     9  H    0.154364
    10  H    0.160270
    11  C   -0.300745
    12  C   -0.299985
    13  C   -0.475600
    14  H    0.153479
    15  H    0.149117
    16  H    0.152511
    17  H    0.151675
    18  H    0.155113
    19  H    0.154799
    20  H    0.160056
    21  C   -0.308601
    22  C   -0.299317
    23  C   -0.479320
    24  H    0.149419
    25  H    0.160547
    26  H    0.152367
    27  H    0.152164
    28  H    0.157468
    29  H    0.155288
    30  H    0.161081
    31  C   -0.297710
    32  C   -0.304460
    33  C   -0.475641
    34  H    0.149885
    35  H    0.149728
    36  H    0.151950
    37  H    0.155633
    38  H    0.155398
    39  H    0.155436
    40  H    0.160680
 Sum of Mulliken charges =  -0.00000

 Dipole moment (field-independent basis, Debye):
    X=              0.0306    Y=              0.0012    Z=             -0.0016  Tot=              0.0307
 Quadrupole moment (field-independent basis, Debye-Ang):
   XX=            -84.6376   YY=            -85.7655   ZZ=            -84.3068
   XY=              0.2341   XZ=             -1.1327   YZ=              0.2526

 Normal termination of Gaussian 16 at Thu May  6 02:23:44 2021.
