 Gaussian 16, Revision A.03,
 Gaussian 16:  EM64L-G16RevA.03 25-Dec-2016

 -------------
 #p 6-31g* mp2
 -------------

 ------------------------------------------------------
 Input file generated by CHIRIPA (05-May-2021 14:55:25)
 ------------------------------------------------------
 Symbolic Z-matrix:
 Charge =  0 Multiplicity = 1

                         Standard orientation:
 ---------------------------------------------------------------------
 Center     Atomic      Atomic             Coordinates (Angstroms)
 Number     Number       Type             X           Y           Z
 ---------------------------------------------------------------------
      1          6           0        0.454370   -1.495106    0.869953
      2          6           0        1.525811   -1.293687    1.746291
      3          6           0        2.709621   -0.701662    1.296127
      4          6           0        2.787999   -0.321464   -0.042752
      5          6           0        1.737936   -0.508789   -0.940287
      6          6           0        0.563660   -1.102706   -0.468179
      7          1           0       -0.461539   -1.955741    1.228175
      8          1           0        1.443757   -1.597435    2.786026
      9          1           0        3.554483   -0.533946    1.953012
     10          1           0        1.849466   -0.195511   -1.971226
     11          1           0       -0.266821   -1.257896   -1.151013
     12          7           0        4.036199    0.306288   -0.530936
     13          8           0        4.080147    0.632388   -1.715150
     14          8           0        4.946956    0.460333    0.279884
     15          6           0       -3.233872   -0.213691   -0.114421
     16          6           0       -4.553771   -0.922910   -0.419149
     17          6           0       -4.394574   -2.438063   -0.548604
     18          1           0       -2.510634   -0.441220   -0.909469
     19          1           0       -2.813652   -0.619981    0.816029
     20          1           0       -4.972066   -0.514431   -1.348014
     21          1           0       -5.274012   -0.693510    0.376619
     22          1           0       -4.000114   -2.864651    0.379311
     23          1           0       -3.696453   -2.684555   -1.355122
     24          1           0       -5.350238   -2.924990   -0.766480
     25          6           0       -3.376766    1.301500    0.017892
     26          6           0       -2.056866    2.010719    0.322621
     27          6           0       -2.216064    3.525873    0.452076
     28          1           0       -3.796986    1.707791   -0.912557
     29          1           0       -4.100004    1.529029    0.812941
     30          1           0       -1.336626    1.781320   -0.473147
     31          1           0       -1.638571    1.602241    1.251486
     32          1           0       -2.914185    3.772364    1.258594
     33          1           0       -2.610523    3.952461   -0.475839
     34          1           0       -1.260401    4.012799    0.669951
 ---------------------------------------------------------------------

 SCF Done:  E(RHF) =  -669.535118901     A.U. after   15 cycles
 E2 =    -0.2092914199D+01 EUMP2 =    -0.67162803309944D+03

 The electronic state is 1-A.
 Alpha  occ. eigenvalues --  -20.60734 -20.60729 -15.85787 -11.31142 -11.27711
 Alpha  occ. eigenvalues --  -11.27703 -11.27426 -11.26725 -11.26687 -11.22510
 Alpha  occ. eigenvalues --  -11.22449 -11.22125 -11.22065 -11.22042 -11.21432
 Alpha  occ. eigenvalues --   -1.59809  -1.39363  -1.19311  -1.09258  -1.08699
 Alpha  occ. eigenvalues --   -1.04716  -1.04244  -0.96723  -0.95541  -0.87731
 Alpha  occ. eigenvalues --   -0.86116  -0.82379  -0.80333  -0.79088  -0.77422
 Alpha  occ. eigenvalues --   -0.72005  -0.71132  -0.70412  -0.65916  -0.64962
 Alpha  occ. eigenvalues --   -0.64714  -0.62077  -0.61633  -0.60095  -0.58317
 Alpha  occ. eigenvalues --   -0.56049  -0.55196  -0.53390  -0.53165  -0.53021
 Alpha  occ. eigenvalues --   -0.52799  -0.50661  -0.48775  -0.48762  -0.48628
 Alpha  occ. eigenvalues --   -0.47375  -0.46573  -0.46494  -0.44772  -0.44531
 Alpha  occ. eigenvalues --   -0.37253  -0.36295
 Alpha virt. eigenvalues --    0.05079   0.11269   0.16472   0.19526   0.22804
 Alpha virt. eigenvalues --    0.23628   0.23913   0.25802   0.27293   0.28481
 Alpha virt. eigenvalues --    0.29556   0.29961   0.31091   0.31446   0.31627

 Mulliken charges:
               1
     1  C   -0.171797
     2  C   -0.219286
     3  C   -0.170903
     4  C    0.158841
     5  C   -0.172968
     6  C   -0.217210
     7  H    0.227371
     8  H    0.223029
     9  H    0.275333
    10  H    0.275175
    11  H    0.226691
    12  N    0.488045
    13  O   -0.460662
    14  O   -0.460608
    15  C   -0.301407
    16  C   -0.299678
    17  C   -0.476479
    18  H    0.143936
    19  H    0.144388
    20  H    0.155559
    21  H    0.155311
    22  H    0.151476
    23  H    0.152296
    24  H    0.165548
    25  C   -0.298668
    26  C   -0.300173
    27  C   -0.476657
    28  H    0.151985
    29  H    0.151791
    30  H    0.152510
    31  H    0.151812
    32  H    0.155223
    33  H    0.156169
    34  H    0.164007
 Sum of Mulliken charges =  -0.00000

 Dipole moment (field-independent basis, Debye):
    X=             -4.5488    Y=             -2.1212    Z=              1.7272  Tot=              5.3079
 Quadrupole moment (field-independent basis, Debye-Ang):
   XX=           -118.5360   YY=            -95.0983   ZZ=            -89.8590
   XY=             -5.0684   XZ=              7.0169   YZ=             -1.1214

 Normal termination of Gaussian 16 at Thu May  6 14:25:46 2021.
