 Gaussian 16, Revision A.03,
 Gaussian 16:  EM64L-G16RevA.03 25-Dec-2016

 -------------
 #p 6-31g* mp2
 -------------

 ------------------------------------------------------
 Input file generated by CHIRIPA (05-May-2021 14:57:22)
 ------------------------------------------------------
 Symbolic Z-matrix:
 Charge =  0 Multiplicity = 1

                         Standard orientation:
 ---------------------------------------------------------------------
 Center     Atomic      Atomic             Coordinates (Angstroms)
 Number     Number       Type             X           Y           Z
 ---------------------------------------------------------------------
      1          6           0        4.765554    0.635518   -0.063429
      2          6           0        4.436009   -0.404848    0.811533
      3          6           0        3.193557   -1.039783    0.723671
      4          6           0        2.300657   -0.606941   -0.255445
      5          6           0        2.599674    0.426699   -1.141711
      6          6           0        3.847952    1.047245   -1.035545
      7          1           0        5.732983    1.123161    0.011933
      8          1           0        5.146657   -0.726694    1.567469
      9          1           0        2.912565   -1.847760    1.388227
     10          1           0        1.870477    0.725479   -1.884961
     11          1           0        4.101170    1.854938   -1.716396
     12          7           0        0.982245   -1.271502   -0.358150
     13          8           0        0.213149   -0.871550   -1.229452
     14          8           0        0.742934   -2.179753    0.434597
     15          6           0       -0.935960    2.330801    0.946987
     16          6           0       -1.644579    2.442926   -0.253765
     17          6           0       -2.523809    1.433226   -0.656268
     18          6           0       -2.670888    0.320168    0.170026
     19          6           0       -1.979032    0.179366    1.372025
     20          6           0       -1.105149    1.201369    1.754626
     21          1           0       -0.255030    3.119940    1.251932
     22          1           0       -1.515173    3.318927   -0.882988
     23          1           0       -3.084893    1.494361   -1.580857
     24          1           0       -2.128974   -0.705789    1.978192
     25          1           0       -0.556136    1.111601    2.687670
     26          7           0       -3.598859   -0.755269   -0.245551
     27          8           0       -3.710756   -1.725816    0.500207
     28          8           0       -4.196733   -0.607287   -1.309169
 ---------------------------------------------------------------------

 SCF Done:  E(RHF) =  -868.337478036     A.U. after   16 cycles
 E2 =    -0.2602883082D+01 EUMP2 =    -0.87094036111802D+03

 The electronic state is 1-A.
 Alpha  occ. eigenvalues --  -20.61087 -20.61048 -20.59570 -20.59540 -15.86095
 Alpha  occ. eigenvalues --  -15.84617 -11.31562 -11.30088 -11.28137 -11.28133
 Alpha  occ. eigenvalues --  -11.27892 -11.27177 -11.27162 -11.26785 -11.26711
 Alpha  occ. eigenvalues --  -11.26697 -11.25909 -11.25880  -1.60122  -1.58610
 Alpha  occ. eigenvalues --   -1.39679  -1.38170  -1.19742  -1.18343  -1.09116
 Alpha  occ. eigenvalues --   -1.07747  -1.05159  -1.03817  -0.95938  -0.94552
 Alpha  occ. eigenvalues --   -0.86547  -0.85218  -0.82773  -0.81409  -0.77806
 Alpha  occ. eigenvalues --   -0.76387  -0.72337  -0.71473  -0.70870  -0.70841
 Alpha  occ. eigenvalues --   -0.69868  -0.69551  -0.65392  -0.65157  -0.64049
 Alpha  occ. eigenvalues --   -0.63883  -0.62500  -0.61172  -0.55650  -0.54408
 Alpha  occ. eigenvalues --   -0.53493  -0.53246  -0.52111  -0.51953  -0.49096
 Alpha  occ. eigenvalues --   -0.49058  -0.47632  -0.47593  -0.45039  -0.43560
 Alpha  occ. eigenvalues --   -0.37771  -0.36798  -0.36256  -0.35405
 Alpha virt. eigenvalues --    0.04710   0.06198   0.10875   0.12236   0.16183
 Alpha virt. eigenvalues --    0.17615   0.21035   0.22136   0.26928   0.27936
 Alpha virt. eigenvalues --    0.28027   0.29085   0.30578   0.31616   0.32142

 Mulliken charges:
               1
     1  C   -0.171495
     2  C   -0.219043
     3  C   -0.172952
     4  C    0.159537
     5  C   -0.170967
     6  C   -0.219833
     7  H    0.226112
     8  H    0.224167
     9  H    0.276007
    10  H    0.275661
    11  H    0.223117
    12  N    0.489811
    13  O   -0.458420
    14  O   -0.460408
    15  C   -0.173201
    16  C   -0.220505
    17  C   -0.163658
    18  C    0.175847
    19  C   -0.164480
    20  C   -0.227455
    21  H    0.218486
    22  H    0.216435
    23  H    0.273204
    24  H    0.278763
    25  H    0.218463
    26  N    0.490025
    27  O   -0.458680
    28  O   -0.464538
 Sum of Mulliken charges =  -0.00000

 Dipole moment (field-independent basis, Debye):
    X=              7.8695    Y=              5.7983    Z=              1.7108  Tot=              9.9235
 Quadrupole moment (field-independent basis, Debye-Ang):
   XX=           -101.6706   YY=           -103.7535   ZZ=            -98.9380
   XY=             -7.5554   XZ=             -1.5212   YZ=             -5.0742

 Normal termination of Gaussian 16 at Thu May  6 03:21:14 2021.
