 Gaussian 16, Revision A.03,
 Gaussian 16:  EM64L-G16RevA.03 25-Dec-2016

 -------------
 #p 6-31g* mp2
 -------------

 ------------------------------------------------------
 Input file generated by CHIRIPA (05-May-2021 14:51:11)
 ------------------------------------------------------
 Symbolic Z-matrix:
 Charge =  0 Multiplicity = 1

                         Standard orientation:
 ---------------------------------------------------------------------
 Center     Atomic      Atomic             Coordinates (Angstroms)
 Number     Number       Type             X           Y           Z
 ---------------------------------------------------------------------
      1          6           0        3.390252   -0.750070   -0.143300
      2          6           0        2.005501   -1.088222   -0.696565
      3          6           0        1.715201   -2.589359   -0.686252
      4          1           0        4.152598   -1.276472   -0.733786
      5          1           0        3.470721   -1.132986    0.883489
      6          1           0        1.927176   -0.703568   -1.721515
      7          1           0        1.246374   -0.560802   -0.104813
      8          1           0        1.765984   -2.984556    0.333475
      9          1           0        2.450655   -3.128133   -1.292413
     10          1           0        0.720176   -2.808593   -1.085903
     11          6           0        3.695164    0.746841   -0.147086
     12          6           0        5.079915    1.084993    0.406179
     13          6           0        5.370215    2.586130    0.395866
     14          1           0        3.614695    1.129757   -1.173875
     15          1           0        2.932818    1.273243    0.443400
     16          1           0        5.839042    0.557573   -0.185573
     17          1           0        5.158240    0.700339    1.431129
     18          1           0        4.634762    3.124904    1.002027
     19          1           0        5.319432    2.981327   -0.623861
     20          1           0        6.365240    2.805364    0.795517
     21          6           0       -3.750021    0.588214   -0.297925
     22          6           0       -4.829285    1.470724    0.330050
     23          6           0       -5.233490    2.639975   -0.568428
     24          1           0       -2.867280    1.202720   -0.521750
     25          1           0       -4.115051    0.203277   -1.260200
     26          1           0       -4.462861    1.852766    1.291504
     27          1           0       -5.709487    0.854008    0.552582
     28          1           0       -5.623999    2.274647   -1.523750
     29          1           0       -4.370289    3.279079   -0.780629
     30          1           0       -6.006051    3.257768   -0.100086
     31          6           0       -3.335395   -0.584985    0.588311
     32          6           0       -2.256132   -1.467495   -0.039664
     33          6           0       -1.851925   -2.636746    0.858814
     34          1           0       -2.970366   -0.200048    1.550585
     35          1           0       -4.218136   -1.199490    0.812137
     36          1           0       -1.375929   -0.850779   -0.262196
     37          1           0       -2.622555   -1.849537   -1.001117
     38          1           0       -2.715127   -3.275850    1.071016
     39          1           0       -1.461418   -2.271418    1.814136
     40          1           0       -1.079366   -3.254539    0.390472
 ---------------------------------------------------------------------

 SCF Done:  E(RHF) =  -470.732674369     A.U. after   11 cycles
 E2 =    -0.1583345827D+01 EUMP2 =    -0.47231602019581D+03

 The electronic state is 1-A.
 Alpha  occ. eigenvalues --  -11.21627 -11.21620 -11.21594 -11.21562 -11.21428
 Alpha  occ. eigenvalues --  -11.21390 -11.21368 -11.21331 -11.21088 -11.21064
 Alpha  occ. eigenvalues --  -11.21057 -11.20967  -1.08461  -1.08404  -1.03592
 Alpha  occ. eigenvalues --   -1.03466  -0.96064  -0.95889  -0.87082  -0.86906
 Alpha  occ. eigenvalues --   -0.79671  -0.79519  -0.78290  -0.78201  -0.65139
 Alpha  occ. eigenvalues --   -0.64998  -0.61098  -0.60795  -0.59723  -0.59071
 Alpha  occ. eigenvalues --   -0.57811  -0.57307  -0.55350  -0.55154  -0.52959
 Alpha  occ. eigenvalues --   -0.52511  -0.52460  -0.52157  -0.49984  -0.49843
 Alpha  occ. eigenvalues --   -0.48030  -0.47806  -0.46775  -0.46495  -0.45884
 Alpha  occ. eigenvalues --   -0.45762  -0.45734  -0.45562  -0.43907  -0.43627
 Alpha virt. eigenvalues --    0.21030   0.23140   0.23399   0.25423   0.25896
 Alpha virt. eigenvalues --    0.26838   0.26869   0.27129   0.28116   0.29328
 Alpha virt. eigenvalues --    0.30050   0.30747   0.31231   0.31789   0.32505

 Mulliken charges:
               1
     1  C   -0.298428
     2  C   -0.302380
     3  C   -0.479089
     4  H    0.149874
     5  H    0.149692
     6  H    0.152044
     7  H    0.154162
     8  H    0.155932
     9  H    0.154931
    10  H    0.164511
    11  C   -0.298314
    12  C   -0.299657
    13  C   -0.475715
    14  H    0.149599
    15  H    0.149298
    16  H    0.152054
    17  H    0.151973
    18  H    0.155097
    19  H    0.155221
    20  H    0.160341
    21  C   -0.298308
    22  C   -0.299623
    23  C   -0.475701
    24  H    0.149607
    25  H    0.149514
    26  H    0.151805
    27  H    0.151948
    28  H    0.155179
    29  H    0.155185
    30  H    0.160210
    31  C   -0.297905
    32  C   -0.305347
    33  C   -0.479518
    34  H    0.149147
    35  H    0.149720
    36  H    0.157128
    37  H    0.151289
    38  H    0.154443
    39  H    0.153906
    40  H    0.166172
 Sum of Mulliken charges =  -0.00000

 Dipole moment (field-independent basis, Debye):
    X=              0.0307    Y=             -0.0108    Z=             -0.0137  Tot=              0.0353
 Quadrupole moment (field-independent basis, Debye-Ang):
   XX=            -84.4760   YY=            -86.3311   ZZ=            -84.0208
   XY=              0.3367   XZ=             -0.2587   YZ=              0.7798

 Normal termination of Gaussian 16 at Thu May  6 02:16:35 2021.
