 Gaussian 16, Revision A.03,
 Gaussian 16:  EM64L-G16RevA.03 25-Dec-2016

 -------------
 #p 6-31g* mp2
 -------------

 ------------------------------------------------------
 Input file generated by CHIRIPA (05-May-2021 14:51:14)
 ------------------------------------------------------
 Symbolic Z-matrix:
 Charge =  0 Multiplicity = 1

                         Standard orientation:
 ---------------------------------------------------------------------
 Center     Atomic      Atomic             Coordinates (Angstroms)
 Number     Number       Type             X           Y           Z
 ---------------------------------------------------------------------
      1          6           0       -3.556252   -0.503400   -0.053300
      2          6           0       -4.330467    0.647538   -0.696664
      3          6           0       -5.507710    0.166503   -1.545486
      4          1           0       -3.191302   -1.176842   -0.840848
      5          1           0       -4.241811   -1.094005    0.570070
      6          1           0       -3.643353    1.236609   -1.317538
      7          1           0       -4.693453    1.318421    0.092496
      8          1           0       -6.215456   -0.403423   -0.934847
      9          1           0       -5.159390   -0.485700   -2.352892
     10          1           0       -6.047177    1.005514   -1.995926
     11          6           0       -2.376371   -0.038448    0.798420
     12          6           0       -1.602155   -1.189386    1.441784
     13          6           0       -0.424913   -0.708351    2.290606
     14          1           0       -1.690812    0.552157    0.175050
     15          1           0       -2.741320    0.634994    1.585969
     16          1           0       -1.239169   -1.860269    0.652624
     17          1           0       -2.289270   -1.778457    2.062658
     18          1           0       -0.773232   -0.056148    3.098013
     19          1           0        0.282834   -0.138425    1.679967
     20          1           0        0.114555   -1.547362    2.741046
     21          6           0        3.098214   -0.435869   -0.114730
     22          6           0        3.266090   -1.467092   -1.231146
     23          6           0        3.529366   -2.876298   -0.699531
     24          1           0        4.001929   -0.430753    0.509944
     25          1           0        2.269151   -0.743551    0.537483
     26          1           0        4.093696   -1.156836   -1.881858
     27          1           0        2.361947   -1.469618   -1.853348
     28          1           0        2.700694   -3.210428   -0.066870
     29          1           0        4.442282   -2.895870   -0.095542
     30          1           0        3.646208   -3.597482   -1.514455
     31          6           0        2.834408    0.977717   -0.630390
     32          6           0        2.666532    2.008939    0.486025
     33          6           0        2.403256    3.418146   -0.045589
     34          1           0        3.663472    1.285399   -1.282604
     35          1           0        1.930693    0.972601   -1.255064
     36          1           0        3.570675    2.011466    1.108228
     37          1           0        1.838927    1.698684    1.136737
     38          1           0        1.490340    3.437718   -0.649579
     39          1           0        3.231928    3.752277   -0.678250
     40          1           0        2.286414    4.139331    0.769335
 ---------------------------------------------------------------------

 SCF Done:  E(RHF) =  -470.732847335     A.U. after   11 cycles
 E2 =    -0.1583572232D+01 EUMP2 =    -0.47231641956695D+03

 The electronic state is 1-A.
 Alpha  occ. eigenvalues --  -11.21677 -11.21641 -11.21599 -11.21597 -11.21467
 Alpha  occ. eigenvalues --  -11.21404 -11.21401 -11.21317 -11.21126 -11.21101
 Alpha  occ. eigenvalues --  -11.21072 -11.21070  -1.08496  -1.08428  -1.03590
 Alpha  occ. eigenvalues --   -1.03529  -0.96050  -0.95970  -0.87061  -0.86994
 Alpha  occ. eigenvalues --   -0.79665  -0.79590  -0.78328  -0.78217  -0.65268
 Alpha  occ. eigenvalues --   -0.64963  -0.60995  -0.60929  -0.59413  -0.59336
 Alpha  occ. eigenvalues --   -0.57651  -0.57588  -0.55455  -0.55164  -0.52738
 Alpha  occ. eigenvalues --   -0.52681  -0.52461  -0.52400  -0.50047  -0.49905
 Alpha  occ. eigenvalues --   -0.48038  -0.47879  -0.46799  -0.46622  -0.45934
 Alpha  occ. eigenvalues --   -0.45800  -0.45755  -0.45348  -0.43841  -0.43779
 Alpha virt. eigenvalues --    0.20356   0.23274   0.23763   0.24547   0.25920
 Alpha virt. eigenvalues --    0.26587   0.27183   0.27608   0.28018   0.29570
 Alpha virt. eigenvalues --    0.30565   0.31566   0.31714   0.31938   0.32039

 Mulliken charges:
               1
     1  C   -0.298368
     2  C   -0.299690
     3  C   -0.475751
     4  H    0.149657
     5  H    0.149798
     6  H    0.151854
     7  H    0.152105
     8  H    0.155277
     9  H    0.155226
    10  H    0.160425
    11  C   -0.298368
    12  C   -0.299788
    13  C   -0.485924
    14  H    0.148823
    15  H    0.150042
    16  H    0.151614
    17  H    0.152562
    18  H    0.155904
    19  H    0.164621
    20  H    0.160634
    21  C   -0.305855
    22  C   -0.298994
    23  C   -0.475754
    24  H    0.149735
    25  H    0.157352
    26  H    0.151871
    27  H    0.151162
    28  H    0.155202
    29  H    0.155309
    30  H    0.160140
    31  C   -0.297969
    32  C   -0.305829
    33  C   -0.475225
    34  H    0.149809
    35  H    0.148374
    36  H    0.152384
    37  H    0.157149
    38  H    0.154805
    39  H    0.155200
    40  H    0.160482
 Sum of Mulliken charges =  -0.00000

 Dipole moment (field-independent basis, Debye):
    X=             -0.0169    Y=             -0.0009    Z=              0.0295  Tot=              0.0340
 Quadrupole moment (field-independent basis, Debye-Ang):
   XX=            -84.1544   YY=            -85.9657   ZZ=            -84.5730
   XY=              0.2036   XZ=             -1.0983   YZ=              0.1629

 Normal termination of Gaussian 16 at Thu May  6 02:27:03 2021.
