 Gaussian 16, Revision A.03,
 Gaussian 16:  EM64L-G16RevA.03 25-Dec-2016

 -------------
 #p 6-31g* mp2
 -------------

 ------------------------------------------------------
 Input file generated by CHIRIPA (05-May-2021 14:57:24)
 ------------------------------------------------------
 Symbolic Z-matrix:
 Charge =  0 Multiplicity = 1

                         Standard orientation:
 ---------------------------------------------------------------------
 Center     Atomic      Atomic             Coordinates (Angstroms)
 Number     Number       Type             X           Y           Z
 ---------------------------------------------------------------------
      1          6           0        1.961994   -2.114196    1.374941
      2          6           0        1.954114   -0.802632    1.861007
      3          6           0        2.501287    0.238141    1.104740
      4          6           0        3.050546   -0.069818   -0.138950
      5          6           0        3.073428   -1.366349   -0.650589
      6          6           0        2.520641   -2.391379    0.122901
      7          1           0        1.534756   -2.916579    1.969117
      8          1           0        1.520939   -0.584427    2.833011
      9          1           0        2.508450    1.262520    1.456896
     10          1           0        3.512387   -1.552881   -1.623183
     11          1           0        2.528151   -3.409012   -0.257115
     12          7           0        3.632785    1.023669   -0.948693
     13          8           0        4.110647    0.726196   -2.041302
     14          8           0        3.600257    2.157511   -0.475428
     15          6           0       -1.812185    2.246143    1.042996
     16          6           0       -1.300529    0.960896    1.250047
     17          6           0       -1.925305   -0.152364    0.680087
     18          6           0       -3.065028    0.057062   -0.094807
     19          6           0       -3.598933    1.325031   -0.319509
     20          6           0       -2.957734    2.423795    0.260260
     21          1           0       -1.320466    3.105320    1.489566
     22          1           0       -0.411029    0.819930    1.857472
     23          1           0       -1.550486   -1.158435    0.824131
     24          1           0       -4.487204    1.433952   -0.929860
     25          1           0       -3.357326    3.420773    0.097759
     26          7           0       -3.735143   -1.113824   -0.703390
     27          8           0       -4.737912   -0.902639   -1.381986
     28          8           0       -3.244922   -2.220576   -0.490279
 ---------------------------------------------------------------------

 SCF Done:  E(RHF) =  -868.336932617     A.U. after   16 cycles
 E2 =    -0.2601578450D+01 EUMP2 =    -0.87093851106761D+03

 The electronic state is 1-A.
 Alpha  occ. eigenvalues --  -20.61331 -20.61307 -20.60988 -20.60967 -15.86382
 Alpha  occ. eigenvalues --  -15.86033 -11.31869 -11.31354 -11.28560 -11.28387
 Alpha  occ. eigenvalues --  -11.28210 -11.27947 -11.27895 -11.27640 -11.27605
 Alpha  occ. eigenvalues --  -11.27384 -11.26924 -11.26887  -1.60393  -1.60054
 Alpha  occ. eigenvalues --   -1.39944  -1.39611  -1.20069  -1.19520  -1.09428
 Alpha  occ. eigenvalues --   -1.08923  -1.05521  -1.04913  -0.96239  -0.95765
 Alpha  occ. eigenvalues --   -0.86883  -0.86335  -0.83098  -0.82597  -0.78138
 Alpha  occ. eigenvalues --   -0.77648  -0.72598  -0.72255  -0.71715  -0.71375
 Alpha  occ. eigenvalues --   -0.71145  -0.70629  -0.65740  -0.65545  -0.65174
 Alpha  occ. eigenvalues --   -0.64939  -0.62888  -0.62242  -0.55950  -0.55435
 Alpha  occ. eigenvalues --   -0.53859  -0.53608  -0.53215  -0.52942  -0.49366
 Alpha  occ. eigenvalues --   -0.49344  -0.49014  -0.49003  -0.45324  -0.45027
 Alpha  occ. eigenvalues --   -0.38036  -0.37530  -0.37136  -0.36405
 Alpha virt. eigenvalues --    0.04399   0.04888   0.10402   0.11184   0.15707
 Alpha virt. eigenvalues --    0.16392   0.19524   0.22102   0.25416   0.27090
 Alpha virt. eigenvalues --    0.28412   0.28727   0.29675   0.31620   0.32169

 Mulliken charges:
               1
     1  C   -0.173317
     2  C   -0.228473
     3  C   -0.169330
     4  C    0.160161
     5  C   -0.168541
     6  C   -0.216700
     7  H    0.230527
     8  H    0.220464
     9  H    0.272488
    10  H    0.279477
    11  H    0.229729
    12  N    0.488331
    13  O   -0.456665
    14  O   -0.461817
    15  C   -0.170616
    16  C   -0.215574
    17  C   -0.172070
    18  C    0.158743
    19  C   -0.170476
    20  C   -0.217911
    21  H    0.227069
    22  H    0.216347
    23  H    0.270631
    24  H    0.276329
    25  H    0.225177
    26  N    0.488432
    27  O   -0.459008
    28  O   -0.463407
 Sum of Mulliken charges =  -0.00000

 Dipole moment (field-independent basis, Debye):
    X=              0.4898    Y=              0.1814    Z=              4.7695  Tot=              4.7980
 Quadrupole moment (field-independent basis, Debye-Ang):
   XX=           -129.7072   YY=            -99.9731   ZZ=           -103.8133
   XY=            -28.2187   XZ=              2.6051   YZ=              1.3231

 Normal termination of Gaussian 16 at Thu May  6 22:47:51 2021.
