 Gaussian 16, Revision A.03,
 Gaussian 16:  EM64L-G16RevA.03 25-Dec-2016

 -------------
 #p 6-31g* mp2
 -------------

 ------------------------------------------------------
 Input file generated by CHIRIPA (05-May-2021 14:57:25)
 ------------------------------------------------------
 Symbolic Z-matrix:
 Charge =  0 Multiplicity = 1

                         Standard orientation:
 ---------------------------------------------------------------------
 Center     Atomic      Atomic             Coordinates (Angstroms)
 Number     Number       Type             X           Y           Z
 ---------------------------------------------------------------------
      1          6           0       -1.409514    2.041606   -1.295995
      2          6           0       -2.528095    2.234150   -0.478545
      3          6           0       -3.164909    1.143901    0.121767
      4          6           0       -2.654168   -0.130830   -0.118011
      5          6           0       -1.541567   -0.355067   -0.927411
      6          6           0       -0.920682    0.749890   -1.517429
      7          1           0       -0.921009    2.894250   -1.758334
      8          1           0       -2.909921    3.236182   -0.304805
      9          1           0       -4.032526    1.264373    0.759062
     10          1           0       -1.184046   -1.365868   -1.081932
     11          1           0       -0.052150    0.597361   -2.151804
     12          7           0       -3.319902   -1.292813    0.512063
     13          8           0       -2.850434   -2.405784    0.285055
     14          8           0       -4.298567   -1.068602    1.220994
     15          6           0        2.216499    2.186100    1.322018
     16          6           0        2.297311    2.094102   -0.071368
     17          6           0        2.478920    0.854461   -0.691735
     18          6           0        2.576151   -0.277889    0.115496
     19          6           0        2.499470   -0.218761    1.506148
     20          6           0        2.317659    1.031411    2.104949
     21          1           0        2.075342    3.153174    1.795558
     22          1           0        2.219077    2.989175   -0.681916
     23          1           0        2.544864    0.754533   -1.768343
     24          1           0        2.580923   -1.128650    2.088286
     25          1           0        2.255255    1.099850    3.187292
     26          7           0        2.768521   -1.595816   -0.529844
     27          8           0        2.851255   -2.578527    0.203689
     28          8           0        2.832922   -1.621140   -1.756974
 ---------------------------------------------------------------------

 SCF Done:  E(RHF) =  -868.335721930     A.U. after   16 cycles
 E2 =    -0.2603199921D+01 EUMP2 =    -0.87093892185048D+03

 The electronic state is 1-A.
 Alpha  occ. eigenvalues --  -20.61367 -20.61316 -20.60761 -20.60735 -15.86392
 Alpha  occ. eigenvalues --  -15.85804 -11.31785 -11.31257 -11.28459 -11.28293
 Alpha  occ. eigenvalues --  -11.28095 -11.27846 -11.27753 -11.27659 -11.27455
 Alpha  occ. eigenvalues --  -11.27299 -11.26937 -11.26848  -1.60420  -1.59827
 Alpha  occ. eigenvalues --   -1.39972  -1.39376  -1.19973  -1.19439  -1.09350
 Alpha  occ. eigenvalues --   -1.08846  -1.05405  -1.04843  -0.96185  -0.95658
 Alpha  occ. eigenvalues --   -0.86800  -0.86261  -0.83021  -0.82481  -0.78083
 Alpha  occ. eigenvalues --   -0.77495  -0.72601  -0.72021  -0.71758  -0.71154
 Alpha  occ. eigenvalues --   -0.71094  -0.70593  -0.65630  -0.65432  -0.65099
 Alpha  occ. eigenvalues --   -0.64881  -0.62779  -0.62158  -0.55871  -0.55430
 Alpha  occ. eigenvalues --   -0.53988  -0.53512  -0.53005  -0.52809  -0.49379
 Alpha  occ. eigenvalues --   -0.49350  -0.48793  -0.48768  -0.45364  -0.44761
 Alpha  occ. eigenvalues --   -0.38014  -0.37787  -0.36872  -0.36066
 Alpha virt. eigenvalues --    0.04427   0.04992   0.10482   0.11297   0.15944
 Alpha virt. eigenvalues --    0.16547   0.19559   0.21967   0.25527   0.26236
 Alpha virt. eigenvalues --    0.28093   0.29018   0.29737   0.31240   0.32308

 Mulliken charges:
               1
     1  C   -0.171432
     2  C   -0.219388
     3  C   -0.172058
     4  C    0.158901
     5  C   -0.174976
     6  C   -0.212307
     7  H    0.218171
     8  H    0.221131
     9  H    0.275010
    10  H    0.282098
    11  H    0.223185
    12  N    0.487439
    13  O   -0.456370
    14  O   -0.461901
    15  C   -0.168865
    16  C   -0.215125
    17  C   -0.178070
    18  C    0.160516
    19  C   -0.168862
    20  C   -0.217127
    21  H    0.226363
    22  H    0.218177
    23  H    0.270521
    24  H    0.279848
    25  H    0.227001
    26  N    0.486760
    27  O   -0.453292
    28  O   -0.465348
 Sum of Mulliken charges =  -0.00000

 Dipole moment (field-independent basis, Debye):
    X=              1.7652    Y=              8.5294    Z=              0.2994  Tot=              8.7153
 Quadrupole moment (field-independent basis, Debye-Ang):
   XX=           -119.9566   YY=           -106.5841   ZZ=            -99.4701
   XY=             -1.3254   XZ=             10.4088   YZ=             -0.8301

 Normal termination of Gaussian 16 at Thu May  6 09:54:53 2021.
