 Gaussian 16, Revision A.03,
 Gaussian 16:  EM64L-G16RevA.03 25-Dec-2016

 -------------
 #p 6-31g* mp2
 -------------

 ------------------------------------------------------
 Input file generated by CHIRIPA (05-May-2021 14:51:08)
 ------------------------------------------------------
 Symbolic Z-matrix:
 Charge =  0 Multiplicity = 1

                         Standard orientation:
 ---------------------------------------------------------------------
 Center     Atomic      Atomic             Coordinates (Angstroms)
 Number     Number       Type             X           Y           Z
 ---------------------------------------------------------------------
      1          6           0        2.977290   -0.734676    0.074510
      2          6           0        2.173228   -1.356062    1.217028
      3          6           0        1.747983   -2.795594    0.925980
      4          1           0        2.377051   -0.762373   -0.845213
      5          1           0        3.867827   -1.349904   -0.114791
      6          1           0        1.285195   -0.739081    1.405039
      7          1           0        2.775378   -1.326709    2.134181
      8          1           0        2.624538   -3.430032    0.759426
      9          1           0        1.125888   -2.839067    0.026142
     10          1           0        1.174479   -3.220357    1.755756
     11          6           0        3.409621    0.704277    0.350610
     12          6           0        4.213683    1.325663   -0.791909
     13          6           0        4.638928    2.765195   -0.500860
     14          1           0        2.519084    1.319505    0.539911
     15          1           0        4.009860    0.731974    1.270333
     16          1           0        3.611533    1.296309   -1.709062
     17          1           0        5.101717    0.708682   -0.979920
     18          1           0        5.261023    2.808668    0.398978
     19          1           0        3.762373    3.399633   -0.334307
     20          1           0        5.212432    3.189957   -1.330637
     21          6           0       -3.379288    0.742514   -0.353667
     22          6           0       -4.165886    1.398592    0.781592
     23          6           0       -4.530337    2.853480    0.484482
     24          1           0       -2.463780    1.320863   -0.538880
     25          1           0       -3.972284    0.791634   -1.277429
     26          1           0       -3.572162    1.347017    1.703247
     27          1           0       -5.079532    0.818506    0.964254
     28          1           0       -5.143544    2.920010   -0.420036
     29          1           0       -3.627610    3.451526    0.323157
     30          1           0       -5.092240    3.303036    1.309117
     31          6           0       -3.007623   -0.712116   -0.071453
     32          6           0       -2.221026   -1.368193   -1.206712
     33          6           0       -1.856574   -2.823080   -0.909601
     34          1           0       -2.414627   -0.761235    0.852310
     35          1           0       -3.923131   -1.290464    0.113761
     36          1           0       -1.307380   -0.788106   -1.389373
     37          1           0       -2.814749   -1.316618   -2.128366
     38          1           0       -2.759302   -3.421126   -0.748276
     39          1           0       -1.243368   -2.889611   -0.005084
     40          1           0       -1.294671   -3.272637   -1.734237
 ---------------------------------------------------------------------

 SCF Done:  E(RHF) =  -470.733016315     A.U. after   11 cycles
 E2 =    -0.1582860865D+01 EUMP2 =    -0.47231587717985D+03

 The electronic state is 1-A.
 Alpha  occ. eigenvalues --  -11.21636 -11.21634 -11.21626 -11.21625 -11.21437
 Alpha  occ. eigenvalues --  -11.21435 -11.21378 -11.21376 -11.21092 -11.21092
 Alpha  occ. eigenvalues --  -11.21038 -11.21030  -1.08469  -1.08447  -1.03586
 Alpha  occ. eigenvalues --   -1.03519  -0.96057  -0.95945  -0.87094  -0.86942
 Alpha  occ. eigenvalues --   -0.79672  -0.79559  -0.78276  -0.78266  -0.65188
 Alpha  occ. eigenvalues --   -0.65006  -0.61185  -0.60742  -0.59395  -0.59343
 Alpha  occ. eigenvalues --   -0.57625  -0.57595  -0.55595  -0.55011  -0.52732
 Alpha  occ. eigenvalues --   -0.52683  -0.52429  -0.52384  -0.50227  -0.49637
 Alpha  occ. eigenvalues --   -0.47960  -0.47894  -0.46766  -0.46486  -0.45851
 Alpha  occ. eigenvalues --   -0.45777  -0.45733  -0.45713  -0.43810  -0.43805
 Alpha virt. eigenvalues --    0.20424   0.23327   0.23589   0.25336   0.26169
 Alpha virt. eigenvalues --    0.26546   0.26905   0.27726   0.27962   0.29071
 Alpha virt. eigenvalues --    0.30976   0.31218   0.31581   0.31926   0.32066

 Mulliken charges:
               1
     1  C   -0.298641
     2  C   -0.299876
     3  C   -0.481496
     4  H    0.149699
     5  H    0.149870
     6  H    0.150915
     7  H    0.152193
     8  H    0.155293
     9  H    0.162734
    10  H    0.159420
    11  C   -0.298224
    12  C   -0.299700
    13  C   -0.475706
    14  H    0.149097
    15  H    0.149810
    16  H    0.151955
    17  H    0.152068
    18  H    0.155239
    19  H    0.155099
    20  H    0.160383
    21  C   -0.298217
    22  C   -0.299698
    23  C   -0.475701
    24  H    0.149185
    25  H    0.149679
    26  H    0.151936
    27  H    0.152083
    28  H    0.155243
    29  H    0.155080
    30  H    0.160380
    31  C   -0.298593
    32  C   -0.300041
    33  C   -0.481319
    34  H    0.149619
    35  H    0.149983
    36  H    0.150913
    37  H    0.152199
    38  H    0.155256
    39  H    0.162456
    40  H    0.159427
 Sum of Mulliken charges =  -0.00000

 Dipole moment (field-independent basis, Debye):
    X=              0.0011    Y=             -0.0186    Z=              0.0006  Tot=              0.0187
 Quadrupole moment (field-independent basis, Debye-Ang):
   XX=            -83.4459   YY=            -86.7481   ZZ=            -84.4817
   XY=             -0.0685   XZ=              0.6678   YZ=             -0.0095

 Normal termination of Gaussian 16 at Thu May  6 14:52:37 2021.
