 Gaussian 16, Revision A.03,
 Gaussian 16:  EM64L-G16RevA.03 25-Dec-2016

 -------------
 #p 6-31g* mp2
 -------------

 ------------------------------------------------------
 Input file generated by CHIRIPA (05-May-2021 14:53:15)
 ------------------------------------------------------
 Symbolic Z-matrix:
 Charge =  0 Multiplicity = 1

                         Standard orientation:
 ---------------------------------------------------------------------
 Center     Atomic      Atomic             Coordinates (Angstroms)
 Number     Number       Type             X           Y           Z
 ---------------------------------------------------------------------
      1          6           0        2.560245   -0.011723   -0.547995
      2          6           0        2.947059   -1.317641    0.146942
      3          6           0        3.321305   -2.424029   -0.839790
      4          1           0        1.717014   -0.200603   -1.226399
      5          1           0        3.397491    0.323381   -1.175783
      6          1           0        2.109847   -1.649456    0.774311
      7          1           0        3.789343   -1.125591    0.823914
      8          1           0        4.171403   -2.117610   -1.457884
      9          1           0        2.482365   -2.644451   -1.507769
     10          1           0        3.594386   -3.348584   -0.321634
     11          6           0        2.183515    1.103908    0.425232
     12          6           0        1.796700    2.409826   -0.269704
     13          6           0        1.422455    3.516214    0.717028
     14          1           0        1.346269    0.768803    1.053021
     15          1           0        3.026745    1.292788    1.103637
     16          1           0        0.954417    2.217775   -0.946676
     17          1           0        2.633912    2.741640   -0.897073
     18          1           0        2.261394    3.736636    1.385007
     19          1           0        0.572356    3.209794    1.335122
     20          1           0        1.149373    4.440768    0.198872
     21          6           0       -2.423877    0.256654   -2.312804
     22          6           0       -3.131009    0.801554   -1.235971
     23          6           0       -2.823288    0.430231    0.076271
     24          6           0       -1.797844   -0.492692    0.276183
     25          6           0       -1.075122   -1.053266   -0.775824
     26          6           0       -1.399995   -0.667387   -2.079705
     27          1           0       -2.669584    0.550759   -3.328936
     28          1           0       -3.926662    1.519387   -1.414008
     29          1           0       -3.354677    0.836479    0.928331
     30          1           0       -0.287166   -1.766616   -0.566841
     31          1           0       -0.849145   -1.092199   -2.914057
     32          7           0       -1.462994   -0.893499    1.660969
     33          8           0       -0.555195   -1.708471    1.810491
     34          8           0       -2.114679   -0.385090    2.570619
 ---------------------------------------------------------------------

 SCF Done:  E(RHF) =  -669.535636047     A.U. after   15 cycles
 E2 =    -0.2095299489D+01 EUMP2 =    -0.67163093553602D+03

 The electronic state is 1-A.
 Alpha  occ. eigenvalues --  -20.61041 -20.61035 -15.86059 -11.31351 -11.27920
 Alpha  occ. eigenvalues --  -11.27914 -11.27651 -11.26917 -11.26904 -11.21475
 Alpha  occ. eigenvalues --  -11.21267 -11.21178 -11.21127 -11.21059 -11.20938
 Alpha  occ. eigenvalues --   -1.60095  -1.39652  -1.19531  -1.08934  -1.08256
 Alpha  occ. eigenvalues --   -1.04923  -1.03373  -0.95858  -0.95777  -0.86870
 Alpha  occ. eigenvalues --   -0.86319  -0.82621  -0.79407  -0.78053  -0.77680
 Alpha  occ. eigenvalues --   -0.72289  -0.71418  -0.70643  -0.65185  -0.65119
 Alpha  occ. eigenvalues --   -0.64735  -0.62275  -0.60732  -0.59206  -0.57445
 Alpha  occ. eigenvalues --   -0.55417  -0.55201  -0.53235  -0.53000  -0.52534
 Alpha  occ. eigenvalues --   -0.52269  -0.49814  -0.49076  -0.49032  -0.47728
 Alpha  occ. eigenvalues --   -0.46429  -0.45702  -0.45612  -0.44807  -0.43614
 Alpha  occ. eigenvalues --   -0.37495  -0.36458
 Alpha virt. eigenvalues --    0.04799   0.11085   0.16201   0.19917   0.23035
 Alpha virt. eigenvalues --    0.23817   0.26190   0.27066   0.27946   0.28018
 Alpha virt. eigenvalues --    0.29169   0.30611   0.31401   0.31866   0.32063

 Mulliken charges:
               1
     1  C   -0.299945
     2  C   -0.316701
     3  C   -0.473776
     4  H    0.140306
     5  H    0.147728
     6  H    0.177250
     7  H    0.154100
     8  H    0.154264
     9  H    0.142319
    10  H    0.164119
    11  C   -0.299199
    12  C   -0.300697
    13  C   -0.475571
    14  H    0.153429
    15  H    0.151831
    16  H    0.149927
    17  H    0.150005
    18  H    0.156595
    19  H    0.156957
    20  H    0.157372
    21  C   -0.170440
    22  C   -0.218650
    23  C   -0.170740
    24  C    0.155491
    25  C   -0.170496
    26  C   -0.220068
    27  H    0.226684
    28  H    0.224300
    29  H    0.276111
    30  H    0.281960
    31  H    0.225024
    32  N    0.489942
    33  O   -0.461459
    34  O   -0.457971
 Sum of Mulliken charges =  -0.00000

 Dipole moment (field-independent basis, Debye):
    X=             -1.3235    Y=              1.3696    Z=             -4.6878  Tot=              5.0599
 Quadrupole moment (field-independent basis, Debye-Ang):
   XX=            -87.3456   YY=            -95.7554   ZZ=            -97.6805
   XY=             -4.0370   XZ=              7.8640   YZ=              3.3242

 Normal termination of Gaussian 16 at Thu May  6 09:01:30 2021.
