 Gaussian 16, Revision A.03,
 Gaussian 16:  EM64L-G16RevA.03 25-Dec-2016

 -------------
 #p 6-31g* mp2
 -------------

 ------------------------------------------------------
 Input file generated by CHIRIPA (05-May-2021 14:57:21)
 ------------------------------------------------------
 Symbolic Z-matrix:
 Charge =  0 Multiplicity = 1

                         Standard orientation:
 ---------------------------------------------------------------------
 Center     Atomic      Atomic             Coordinates (Angstroms)
 Number     Number       Type             X           Y           Z
 ---------------------------------------------------------------------
      1          6           0        5.929693    1.508452   -0.265014
      2          6           0        4.759814    1.821719    0.434819
      3          6           0        3.767630    0.855841    0.627686
      4          6           0        3.979175   -0.418977    0.104829
      5          6           0        5.133905   -0.761774   -0.596869
      6          6           0        6.112682    0.219977   -0.777721
      7          1           0        6.695238    2.264935   -0.410171
      8          1           0        4.614999    2.821541    0.834106
      9          1           0        2.852375    1.071289    1.165559
     10          1           0        5.249779   -1.767141   -0.983169
     11          1           0        7.020223   -0.026148   -1.321631
     12          7           0        2.935891   -1.449911    0.302649
     13          8           0        3.146310   -2.565685   -0.167892
     14          8           0        1.927499   -1.122662    0.924495
     15          6           0       -1.920474    1.428094   -0.066434
     16          6           0       -1.974004    0.031161   -0.019171
     17          6           0       -3.204370   -0.632721   -0.021895
     18          6           0       -4.366772    0.135082   -0.072786
     19          6           0       -4.346250    1.528130   -0.120605
     20          6           0       -3.104681    2.170811   -0.116912
     21          1           0       -0.960345    1.935579   -0.063942
     22          1           0       -1.055948   -0.548215    0.020087
     23          1           0       -3.274763   -1.713078    0.014052
     24          1           0       -5.278424    2.078571   -0.159155
     25          1           0       -3.066144    3.255803   -0.153686
     26          7           0       -5.675235   -0.556518   -0.076183
     27          8           0       -6.684952    0.142806   -0.121509
     28          8           0       -5.666316   -1.784822   -0.033453
 ---------------------------------------------------------------------

 SCF Done:  E(RHF) =  -868.339488573     A.U. after   16 cycles
 E2 =    -0.2598518789D+01 EUMP2 =    -0.87093800736151D+03

 The electronic state is 1-A.
 Alpha  occ. eigenvalues --  -20.61820 -20.61752 -20.60226 -20.60212 -15.86816
 Alpha  occ. eigenvalues --  -15.85267 -11.32001 -11.30543 -11.28584 -11.28509
 Alpha  occ. eigenvalues --  -11.28229 -11.27529 -11.27480 -11.27129 -11.26988
 Alpha  occ. eigenvalues --  -11.26822 -11.26182 -11.25878  -1.60846  -1.59298
 Alpha  occ. eigenvalues --   -1.40407  -1.38853  -1.20150  -1.18688  -1.09573
 Alpha  occ. eigenvalues --   -1.08110  -1.05527  -1.04053  -0.96440  -0.94966
 Alpha  occ. eigenvalues --   -0.86931  -0.85457  -0.83281  -0.81782  -0.78356
 Alpha  occ. eigenvalues --   -0.76834  -0.73039  -0.72152  -0.71488  -0.71250
 Alpha  occ. eigenvalues --   -0.70619  -0.69830  -0.65805  -0.65522  -0.64334
 Alpha  occ. eigenvalues --   -0.64014  -0.62880  -0.61375  -0.56018  -0.54604
 Alpha  occ. eigenvalues --   -0.53862  -0.53614  -0.52421  -0.52112  -0.49810
 Alpha  occ. eigenvalues --   -0.49770  -0.48249  -0.48236  -0.45844  -0.44278
 Alpha  occ. eigenvalues --   -0.38109  -0.37123  -0.36694  -0.35652
 Alpha virt. eigenvalues --    0.04138   0.05657   0.10534   0.11993   0.15650
 Alpha virt. eigenvalues --    0.17180   0.20577   0.22147   0.26473   0.27266
 Alpha virt. eigenvalues --    0.28351   0.28845   0.30497   0.31525   0.32189

 Mulliken charges:
               1
     1  C   -0.169953
     2  C   -0.218241
     3  C   -0.172131
     4  C    0.158303
     5  C   -0.170143
     6  C   -0.218241
     7  H    0.228218
     8  H    0.224392
     9  H    0.271515
    10  H    0.277562
    11  H    0.226303
    12  N    0.489730
    13  O   -0.454313
    14  O   -0.469957
    15  C   -0.172203
    16  C   -0.225558
    17  C   -0.172666
    18  C    0.158628
    19  C   -0.172940
    20  C   -0.218463
    21  H    0.219900
    22  H    0.245856
    23  H    0.277507
    24  H    0.272931
    25  H    0.219024
    26  N    0.487991
    27  O   -0.462974
    28  O   -0.460077
 Sum of Mulliken charges =  -0.00000

 Dipole moment (field-independent basis, Debye):
    X=              8.7895    Y=              5.8986    Z=             -0.7278  Tot=             10.6103
 Quadrupole moment (field-independent basis, Debye-Ang):
   XX=           -113.5706   YY=           -101.5765   ZZ=           -105.2839
   XY=             -1.0436   XZ=             -4.6711   YZ=              2.2867

 Normal termination of Gaussian 16 at Thu May  6 11:09:23 2021.
