 Gaussian 16, Revision A.03,
 Gaussian 16:  EM64L-G16RevA.03 25-Dec-2016

 -------------
 #p 6-31g* mp2
 -------------

 ------------------------------------------------------
 Input file generated by CHIRIPA (05-May-2021 14:55:22)
 ------------------------------------------------------
 Symbolic Z-matrix:
 Charge =  0 Multiplicity = 1

                         Standard orientation:
 ---------------------------------------------------------------------
 Center     Atomic      Atomic             Coordinates (Angstroms)
 Number     Number       Type             X           Y           Z
 ---------------------------------------------------------------------
      1          6           0       -1.848838    1.416261    1.699167
      2          6           0       -2.907273    0.657226    2.209170
      3          6           0       -3.672390   -0.152088    1.364093
      4          6           0       -3.349889   -0.178605    0.008150
      5          6           0       -2.301546    0.566085   -0.530090
      6          6           0       -1.549880    1.368353    0.333572
      7          1           0       -1.259702    2.042219    2.362862
      8          1           0       -3.141727    0.692471    3.269280
      9          1           0       -4.497266   -0.749903    1.732350
     10          1           0       -2.091845    0.510276   -1.591377
     11          1           0       -0.728459    1.956761   -0.065288
     12          7           0       -4.152764   -1.031660   -0.896333
     13          8           0       -3.848366   -1.037566   -2.087107
     14          8           0       -5.071252   -1.678225   -0.397365
     15          6           0        4.672361   -0.311241    0.182330
     16          6           0        4.628420   -1.831708    0.026654
     17          6           0        5.742762   -2.537563    0.799833
     18          1           0        5.648805    0.057954   -0.160010
     19          1           0        4.598223   -0.056522    1.248641
     20          1           0        4.701225   -2.083430   -1.039155
     21          1           0        3.651896   -2.197306    0.369227
     22          1           0        5.669851   -2.315552    1.869411
     23          1           0        6.725141   -2.201030    0.453026
     24          1           0        5.692532   -3.623680    0.674591
     25          6           0        3.564606    0.408550   -0.584814
     26          6           0        3.608547    1.929017   -0.429138
     27          6           0        2.494206    2.634871   -1.202317
     28          1           0        3.638744    0.153831   -1.651124
     29          1           0        2.588163    0.039354   -0.242473
     30          1           0        4.585071    2.294615   -0.771710
     31          1           0        3.535741    2.180739    0.636672
     32          1           0        1.511825    2.298338   -0.855510
     33          1           0        2.567116    2.412861   -2.271895
     34          1           0        2.544435    3.720989   -1.077074
 ---------------------------------------------------------------------

 SCF Done:  E(RHF) =  -669.535518438     A.U. after   15 cycles
 E2 =    -0.2090864633D+01 EUMP2 =    -0.67162638307064D+03

 The electronic state is 1-A.
 Alpha  occ. eigenvalues --  -20.60754 -20.60749 -15.85808 -11.31179 -11.27755
 Alpha  occ. eigenvalues --  -11.27746 -11.27500 -11.26770 -11.26748 -11.22320
 Alpha  occ. eigenvalues --  -11.22031 -11.21946 -11.21921 -11.21805 -11.21337
 Alpha  occ. eigenvalues --   -1.59830  -1.39383  -1.19355  -1.08957  -1.08750
 Alpha  occ. eigenvalues --   -1.04760  -1.04081  -0.96544  -0.95583  -0.87566
 Alpha  occ. eigenvalues --   -0.86159  -0.82416  -0.80149  -0.78737  -0.77461
 Alpha  occ. eigenvalues --   -0.72027  -0.71153  -0.70464  -0.65605  -0.65007
 Alpha  occ. eigenvalues --   -0.64778  -0.62150  -0.61452  -0.59915  -0.58133
 Alpha  occ. eigenvalues --   -0.55866  -0.55254  -0.53243  -0.53095  -0.53061
 Alpha  occ. eigenvalues --   -0.52755  -0.50483  -0.48789  -0.48781  -0.48452
 Alpha  occ. eigenvalues --   -0.47174  -0.46285  -0.46190  -0.44787  -0.44316
 Alpha  occ. eigenvalues --   -0.37339  -0.36362
 Alpha virt. eigenvalues --    0.05074   0.11256   0.16534   0.19803   0.22592
 Alpha virt. eigenvalues --    0.23748   0.25276   0.26446   0.27235   0.28317
 Alpha virt. eigenvalues --    0.28554   0.30002   0.31120   0.31542   0.32113

 Mulliken charges:
               1
     1  C   -0.172889
     2  C   -0.218589
     3  C   -0.171011
     4  C    0.158694
     5  C   -0.173141
     6  C   -0.226819
     7  H    0.225918
     8  H    0.223337
     9  H    0.275601
    10  H    0.276237
    11  H    0.235238
    12  N    0.488097
    13  O   -0.460261
    14  O   -0.460586
    15  C   -0.298511
    16  C   -0.300265
    17  C   -0.475999
    18  H    0.150798
    19  H    0.148741
    20  H    0.153475
    21  H    0.152851
    22  H    0.154797
    23  H    0.155619
    24  H    0.162005
    25  C   -0.299172
    26  C   -0.299369
    27  C   -0.480627
    28  H    0.151998
    29  H    0.148629
    30  H    0.155618
    31  H    0.150391
    32  H    0.145987
    33  H    0.160630
    34  H    0.162581
 Sum of Mulliken charges =  -0.00000

 Dipole moment (field-independent basis, Debye):
    X=              2.9869    Y=              2.9716    Z=              3.1573  Tot=              5.2650
 Quadrupole moment (field-independent basis, Debye-Ang):
   XX=           -112.2685   YY=            -96.4954   ZZ=            -91.4308
   XY=             -9.1340   XZ=            -14.3182   YZ=             -1.6000

 Normal termination of Gaussian 16 at Thu May  6 14:13:04 2021.
