 Gaussian 16, Revision A.03,
 Gaussian 16:  EM64L-G16RevA.03 25-Dec-2016

 -------------
 #p 6-31g* mp2
 -------------

 ------------------------------------------------------
 Input file generated by CHIRIPA (05-May-2021 14:53:11)
 ------------------------------------------------------
 Symbolic Z-matrix:
 Charge =  0 Multiplicity = 1

                         Standard orientation:
 ---------------------------------------------------------------------
 Center     Atomic      Atomic             Coordinates (Angstroms)
 Number     Number       Type             X           Y           Z
 ---------------------------------------------------------------------
      1          6           0        4.519502    0.145504   -0.622964
      2          6           0        5.335263   -1.090413   -0.242141
      3          6           0        6.196124   -1.608667   -1.394584
      4          1           0        3.878210   -0.096532   -1.481514
      5          1           0        5.202754    0.938614   -0.956939
      6          1           0        4.650771   -1.880487    0.092330
      7          1           0        5.974548   -0.845462    0.615723
      8          1           0        6.901727   -0.839360   -1.724571
      9          1           0        5.570429   -1.880266   -2.250938
     10          1           0        6.770842   -2.492444   -1.100479
     11          6           0        3.653793    0.675388    0.518745
     12          6           0        2.838032    1.911306    0.137922
     13          6           0        1.977171    2.429560    1.290365
     14          1           0        2.970541   -0.117721    0.852720
     15          1           0        4.295085    0.917425    1.377294
     16          1           0        2.198747    1.666355   -0.719942
     17          1           0        3.522524    2.701380   -0.196549
     18          1           0        2.602866    2.701158    2.146719
     19          1           0        1.271568    1.660253    1.620352
     20          1           0        1.402453    3.313337    0.996260
     21          6           0       -1.647187   -1.740603    1.441103
     22          6           0       -2.761152   -2.318509    0.823341
     23          6           0       -3.624283   -1.541370    0.045134
     24          6           0       -3.342107   -0.183387   -0.094674
     25          6           0       -2.240343    0.421596    0.508154
     26          6           0       -1.390790   -0.374804    1.281819
     27          1           0       -0.981961   -2.351784    2.043869
     28          1           0       -2.962745   -3.378949    0.945296
     29          1           0       -4.493828   -1.963000   -0.444292
     30          1           0       -2.065426    1.481420    0.368170
     31          1           0       -0.526421    0.076706    1.760410
     32          7           0       -4.248678    0.649530   -0.916124
     33          8           0       -3.978095    1.843615   -1.023750
     34          8           0       -5.212665    0.092515   -1.436796
 ---------------------------------------------------------------------

 SCF Done:  E(RHF) =  -669.535478267     A.U. after   15 cycles
 E2 =    -0.2090993522D+01 EUMP2 =    -0.67162647178928D+03

 The electronic state is 1-A.
 Alpha  occ. eigenvalues --  -20.60756 -20.60751 -15.85810 -11.31177 -11.27752
 Alpha  occ. eigenvalues --  -11.27739 -11.27497 -11.26768 -11.26746 -11.22241
 Alpha  occ. eigenvalues --  -11.22053 -11.22020 -11.21959 -11.21851 -11.21431
 Alpha  occ. eigenvalues --   -1.59832  -1.39385  -1.19352  -1.08996  -1.08748
 Alpha  occ. eigenvalues --   -1.04757  -1.04106  -0.96571  -0.95581  -0.87589
 Alpha  occ. eigenvalues --   -0.86156  -0.82415  -0.80168  -0.78794  -0.77461
 Alpha  occ. eigenvalues --   -0.72028  -0.71155  -0.70461  -0.65644  -0.65005
 Alpha  occ. eigenvalues --   -0.64773  -0.62164  -0.61458  -0.59931  -0.58166
 Alpha  occ. eigenvalues --   -0.55894  -0.55251  -0.53253  -0.53091  -0.53074
 Alpha  occ. eigenvalues --   -0.52772  -0.50507  -0.48791  -0.48782  -0.48476
 Alpha  occ. eigenvalues --   -0.47194  -0.46340  -0.46253  -0.44790  -0.44349
 Alpha  occ. eigenvalues --   -0.37337  -0.36358
 Alpha virt. eigenvalues --    0.05074   0.11277   0.16537   0.19403   0.22654
 Alpha virt. eigenvalues --    0.23712   0.25298   0.26538   0.26980   0.28282
 Alpha virt. eigenvalues --    0.29003   0.29657   0.31159   0.31531   0.32117

 Mulliken charges:
               1
     1  C   -0.298964
     2  C   -0.299649
     3  C   -0.476055
     4  H    0.151444
     5  H    0.151644
     6  H    0.149987
     7  H    0.152337
     8  H    0.156461
     9  H    0.156104
    10  H    0.160883
    11  C   -0.297374
    12  C   -0.300510
    13  C   -0.479806
    14  H    0.143413
    15  H    0.150755
    16  H    0.154791
    17  H    0.156204
    18  H    0.159300
    19  H    0.144175
    20  H    0.165311
    21  C   -0.172129
    22  C   -0.218549
    23  C   -0.171020
    24  C    0.158572
    25  C   -0.173303
    26  C   -0.224904
    27  H    0.226058
    28  H    0.223338
    29  H    0.275580
    30  H    0.276228
    31  H    0.232457
    32  N    0.488132
    33  O   -0.460322
    34  O   -0.460587
 Sum of Mulliken charges =  -0.00000

 Dipole moment (field-independent basis, Debye):
    X=              3.3544    Y=             -2.8741    Z=              2.8275  Tot=              5.2448
 Quadrupole moment (field-independent basis, Debye-Ang):
   XX=           -114.3090   YY=            -90.2594   ZZ=            -96.4075
   XY=             12.9641   XZ=             -8.8183   YZ=              0.3914

 Normal termination of Gaussian 16 at Wed May  5 15:25:34 2021.
