 Gaussian 16, Revision A.03,
 Gaussian 16:  EM64L-G16RevA.03 25-Dec-2016

 -------------
 #p 6-31g* mp2
 -------------

 ------------------------------------------------------
 Input file generated by CHIRIPA (05-May-2021 14:51:11)
 ------------------------------------------------------
 Symbolic Z-matrix:
 Charge =  0 Multiplicity = 1

                         Standard orientation:
 ---------------------------------------------------------------------
 Center     Atomic      Atomic             Coordinates (Angstroms)
 Number     Number       Type             X           Y           Z
 ---------------------------------------------------------------------
      1          6           0        2.777332   -0.249815    0.737581
      2          6           0        1.730272    0.833614    0.998026
      3          6           0        0.567367    0.337365    1.857783
      4          1           0        2.295347   -1.105999    0.246068
      5          1           0        3.161721   -0.617168    1.699190
      6          1           0        1.348974    1.199789    0.036182
      7          1           0        2.214844    1.687397    1.488803
      8          1           0        0.928665   -0.009764    2.831213
      9          1           0        0.057875   -0.500142    1.370339
     10          1           0       -0.169343    1.127884    2.031560
     11          6           0        3.946145    0.231059   -0.120536
     12          6           0        4.993204   -0.852370   -0.380981
     13          6           0        6.156110   -0.356121   -1.240738
     14          1           0        3.561755    0.598412   -1.082145
     15          1           0        4.428130    1.087243    0.370977
     16          1           0        4.508632   -1.706153   -0.871758
     17          1           0        5.374503   -1.218545    0.580863
     18          1           0        6.665601    0.481386   -0.753294
     19          1           0        5.794811   -0.008992   -2.214168
     20          1           0        6.892819   -1.146640   -1.414514
     21          6           0       -3.616055    0.724695   -0.392652
     22          6           0       -2.501156    1.770918   -0.372609
     23          6           0       -3.025687    3.197088   -0.542026
     24          1           0       -4.167623    0.803988   -1.339452
     25          1           0       -4.334757    0.949511    0.407548
     26          1           0       -1.784038    1.543396   -1.171728
     27          1           0       -1.952058    1.688998    0.574173
     28          1           0       -3.725154    3.448333    0.261853
     29          1           0       -3.556180    3.301904   -1.493967
     30          1           0       -2.211977    3.928823   -0.524741
     31          6           0       -3.107422   -0.705939   -0.224393
     32          6           0       -4.222320   -1.752162   -0.244436
     33          6           0       -3.697790   -3.178332   -0.075019
     34          1           0       -2.388720   -0.930755   -1.024593
     35          1           0       -2.555854   -0.785232    0.722408
     36          1           0       -4.771419   -1.670242   -1.191218
     37          1           0       -4.939438   -1.524640    0.554683
     38          1           0       -3.167297   -3.283148    0.876922
     39          1           0       -2.998322   -3.429577   -0.878898
     40          1           0       -4.511500   -3.910067   -0.092304
 ---------------------------------------------------------------------

 SCF Done:  E(RHF) =  -470.732915433     A.U. after   11 cycles
 E2 =    -0.1583319209D+01 EUMP2 =    -0.47231623464215D+03

 The electronic state is 1-A.
 Alpha  occ. eigenvalues --  -11.21597 -11.21593 -11.21581 -11.21542 -11.21395
 Alpha  occ. eigenvalues --  -11.21384 -11.21336 -11.21325 -11.21072 -11.21068
 Alpha  occ. eigenvalues --  -11.21052 -11.21039  -1.08436  -1.08397  -1.03543
 Alpha  occ. eigenvalues --   -1.03491  -0.95976  -0.95965  -0.87007  -0.86971
 Alpha  occ. eigenvalues --   -0.79606  -0.79565  -0.78248  -0.78209  -0.65093
 Alpha  occ. eigenvalues --   -0.65011  -0.60954  -0.60903  -0.59464  -0.59223
 Alpha  occ. eigenvalues --   -0.57679  -0.57483  -0.55301  -0.55218  -0.52751
 Alpha  occ. eigenvalues --   -0.52616  -0.52474  -0.52315  -0.49937  -0.49896
 Alpha  occ. eigenvalues --   -0.48000  -0.47798  -0.46652  -0.46584  -0.45829
 Alpha  occ. eigenvalues --   -0.45746  -0.45689  -0.45574  -0.43781  -0.43717
 Alpha virt. eigenvalues --    0.21438   0.23126   0.23690   0.24364   0.25890
 Alpha virt. eigenvalues --    0.26243   0.27169   0.27404   0.28063   0.29193
 Alpha virt. eigenvalues --    0.30114   0.30993   0.31696   0.32062   0.32134

 Mulliken charges:
               1
     1  C   -0.298582
     2  C   -0.300407
     3  C   -0.480860
     4  H    0.149879
     5  H    0.149471
     6  H    0.153385
     7  H    0.151593
     8  H    0.154570
     9  H    0.159112
    10  H    0.161939
    11  C   -0.298259
    12  C   -0.299649
    13  C   -0.475694
    14  H    0.149427
    15  H    0.149622
    16  H    0.151935
    17  H    0.151934
    18  H    0.155172
    19  H    0.155133
    20  H    0.160241
    21  C   -0.297728
    22  C   -0.306534
    23  C   -0.475437
    24  H    0.149383
    25  H    0.149285
    26  H    0.151129
    27  H    0.160148
    28  H    0.154920
    29  H    0.155001
    30  H    0.160046
    31  C   -0.302117
    32  C   -0.299419
    33  C   -0.475805
    34  H    0.148518
    35  H    0.154383
    36  H    0.151874
    37  H    0.151990
    38  H    0.155230
    39  H    0.154839
    40  H    0.160334
 Sum of Mulliken charges =  -0.00000

 Dipole moment (field-independent basis, Debye):
    X=              0.0029    Y=             -0.0048    Z=              0.0161  Tot=              0.0171
 Quadrupole moment (field-independent basis, Debye-Ang):
   XX=            -85.4872   YY=            -85.9896   ZZ=            -83.4432
   XY=              0.2136   XZ=              0.7856   YZ=              0.5976

 Normal termination of Gaussian 16 at Thu May  6 03:52:35 2021.
