 Gaussian 16, Revision A.03,
 Gaussian 16:  EM64L-G16RevA.03 25-Dec-2016

 -------------
 #p 6-31g* mp2
 -------------

 ------------------------------------------------------
 Input file generated by CHIRIPA (05-May-2021 14:57:23)
 ------------------------------------------------------
 Symbolic Z-matrix:
 Charge =  0 Multiplicity = 1

                         Standard orientation:
 ---------------------------------------------------------------------
 Center     Atomic      Atomic             Coordinates (Angstroms)
 Number     Number       Type             X           Y           Z
 ---------------------------------------------------------------------
      1          6           0        2.673097    2.438094    0.554941
      2          6           0        1.814308    1.517080   -0.053942
      3          6           0        2.286579    0.264071   -0.455783
      4          6           0        3.629429   -0.036146   -0.232370
      5          6           0        4.509839    0.860071    0.371752
      6          6           0        4.015754    2.107233    0.765473
      7          1           0        2.297753    3.409190    0.863947
      8          1           0        0.771109    1.771309   -0.218707
      9          1           0        1.643596   -0.467839   -0.929385
     10          1           0        5.544755    0.577964    0.522691
     11          1           0        4.684992    2.820524    1.238106
     12          7           0        4.140947   -1.359555   -0.653483
     13          8           0        5.328219   -1.599833   -0.445421
     14          8           0        3.344918   -2.131507   -1.183639
     15          6           0       -5.428383    0.910009   -1.112514
     16          6           0       -5.603807   -0.362025   -0.557828
     17          6           0       -4.567237   -0.976676    0.150886
     18          6           0       -3.363058   -0.287536    0.286274
     19          6           0       -3.157580    0.980684   -0.254730
     20          6           0       -4.207980    1.576130   -0.959465
     21          1           0       -6.238987    1.380025   -1.661513
     22          1           0       -6.550501   -0.881697   -0.675106
     23          1           0       -4.675957   -1.960682    0.590579
     24          1           0       -2.202428    1.473900   -0.121157
     25          1           0       -4.068905    2.564088   -1.389164
     26          7           0       -2.258367   -0.928074    1.034451
     27          8           0       -1.207141   -0.299987    1.139659
     28          8           0       -2.464652   -2.046086    1.501497
 ---------------------------------------------------------------------

 SCF Done:  E(RHF) =  -868.337958162     A.U. after   16 cycles
 E2 =    -0.2599604315D+01 EUMP2 =    -0.87093756247742D+03

 The electronic state is 1-A.
 Alpha  occ. eigenvalues --  -20.61416 -20.61350 -20.60048 -20.60031 -15.86427
 Alpha  occ. eigenvalues --  -15.85093 -11.31765 -11.30385 -11.28416 -11.28264
 Alpha  occ. eigenvalues --  -11.28015 -11.27351 -11.27271 -11.27002 -11.26897
 Alpha  occ. eigenvalues --  -11.26761 -11.26039 -11.25963  -1.60444  -1.59117
 Alpha  occ. eigenvalues --   -1.40007  -1.38672  -1.19921  -1.18568  -1.09311
 Alpha  occ. eigenvalues --   -1.07997  -1.05325  -1.03954  -0.96159  -0.94835
 Alpha  occ. eigenvalues --   -0.86723  -0.85380  -0.83001  -0.81662  -0.78069
 Alpha  occ. eigenvalues --   -0.76702  -0.72645  -0.71760  -0.71319  -0.71030
 Alpha  occ. eigenvalues --   -0.70433  -0.69717  -0.65577  -0.65328  -0.64233
 Alpha  occ. eigenvalues --   -0.63995  -0.62690  -0.61306  -0.55803  -0.54530
 Alpha  occ. eigenvalues --   -0.53641  -0.53423  -0.52287  -0.52074  -0.49409
 Alpha  occ. eigenvalues --   -0.49377  -0.48077  -0.48066  -0.45417  -0.44092
 Alpha  occ. eigenvalues --   -0.37877  -0.36922  -0.36578  -0.35518
 Alpha virt. eigenvalues --    0.04467   0.05831   0.10728   0.12108   0.15976
 Alpha virt. eigenvalues --    0.17309   0.19481   0.22035   0.24887   0.27195
 Alpha virt. eigenvalues --    0.28894   0.28989   0.30237   0.31178   0.32828

 Mulliken charges:
               1
     1  C   -0.172186
     2  C   -0.210902
     3  C   -0.163906
     4  C    0.157251
     5  C   -0.171681
     6  C   -0.218757
     7  H    0.221015
     8  H    0.221058
     9  H    0.277901
    10  H    0.273250
    11  H    0.220132
    12  N    0.488387
    13  O   -0.463422
    14  O   -0.459592
    15  C   -0.170113
    16  C   -0.218051
    17  C   -0.169554
    18  C    0.158745
    19  C   -0.171984
    20  C   -0.218675
    21  H    0.227632
    22  H    0.226044
    23  H    0.278136
    24  H    0.268851
    25  H    0.223465
    26  N    0.489904
    27  O   -0.469860
    28  O   -0.453089
 Sum of Mulliken charges =  -0.00000

 Dipole moment (field-independent basis, Debye):
    X=             -6.1032    Y=              6.7079    Z=             -1.1306  Tot=              9.1391
 Quadrupole moment (field-independent basis, Debye-Ang):
   XX=            -86.0802   YY=           -104.0289   ZZ=           -107.8500
   XY=             14.5131   XZ=             15.0875   YZ=             -0.1968

 Normal termination of Gaussian 16 at Thu May  6 08:11:05 2021.
