 Gaussian 16, Revision A.03,
 Gaussian 16:  EM64L-G16RevA.03 25-Dec-2016

 -------------
 #p 6-31g* mp2
 -------------

 ------------------------------------------------------
 Input file generated by CHIRIPA (05-May-2021 14:57:21)
 ------------------------------------------------------
 Symbolic Z-matrix:
 Charge =  0 Multiplicity = 1

                         Standard orientation:
 ---------------------------------------------------------------------
 Center     Atomic      Atomic             Coordinates (Angstroms)
 Number     Number       Type             X           Y           Z
 ---------------------------------------------------------------------
      1          6           0       -2.721191    2.322600    0.885557
      2          6           0       -3.954883    1.697989    1.096242
      3          6           0       -4.234291    0.461205    0.507307
      4          6           0       -3.252652   -0.125207   -0.290062
      5          6           0       -2.014023    0.472033   -0.518953
      6          6           0       -1.756400    1.708711    0.080052
      7          1           0       -2.512602    3.283322    1.346968
      8          1           0       -4.706038    2.172411    1.721329
      9          1           0       -5.181015   -0.044473    0.653665
     10          1           0       -1.285107   -0.025473   -1.147115
     11          1           0       -0.797423    2.191473   -0.085324
     12          7           0       -3.536918   -1.434478   -0.918872
     13          8           0       -2.655314   -1.930356   -1.617096
     14          8           0       -4.635946   -1.940016   -0.701602
     15          6           0        4.161324    1.103653   -1.820241
     16          6           0        4.789846   -0.042788   -1.323096
     17          6           0        4.269260   -0.712571   -0.211821
     18          6           0        3.113426   -0.206031    0.380423
     19          6           0        2.464309    0.933815   -0.091477
     20          6           0        3.002605    1.587443   -1.203932
     21          1           0        4.572606    1.617681   -2.683965
     22          1           0        5.689849   -0.420774   -1.799713
     23          1           0        4.735629   -1.602209    0.193716
     24          1           0        1.568479    1.286706    0.404885
     25          1           0        2.512368    2.477564   -1.587856
     26          7           0        2.552931   -0.906548    1.557505
     27          8           0        1.533509   -0.440104    2.061337
     28          8           0        3.143649   -1.908793    1.953982
 ---------------------------------------------------------------------

 SCF Done:  E(RHF) =  -868.336752286     A.U. after   16 cycles
 E2 =    -0.2600087319D+01 EUMP2 =    -0.87093683960459D+03

 The electronic state is 1-A.
 Alpha  occ. eigenvalues --  -20.61093 -20.61075 -20.60566 -20.60561 -15.86144
 Alpha  occ. eigenvalues --  -15.85626 -11.31640 -11.31025 -11.28313 -11.28147
 Alpha  occ. eigenvalues --  -11.27932 -11.27676 -11.27618 -11.27423 -11.27314
 Alpha  occ. eigenvalues --  -11.27181 -11.26783 -11.26623  -1.60157  -1.59638
 Alpha  occ. eigenvalues --   -1.39709  -1.39192  -1.19809  -1.19226  -1.09167
 Alpha  occ. eigenvalues --   -1.08619  -1.05249  -1.04663  -0.95991  -0.95442
 Alpha  occ. eigenvalues --   -0.86630  -0.86067  -0.82832  -0.82296  -0.77881
 Alpha  occ. eigenvalues --   -0.77322  -0.72359  -0.71849  -0.71479  -0.70955
 Alpha  occ. eigenvalues --   -0.70918  -0.70351  -0.65465  -0.65274  -0.64901
 Alpha  occ. eigenvalues --   -0.64718  -0.62655  -0.61977  -0.55708  -0.55172
 Alpha  occ. eigenvalues --   -0.53541  -0.53372  -0.52934  -0.52768  -0.49128
 Alpha  occ. eigenvalues --   -0.49108  -0.48611  -0.48596  -0.45088  -0.44591
 Alpha  occ. eigenvalues --   -0.37760  -0.37193  -0.36854  -0.36235
 Alpha virt. eigenvalues --    0.04669   0.05249   0.10783   0.11368   0.16155
 Alpha virt. eigenvalues --    0.16619   0.19041   0.22094   0.24934   0.27497
 Alpha virt. eigenvalues --    0.28360   0.29077   0.30488   0.31239   0.32368

 Mulliken charges:
               1
     1  C   -0.168613
     2  C   -0.218211
     3  C   -0.169024
     4  C    0.159128
     5  C   -0.165269
     6  C   -0.214286
     7  H    0.224946
     8  H    0.223707
     9  H    0.276135
    10  H    0.274103
    11  H    0.210327
    12  N    0.488580
    13  O   -0.460630
    14  O   -0.460291
    15  C   -0.170180
    16  C   -0.217621
    17  C   -0.169131
    18  C    0.161309
    19  C   -0.179352
    20  C   -0.218528
    21  H    0.227418
    22  H    0.226091
    23  H    0.278178
    24  H    0.271665
    25  H    0.219786
    26  N    0.488009
    27  O   -0.461374
    28  O   -0.456871
 Sum of Mulliken charges =  -0.00000

 Dipole moment (field-independent basis, Debye):
    X=              3.0577    Y=              6.8952    Z=             -1.8861  Tot=              7.7750
 Quadrupole moment (field-independent basis, Debye-Ang):
   XX=            -91.2278   YY=           -105.9893   ZZ=           -109.6463
   XY=            -11.0447   XZ=            -22.7048   YZ=              0.3733

 Normal termination of Gaussian 16 at Thu May  6 16:07:07 2021.
