 Gaussian 16, Revision A.03,
 Gaussian 16:  EM64L-G16RevA.03 25-Dec-2016

 -------------
 #p 6-31g* mp2
 -------------

 ------------------------------------------------------
 Input file generated by CHIRIPA (05-May-2021 14:57:25)
 ------------------------------------------------------
 Symbolic Z-matrix:
 Charge =  0 Multiplicity = 1

                         Standard orientation:
 ---------------------------------------------------------------------
 Center     Atomic      Atomic             Coordinates (Angstroms)
 Number     Number       Type             X           Y           Z
 ---------------------------------------------------------------------
      1          6           0        1.431908    2.620131    0.728275
      2          6           0        2.178573    1.825884    1.604736
      3          6           0        2.790336    0.652585    1.153445
      4          6           0        2.634065    0.301947   -0.186675
      5          6           0        1.896484    1.072282   -1.084366
      6          6           0        1.293491    2.241463   -0.611118
      7          1           0        0.960083    3.529978    1.087377
      8          1           0        2.287768    2.117499    2.645448
      9          1           0        3.373972    0.019181    1.810398
     10          1           0        1.805528    0.755624   -2.116293
     11          1           0        0.714208    2.856344   -1.294051
     12          7           0        3.277069   -0.937992   -0.676059
     13          8           0        3.124286   -1.224986   -1.861356
     14          8           0        3.921663   -1.599384    0.134925
     15          6           0       -0.684627   -1.800567    1.242878
     16          6           0       -0.651642   -1.605246   -0.141782
     17          6           0       -1.667683   -0.889737   -0.782294
     18          6           0       -2.706310   -0.381179   -0.003888
     19          6           0       -2.767338   -0.558976    1.377398
     20          6           0       -1.740508   -1.277730    1.996720
     21          1           0        0.108850   -2.357652    1.732212
     22          1           0        0.167132   -2.010144   -0.729754
     23          1           0       -1.667000   -0.723696   -1.852737
     24          1           0       -3.596568   -0.143310    1.936879
     25          1           0       -1.768729   -1.427865    3.072223
     26          7           0       -3.787658    0.378015   -0.670753
     27          8           0       -4.691685    0.815886    0.037513
     28          8           0       -3.710716    0.520826   -1.889081
 ---------------------------------------------------------------------

 SCF Done:  E(RHF) =  -868.338899896     A.U. after   16 cycles
 E2 =    -0.2601878872D+01 EUMP2 =    -0.87094077876770D+03

 The electronic state is 1-A.
 Alpha  occ. eigenvalues --  -20.61663 -20.61653 -20.60984 -20.60977 -15.86675
 Alpha  occ. eigenvalues --  -15.86031 -11.31774 -11.31286 -11.28345 -11.28302
 Alpha  occ. eigenvalues --  -11.27967 -11.27848 -11.27813 -11.27498 -11.27287
 Alpha  occ. eigenvalues --  -11.27213 -11.26840 -11.26732  -1.60741  -1.60064
 Alpha  occ. eigenvalues --   -1.40296  -1.39620  -1.19928  -1.19433  -1.09366
 Alpha  occ. eigenvalues --   -1.08843  -1.05292  -1.04817  -0.96244  -0.95701
 Alpha  occ. eigenvalues --   -0.86702  -0.86223  -0.83081  -0.82534  -0.78175
 Alpha  occ. eigenvalues --   -0.77610  -0.72890  -0.72255  -0.72084  -0.71391
 Alpha  occ. eigenvalues --   -0.71025  -0.70521  -0.65579  -0.65279  -0.65081
 Alpha  occ. eigenvalues --   -0.64800  -0.62652  -0.62164  -0.55772  -0.55292
 Alpha  occ. eigenvalues --   -0.53912  -0.53373  -0.52916  -0.52856  -0.49675
 Alpha  occ. eigenvalues --   -0.49628  -0.49013  -0.48996  -0.45740  -0.45050
 Alpha  occ. eigenvalues --   -0.38049  -0.37384  -0.36975  -0.36122
 Alpha virt. eigenvalues --    0.04287   0.04910   0.10660   0.11249   0.15915
 Alpha virt. eigenvalues --    0.16477   0.20751   0.21536   0.26478   0.27137
 Alpha virt. eigenvalues --    0.28052   0.28382   0.30616   0.30885   0.32264

 Mulliken charges:
               1
     1  C   -0.168970
     2  C   -0.217470
     3  C   -0.173697
     4  C    0.157673
     5  C   -0.172463
     6  C   -0.216698
     7  H    0.229480
     8  H    0.224104
     9  H    0.273535
    10  H    0.274691
    11  H    0.229551
    12  N    0.484745
    13  O   -0.461518
    14  O   -0.460152
    15  C   -0.171510
    16  C   -0.222804
    17  C   -0.172990
    18  C    0.157622
    19  C   -0.172758
    20  C   -0.219010
    21  H    0.229785
    22  H    0.233858
    23  H    0.274255
    24  H    0.274052
    25  H    0.222192
    26  N    0.487555
    27  O   -0.461197
    28  O   -0.461862
 Sum of Mulliken charges =  -0.00000

 Dipole moment (field-independent basis, Debye):
    X=              1.6316    Y=              1.8268    Z=              4.1001  Tot=              4.7760
 Quadrupole moment (field-independent basis, Debye-Ang):
   XX=           -137.6707   YY=           -100.6894   ZZ=            -97.6422
   XY=             16.1755   XZ=             -1.7109   YZ=             -1.4091

 Normal termination of Gaussian 16 at Thu May  6 11:25:09 2021.
