 Gaussian 16, Revision A.03,
 Gaussian 16:  EM64L-G16RevA.03 25-Dec-2016

 -------------
 #p 6-31g* mp2
 -------------

 ------------------------------------------------------
 Input file generated by CHIRIPA (05-May-2021 14:51:10)
 ------------------------------------------------------
 Symbolic Z-matrix:
 Charge =  0 Multiplicity = 1

                         Standard orientation:
 ---------------------------------------------------------------------
 Center     Atomic      Atomic             Coordinates (Angstroms)
 Number     Number       Type             X           Y           Z
 ---------------------------------------------------------------------
      1          6           0       -3.279287   -0.291048    0.545807
      2          6           0       -1.879998   -0.103399   -0.041359
      3          6           0       -0.781503   -0.678501    0.853269
      4          1           0       -3.322202    0.186221    1.534400
      5          1           0       -3.460650   -1.362602    0.707901
      6          1           0       -1.701856    0.967378   -0.203588
      7          1           0       -1.840466   -0.581005   -1.028753
      8          1           0       -0.931519   -1.752224    1.005636
      9          1           0       -0.792121   -0.195043    1.835489
     10          1           0        0.210600   -0.533461    0.414457
     11          6           0       -4.388160    0.278725   -0.337079
     12          6           0       -5.787449    0.091075    0.250088
     13          6           0       -6.885944    0.666177   -0.644541
     14          1           0       -4.206797    1.350278   -0.499173
     15          1           0       -4.345245   -0.198545   -1.325672
     16          1           0       -5.826981    0.568681    1.237481
     17          1           0       -5.965591   -0.979702    0.412316
     18          1           0       -6.875326    0.182719   -1.626761
     19          1           0       -6.735928    1.739900   -0.796908
     20          1           0       -7.878047    0.521137   -0.205729
     21          6           0        3.811954    0.667362    0.277437
     22          6           0        4.336353    1.853132   -0.533081
     23          6           0        4.286408    3.168836    0.244238
     24          1           0        2.778335    0.872267    0.588228
     25          1           0        4.402502    0.572387    1.199189
     26          1           0        3.745883    1.944995   -1.453691
     27          1           0        5.368779    1.645297   -0.842141
     28          1           0        4.890660    3.101552    1.154706
     29          1           0        3.258544    3.402952    0.539682
     30          1           0        4.665874    4.003163   -0.353896
     31          6           0        3.855494   -0.655038   -0.486166
     32          6           0        3.331095   -1.840808    0.324352
     33          6           0        3.381040   -3.156512   -0.452966
     34          1           0        3.264946   -0.560063   -1.407918
     35          1           0        4.889112   -0.859944   -0.796956
     36          1           0        2.298669   -1.632973    0.633412
     37          1           0        3.921563   -1.932672    1.244963
     38          1           0        4.408903   -3.390629   -0.748409
     39          1           0        2.776787   -3.089228   -1.363435
     40          1           0        3.001573   -3.990838    0.145167
 ---------------------------------------------------------------------

 SCF Done:  E(RHF) =  -470.733213072     A.U. after   11 cycles
 E2 =    -0.1582690211D+01 EUMP2 =    -0.47231590328356D+03

 The electronic state is 1-A.
 Alpha  occ. eigenvalues --  -11.21668 -11.21627 -11.21589 -11.21513 -11.21445
 Alpha  occ. eigenvalues --  -11.21385 -11.21383 -11.21323 -11.21146 -11.21091
 Alpha  occ. eigenvalues --  -11.21062 -11.21027  -1.08475  -1.08404  -1.03582
 Alpha  occ. eigenvalues --   -1.03494  -0.96031  -0.95952  -0.87058  -0.86961
 Alpha  occ. eigenvalues --   -0.79669  -0.79537  -0.78288  -0.78212  -0.65102
 Alpha  occ. eigenvalues --   -0.65061  -0.60990  -0.60913  -0.59433  -0.59274
 Alpha  occ. eigenvalues --   -0.57638  -0.57560  -0.55324  -0.55229  -0.52796
 Alpha  occ. eigenvalues --   -0.52617  -0.52453  -0.52370  -0.49976  -0.49882
 Alpha  occ. eigenvalues --   -0.47983  -0.47861  -0.46685  -0.46577  -0.45826
 Alpha  occ. eigenvalues --   -0.45761  -0.45748  -0.45688  -0.43785  -0.43723
 Alpha virt. eigenvalues --    0.20933   0.23016   0.24080   0.24703   0.25952
 Alpha virt. eigenvalues --    0.26614   0.27189   0.27422   0.27887   0.28909
 Alpha virt. eigenvalues --    0.30964   0.31370   0.31656   0.31827   0.32069

 Mulliken charges:
               1
     1  C   -0.298725
     2  C   -0.299413
     3  C   -0.482512
     4  H    0.149814
     5  H    0.149737
     6  H    0.151822
     7  H    0.152053
     8  H    0.155863
     9  H    0.155881
    10  H    0.166051
    11  C   -0.298277
    12  C   -0.299665
    13  C   -0.475729
    14  H    0.149561
    15  H    0.149705
    16  H    0.152013
    17  H    0.152009
    18  H    0.155216
    19  H    0.155216
    20  H    0.160358
    21  C   -0.300710
    22  C   -0.299522
    23  C   -0.475684
    24  H    0.151159
    25  H    0.149766
    26  H    0.151832
    27  H    0.152000
    28  H    0.155201
    29  H    0.155115
    30  H    0.160184
    31  C   -0.298003
    32  C   -0.307495
    33  C   -0.475142
    34  H    0.148882
    35  H    0.149694
    36  H    0.160188
    37  H    0.151790
    38  H    0.154905
    39  H    0.154737
    40  H    0.160124
 Sum of Mulliken charges =  -0.00000

 Dipole moment (field-independent basis, Debye):
    X=             -0.0349    Y=              0.0001    Z=              0.0155  Tot=              0.0382
 Quadrupole moment (field-independent basis, Debye-Ang):
   XX=            -84.7468   YY=            -85.1623   ZZ=            -84.9086
   XY=              0.2502   XZ=             -0.0885   YZ=              0.1206

 Normal termination of Gaussian 16 at Thu May  6 00:37:03 2021.
