 Gaussian 16, Revision A.03,
 Gaussian 16:  EM64L-G16RevA.03 25-Dec-2016

 -------------
 #p 6-31g* mp2
 -------------

 ------------------------------------------------------
 Input file generated by CHIRIPA (05-May-2021 14:55:21)
 ------------------------------------------------------
 Symbolic Z-matrix:
 Charge =  0 Multiplicity = 1

                         Standard orientation:
 ---------------------------------------------------------------------
 Center     Atomic      Atomic             Coordinates (Angstroms)
 Number     Number       Type             X           Y           Z
 ---------------------------------------------------------------------
      1          6           0       -1.073231   -2.450498    0.735493
      2          6           0       -2.429282   -2.346874    1.062462
      3          6           0       -3.191736   -1.271492    0.596883
      4          6           0       -2.563120   -0.313469   -0.197047
      5          6           0       -1.214059   -0.388821   -0.540042
      6          6           0       -0.471009   -1.472864   -0.063307
      7          1           0       -0.488475   -3.289244    1.101499
      8          1           0       -2.899621   -3.104636    1.682642
      9          1           0       -4.243315   -1.166659    0.834811
     10          1           0       -0.773081    0.382165   -1.160153
     11          1           0        0.581933   -1.550760   -0.318829
     12          7           0       -3.360025    0.829574   -0.695839
     13          8           0       -2.782675    1.660413   -1.393702
     14          8           0       -4.546899    0.873010   -0.379486
     15          6           0        2.539466    1.133431    0.029841
     16          6           0        2.125327    1.893858    1.290089
     17          6           0        0.977488    2.872406    1.039677
     18          1           0        2.832719    1.854070   -0.745805
     19          1           0        1.670348    0.587792   -0.362979
     20          1           0        2.995311    2.436793    1.681195
     21          1           0        1.833207    1.171318    2.062888
     22          1           0        0.093060    2.342627    0.671271
     23          1           0        1.261766    3.615292    0.287409
     24          1           0        0.697522    3.405216    1.953784
     25          6           0        3.685892    0.151323    0.264149
     26          6           0        4.100032   -0.609105   -0.996099
     27          6           0        5.247870   -1.587652   -0.745686
     28          1           0        4.555010    0.696961    0.656970
     29          1           0        3.392639   -0.569317    1.039795
     30          1           0        4.392151    0.113435   -1.768898
     31          1           0        3.230047   -1.152039   -1.387204
     32          1           0        4.963591   -2.330538    0.006581
     33          1           0        6.132298   -1.057873   -0.377281
     34          1           0        5.527836   -2.120463   -1.659794
 ---------------------------------------------------------------------

 SCF Done:  E(RHF) =  -669.534784946     A.U. after   15 cycles
 E2 =    -0.2093691988D+01 EUMP2 =    -0.67162847693308D+03

 The electronic state is 1-A.
 Alpha  occ. eigenvalues --  -20.60805 -20.60799 -15.85852 -11.31238 -11.27802
 Alpha  occ. eigenvalues --  -11.27789 -11.27543 -11.26823 -11.26801 -11.22392
 Alpha  occ. eigenvalues --  -11.22103 -11.22032 -11.21935 -11.21735 -11.21122
 Alpha  occ. eigenvalues --   -1.59874  -1.39427  -1.19412  -1.09069  -1.08798
 Alpha  occ. eigenvalues --   -1.04824  -1.04036  -0.96472  -0.95633  -0.87481
 Alpha  occ. eigenvalues --   -0.86212  -0.82478  -0.80115  -0.78907  -0.77497
 Alpha  occ. eigenvalues --   -0.72069  -0.71196  -0.70522  -0.65831  -0.65054
 Alpha  occ. eigenvalues --   -0.64778  -0.62173  -0.61410  -0.59855  -0.58081
 Alpha  occ. eigenvalues --   -0.55774  -0.55310  -0.53146  -0.53120  -0.52944
 Alpha  occ. eigenvalues --   -0.52835  -0.50428  -0.48831  -0.48822  -0.48408
 Alpha  occ. eigenvalues --   -0.47174  -0.46388  -0.46328  -0.44819  -0.44321
 Alpha  occ. eigenvalues --   -0.37386  -0.36385
 Alpha virt. eigenvalues --    0.04981   0.11130   0.16392   0.18984   0.22720
 Alpha virt. eigenvalues --    0.23616   0.24934   0.26519   0.26751   0.28216
 Alpha virt. eigenvalues --    0.29326   0.30809   0.31405   0.31478   0.32080

 Mulliken charges:
               1
     1  C   -0.172101
     2  C   -0.218203
     3  C   -0.170999
     4  C    0.158164
     5  C   -0.173263
     6  C   -0.222818
     7  H    0.226018
     8  H    0.223722
     9  H    0.275833
    10  H    0.277951
    11  H    0.229633
    12  N    0.488803
    13  O   -0.460536
    14  O   -0.459965
    15  C   -0.301911
    16  C   -0.299836
    17  C   -0.478792
    18  H    0.154632
    19  H    0.140317
    20  H    0.153615
    21  H    0.151131
    22  H    0.159041
    23  H    0.158105
    24  H    0.162681
    25  C   -0.299653
    26  C   -0.301315
    27  C   -0.475560
    28  H    0.154454
    29  H    0.146120
    30  H    0.156884
    31  H    0.143892
    32  H    0.153105
    33  H    0.158458
    34  H    0.162390
 Sum of Mulliken charges =  -0.00000

 Dipole moment (field-independent basis, Debye):
    X=              2.8701    Y=             -3.9205    Z=              1.7873  Tot=              5.1772
 Quadrupole moment (field-independent basis, Debye-Ang):
   XX=           -105.5990   YY=            -91.8354   ZZ=            -94.9604
   XY=             12.5340   XZ=             -7.5141   YZ=             -0.9251

 Normal termination of Gaussian 16 at Thu May  6 17:29:41 2021.
