 Gaussian 16, Revision A.03,
 Gaussian 16:  EM64L-G16RevA.03 25-Dec-2016

 -------------
 #p 6-31g* mp2
 -------------

 ------------------------------------------------------
 Input file generated by CHIRIPA (05-May-2021 14:55:20)
 ------------------------------------------------------
 Symbolic Z-matrix:
 Charge =  0 Multiplicity = 1

                         Standard orientation:
 ---------------------------------------------------------------------
 Center     Atomic      Atomic             Coordinates (Angstroms)
 Number     Number       Type             X           Y           Z
 ---------------------------------------------------------------------
      1          6           0       -1.428079    1.444260    1.453535
      2          6           0       -2.035171    0.368425    2.109691
      3          6           0       -2.907779   -0.481069    1.423059
      4          6           0       -3.151839   -0.224286    0.074806
      5          6           0       -2.562365    0.839333   -0.606754
      6          6           0       -1.693146    1.675872    0.099794
      7          1           0       -0.751533    2.099136    1.994663
      8          1           0       -1.831169    0.186146    3.160977
      9          1           0       -3.391345   -1.321234    1.906489
     10          1           0       -2.785247    0.995678   -1.655228
     11          1           0       -1.223094    2.510616   -0.412358
     12          7           0       -4.073836   -1.116750   -0.662642
     13          8           0       -4.272371   -0.869112   -1.850033
     14          8           0       -4.580504   -2.047002   -0.039300
     15          6           0        4.053245   -0.626160   -0.362276
     16          6           0        5.334879   -1.001724    0.382274
     17          6           0        5.748936   -2.455196    0.150399
     18          1           0        3.242211   -1.295241   -0.043686
     19          1           0        4.197773   -0.800133   -1.437561
     20          1           0        5.188444   -0.825785    1.455688
     21          1           0        6.142910   -0.331547    0.062015
     22          1           0        5.922260   -2.641189   -0.914480
     23          1           0        4.962371   -3.138235    0.487111
     24          1           0        6.667451   -2.702235    0.691842
     25          6           0        3.626455    0.823784   -0.140372
     26          6           0        2.344822    1.199348   -0.884920
     27          6           0        1.930765    2.652821   -0.653046
     28          1           0        3.481927    0.997757    0.934913
     29          1           0        4.437489    1.492865   -0.458962
     30          1           0        1.536791    0.529172   -0.564662
     31          1           0        2.491257    1.023409   -1.958335
     32          1           0        2.717329    3.335859   -0.989758
     33          1           0        1.757440    2.838813    0.411833
     34          1           0        1.012250    2.899859   -1.194490
 ---------------------------------------------------------------------

 SCF Done:  E(RHF) =  -669.535349759     A.U. after   15 cycles
 E2 =    -0.2091842184D+01 EUMP2 =    -0.67162719194279D+03

 The electronic state is 1-A.
 Alpha  occ. eigenvalues --  -20.60768 -20.60762 -15.85821 -11.31193 -11.27762
 Alpha  occ. eigenvalues --  -11.27749 -11.27504 -11.26782 -11.26738 -11.22258
 Alpha  occ. eigenvalues --  -11.22114 -11.21963 -11.21953 -11.21784 -11.21342
 Alpha  occ. eigenvalues --   -1.59843  -1.39396  -1.19366  -1.08957  -1.08756
 Alpha  occ. eigenvalues --   -1.04771  -1.04094  -0.96577  -0.95590  -0.87601
 Alpha  occ. eigenvalues --   -0.86158  -0.82424  -0.80155  -0.78729  -0.77472
 Alpha  occ. eigenvalues --   -0.72039  -0.71166  -0.70472  -0.65595  -0.65014
 Alpha  occ. eigenvalues --   -0.64800  -0.62173  -0.61472  -0.59946  -0.58163
 Alpha  occ. eigenvalues --   -0.55868  -0.55265  -0.53402  -0.53079  -0.53042
 Alpha  occ. eigenvalues --   -0.52667  -0.50501  -0.48800  -0.48793  -0.48463
 Alpha  occ. eigenvalues --   -0.47168  -0.46281  -0.46185  -0.44800  -0.44340
 Alpha  occ. eigenvalues --   -0.37336  -0.36359
 Alpha virt. eigenvalues --    0.05055   0.11204   0.16515   0.19946   0.22649
 Alpha virt. eigenvalues --    0.24040   0.25448   0.26129   0.26593   0.27502
 Alpha virt. eigenvalues --    0.29232   0.29541   0.31212   0.31615   0.32408

 Mulliken charges:
               1
     1  C   -0.173317
     2  C   -0.218826
     3  C   -0.171133
     4  C    0.158680
     5  C   -0.172731
     6  C   -0.218141
     7  H    0.226510
     8  H    0.223299
     9  H    0.275556
    10  H    0.275679
    11  H    0.228622
    12  N    0.488088
    13  O   -0.460315
    14  O   -0.460493
    15  C   -0.298988
    16  C   -0.299898
    17  C   -0.476036
    18  H    0.151100
    19  H    0.151422
    20  H    0.151016
    21  H    0.152380
    22  H    0.156359
    23  H    0.155982
    24  H    0.161024
    25  C   -0.298248
    26  C   -0.302707
    27  C   -0.477040
    28  H    0.146982
    29  H    0.150770
    30  H    0.156809
    31  H    0.155246
    32  H    0.160459
    33  H    0.148240
    34  H    0.153649
 Sum of Mulliken charges =  -0.00000

 Dipole moment (field-independent basis, Debye):
    X=              3.3645    Y=              3.0807    Z=              2.5611  Tot=              5.2316
 Quadrupole moment (field-independent basis, Debye-Ang):
   XX=           -115.4533   YY=            -96.3284   ZZ=            -90.4453
   XY=             -9.7836   XZ=             -9.2550   YZ=             -3.2601

 Normal termination of Gaussian 16 at Wed May  5 22:10:41 2021.
