 Gaussian 16, Revision A.03,
 Gaussian 16:  EM64L-G16RevA.03 25-Dec-2016

 -------------
 #p 6-31g* mp2
 -------------

 ------------------------------------------------------
 Input file generated by CHIRIPA (05-May-2021 14:55:24)
 ------------------------------------------------------
 Symbolic Z-matrix:
 Charge =  0 Multiplicity = 1

                         Standard orientation:
 ---------------------------------------------------------------------
 Center     Atomic      Atomic             Coordinates (Angstroms)
 Number     Number       Type             X           Y           Z
 ---------------------------------------------------------------------
      1          6           0        2.146799    2.279277    0.879468
      2          6           0        1.206610    1.683600    0.032276
      3          6           0        1.417174    0.395096   -0.467692
      4          6           0        2.584168   -0.271978   -0.098333
      5          6           0        3.539670    0.294623    0.743848
      6          6           0        3.308281    1.584113    1.231929
      7          1           0        1.975139    3.280601    1.263238
      8          1           0        0.303684    2.221111   -0.243132
      9          1           0        0.705872   -0.089781   -1.125234
     10          1           0        4.430220   -0.266081    1.000657
     11          1           0        4.040180    2.044237    1.889694
     12          7           0        2.818106   -1.636581   -0.621335
     13          8           0        3.854278   -2.203264   -0.280959
     14          8           0        1.960865   -2.113636   -1.361736
     15          6           0       -3.370970   -0.453824    0.569138
     16          6           0       -3.703894   -1.849867    0.041680
     17          6           0       -3.926386   -2.867247    1.161157
     18          1           0       -2.472214   -0.511225    1.198334
     19          1           0       -4.187050   -0.111251    1.220332
     20          1           0       -2.888070   -2.189135   -0.609429
     21          1           0       -4.601852   -1.789105   -0.586490
     22          1           0       -4.753737   -2.555037    1.806615
     23          1           0       -3.030218   -2.957341    1.783545
     24          1           0       -4.163076   -3.858351    0.761723
     25          6           0       -3.145798    0.574337   -0.538070
     26          6           0       -2.812874    1.970379   -0.010611
     27          6           0       -2.590382    2.987758   -1.130089
     28          1           0       -2.329718    0.231763   -1.189264
     29          1           0       -4.044554    0.631736   -1.167266
     30          1           0       -1.914916    1.909616    0.617558
     31          1           0       -3.628698    2.309647    0.640498
     32          1           0       -3.486550    3.077853   -1.752477
     33          1           0       -1.763030    2.675550   -1.775548
     34          1           0       -2.353692    3.978864   -0.730655
 ---------------------------------------------------------------------

 SCF Done:  E(RHF) =  -669.535316814     A.U. after   15 cycles
 E2 =    -0.2092349302D+01 EUMP2 =    -0.67162766611682D+03

 The electronic state is 1-A.
 Alpha  occ. eigenvalues --  -20.60788 -20.60782 -15.85840 -11.31203 -11.27772
 Alpha  occ. eigenvalues --  -11.27769 -11.27500 -11.26782 -11.26722 -11.22449
 Alpha  occ. eigenvalues --  -11.22070 -11.22016 -11.21746 -11.21684 -11.21079
 Alpha  occ. eigenvalues --   -1.59863  -1.39416  -1.19372  -1.08955  -1.08762
 Alpha  occ. eigenvalues --   -1.04778  -1.04032  -0.96487  -0.95602  -0.87498
 Alpha  occ. eigenvalues --   -0.86172  -0.82437  -0.80126  -0.78682  -0.77491
 Alpha  occ. eigenvalues --   -0.72058  -0.71186  -0.70481  -0.65728  -0.65018
 Alpha  occ. eigenvalues --   -0.64744  -0.62246  -0.61261  -0.59896  -0.58060
 Alpha  occ. eigenvalues --   -0.55814  -0.55253  -0.53182  -0.53103  -0.52937
 Alpha  occ. eigenvalues --   -0.52771  -0.50446  -0.48820  -0.48814  -0.48404
 Alpha  occ. eigenvalues --   -0.47182  -0.46226  -0.46116  -0.44823  -0.44266
 Alpha  occ. eigenvalues --   -0.37348  -0.36366
 Alpha virt. eigenvalues --    0.05036   0.11208   0.16444   0.18730   0.23028
 Alpha virt. eigenvalues --    0.23751   0.25005   0.26516   0.27006   0.28567
 Alpha virt. eigenvalues --    0.29920   0.30531   0.31054   0.31400   0.32083

 Mulliken charges:
               1
     1  C   -0.172869
     2  C   -0.225752
     3  C   -0.175824
     4  C    0.159007
     5  C   -0.170806
     6  C   -0.218376
     7  H    0.226233
     8  H    0.236816
     9  H    0.276320
    10  H    0.275642
    11  H    0.223475
    12  N    0.488084
    13  O   -0.460319
    14  O   -0.460737
    15  C   -0.299233
    16  C   -0.301317
    17  C   -0.476064
    18  H    0.150867
    19  H    0.150158
    20  H    0.157294
    21  H    0.151942
    22  H    0.153883
    23  H    0.157115
    24  H    0.162935
    25  C   -0.298590
    26  C   -0.306820
    27  C   -0.480637
    28  H    0.146120
    29  H    0.153639
    30  H    0.147473
    31  H    0.157346
    32  H    0.163330
    33  H    0.149926
    34  H    0.159739
 Sum of Mulliken charges =  -0.00000

 Dipole moment (field-independent basis, Debye):
    X=             -0.9731    Y=              4.7407    Z=              1.8590  Tot=              5.1843
 Quadrupole moment (field-independent basis, Debye-Ang):
   XX=            -93.7643   YY=            -98.5075   ZZ=            -95.0237
   XY=             12.2194   XZ=              7.6617   YZ=             -0.4598

 Normal termination of Gaussian 16 at Thu May  6 00:00:55 2021.
