 Gaussian 16, Revision A.03,
 Gaussian 16:  EM64L-G16RevA.03 25-Dec-2016

 -------------
 #p 6-31g* mp2
 -------------

 ------------------------------------------------------
 Input file generated by CHIRIPA (05-May-2021 14:57:23)
 ------------------------------------------------------
 Symbolic Z-matrix:
 Charge =  0 Multiplicity = 1

                         Standard orientation:
 ---------------------------------------------------------------------
 Center     Atomic      Atomic             Coordinates (Angstroms)
 Number     Number       Type             X           Y           Z
 ---------------------------------------------------------------------
      1          6           0       -4.043466   -1.596115    0.234826
      2          6           0       -4.326500   -0.270088    0.578431
      3          6           0       -3.463330    0.761725    0.197839
      4          6           0       -2.320935    0.430152   -0.528991
      5          6           0       -2.011480   -0.881234   -0.886473
      6          6           0       -2.888895   -1.896926   -0.495242
      7          1           0       -4.719530   -2.391390    0.534611
      8          1           0       -5.222421   -0.033527    1.145360
      9          1           0       -3.658215    1.796909    0.450488
     10          1           0       -1.110651   -1.085993   -1.452157
     11          1           0       -2.666547   -2.925833   -0.763490
     12          7           0       -1.399596    1.513953   -0.937538
     13          8           0       -0.399671    1.195617   -1.577420
     14          8           0       -1.694821    2.661249   -0.610139
     15          6           0        4.292119   -0.483866   -1.270958
     16          6           0        4.349223    0.549723   -0.330240
     17          6           0        3.346724    0.688062    0.634336
     18          6           0        2.296896   -0.229067    0.629161
     19          6           0        2.211871   -1.269405   -0.294829
     20          6           0        3.225505   -1.388537   -1.250287
     21          1           0        5.075209   -0.583871   -2.016723
     22          1           0        5.176379    1.253762   -0.343910
     23          1           0        3.366110    1.478925    1.374319
     24          1           0        1.374782   -1.955845   -0.256087
     25          1           0        3.178555   -2.192212   -1.979635
     26          7           0        1.229701   -0.092782    1.645488
     27          8           0        0.315388   -0.913759    1.619725
     28          8           0        1.327755    0.832436    2.448603
 ---------------------------------------------------------------------

 SCF Done:  E(RHF) =  -868.338200456     A.U. after   16 cycles
 E2 =    -0.2601948829D+01 EUMP2 =    -0.87094014928518D+03

 The electronic state is 1-A.
 Alpha  occ. eigenvalues --  -20.60513 -20.60484 -20.60312 -20.60272 -15.85514
 Alpha  occ. eigenvalues --  -15.85321 -11.30689 -11.30413 -11.27350 -11.27208
 Alpha  occ. eigenvalues --  -11.27091 -11.26993 -11.26988 -11.26759 -11.26304
 Alpha  occ. eigenvalues --  -11.26221 -11.26020 -11.25973  -1.59564  -1.59360
 Alpha  occ. eigenvalues --   -1.39128  -1.38927  -1.18843  -1.18590  -1.08287
 Alpha  occ. eigenvalues --   -1.08051  -1.04258  -1.04000  -0.95170  -0.94931
 Alpha  occ. eigenvalues --   -0.85679  -0.85428  -0.82025  -0.81800  -0.77110
 Alpha  occ. eigenvalues --   -0.76856  -0.71773  -0.71572  -0.71073  -0.70440
 Alpha  occ. eigenvalues --   -0.70030  -0.69783  -0.64541  -0.64323  -0.64294
 Alpha  occ. eigenvalues --   -0.64053  -0.61690  -0.61365  -0.54798  -0.54559
 Alpha  occ. eigenvalues --   -0.52553  -0.52411  -0.52241  -0.52130  -0.48543
 Alpha  occ. eigenvalues --   -0.48493  -0.48336  -0.48291  -0.44640  -0.44336
 Alpha  occ. eigenvalues --   -0.36811  -0.36475  -0.35812  -0.35505
 Alpha virt. eigenvalues --    0.05417   0.05698   0.11734   0.12168   0.16953
 Alpha virt. eigenvalues --    0.17258   0.21164   0.22327   0.26404   0.28099
 Alpha virt. eigenvalues --    0.28496   0.29567   0.31172   0.31682   0.32427

 Mulliken charges:
               1
     1  C   -0.168131
     2  C   -0.217607
     3  C   -0.166910
     4  C    0.163239
     5  C   -0.155625
     6  C   -0.215739
     7  H    0.223068
     8  H    0.221332
     9  H    0.274372
    10  H    0.264417
    11  H    0.217539
    12  N    0.487249
    13  O   -0.469728
    14  O   -0.458521
    15  C   -0.168902
    16  C   -0.216792
    17  C   -0.166400
    18  C    0.168156
    19  C   -0.165612
    20  C   -0.216507
    21  H    0.224133
    22  H    0.222825
    23  H    0.275809
    24  H    0.264203
    25  H    0.219219
    26  N    0.486778
    27  O   -0.468432
    28  O   -0.457431
 Sum of Mulliken charges =  -0.00000

 Dipole moment (field-independent basis, Debye):
    X=              0.5683    Y=             -4.1108    Z=             -2.0048  Tot=              4.6088
 Quadrupole moment (field-independent basis, Debye-Ang):
   XX=            -70.2942   YY=           -103.3508   ZZ=           -110.7302
   XY=              5.7645   XZ=             -8.5275   YZ=              6.7321

 Normal termination of Gaussian 16 at Fri May  7 09:32:48 2021.
