 Gaussian 16, Revision A.03,
 Gaussian 16:  EM64L-G16RevA.03 25-Dec-2016

 -------------
 #p 6-31g* mp2
 -------------

 ------------------------------------------------------
 Input file generated by CHIRIPA (05-May-2021 14:53:16)
 ------------------------------------------------------
 Symbolic Z-matrix:
 Charge =  0 Multiplicity = 1

                         Standard orientation:
 ---------------------------------------------------------------------
 Center     Atomic      Atomic             Coordinates (Angstroms)
 Number     Number       Type             X           Y           Z
 ---------------------------------------------------------------------
      1          6           0        3.450020   -0.502640   -0.436943
      2          6           0        2.153516    0.167296    0.019397
      3          6           0        0.906847   -0.499539   -0.562792
      4          1           0        3.499689   -0.481490   -1.534226
      5          1           0        3.429577   -1.561859   -0.145338
      6          1           0        2.176997    1.225261   -0.271762
      7          1           0        2.107019    0.144719    1.115729
      8          1           0        0.855991   -1.550836   -0.261478
      9          1           0        0.926366   -0.464154   -1.656852
     10          1           0       -0.008581   -0.004746   -0.223630
     11          6           0        4.705057    0.152725    0.136736
     12          6           0        6.001562   -0.517211   -0.319604
     13          6           0        7.248230    0.149624    0.262585
     14          1           0        4.725500    1.211943   -0.154869
     15          1           0        4.655389    0.131575    1.234019
     16          1           0        6.048058   -0.494634   -1.415936
     17          1           0        5.978081   -1.575177   -0.028445
     18          1           0        7.228711    0.114238    1.356646
     19          1           0        7.299087    1.200920   -0.038729
     20          1           0        8.163659   -0.345169   -0.076577
     21          6           0       -2.452582    2.550806    0.143043
     22          6           0       -2.018323    1.676663    1.144948
     23          6           0       -2.418146    0.337009    1.140665
     24          6           0       -3.256441   -0.096703    0.114777
     25          6           0       -3.706024    0.749805   -0.897443
     26          6           0       -3.293564    2.085408   -0.873162
     27          1           0       -2.137082    3.589908    0.154139
     28          1           0       -1.365168    2.035323    1.935388
     29          1           0       -2.096887   -0.361275    1.903954
     30          1           0       -4.356729    0.363060   -1.672318
     31          1           0       -3.632381    2.762022   -1.652549
     32          7           0       -3.686404   -1.512789    0.099656
     33          8           0       -4.425274   -1.870226   -0.815191
     34          8           0       -3.276398   -2.238469    1.002941
 ---------------------------------------------------------------------

 SCF Done:  E(RHF) =  -669.534728830     A.U. after   15 cycles
 E2 =    -0.2092523252D+01 EUMP2 =    -0.67162725208190D+03

 The electronic state is 1-A.
 Alpha  occ. eigenvalues --  -20.60782 -20.60776 -15.85838 -11.31231 -11.27817
 Alpha  occ. eigenvalues --  -11.27801 -11.27570 -11.26832 -11.26820 -11.21784
 Alpha  occ. eigenvalues --  -11.21705 -11.21533 -11.21464 -11.21182 -11.20946
 Alpha  occ. eigenvalues --   -1.59856  -1.39409  -1.19433  -1.08807  -1.08550
 Alpha  occ. eigenvalues --   -1.04847  -1.03628  -0.96063  -0.95635  -0.87077
 Alpha  occ. eigenvalues --   -0.86223  -0.82469  -0.79703  -0.78372  -0.77508
 Alpha  occ. eigenvalues --   -0.72057  -0.71179  -0.70526  -0.65182  -0.65075
 Alpha  occ. eigenvalues --   -0.64826  -0.62177  -0.61027  -0.59499  -0.57729
 Alpha  occ. eigenvalues --   -0.55346  -0.55317  -0.53609  -0.52916  -0.52570
 Alpha  occ. eigenvalues --   -0.52182  -0.49994  -0.48818  -0.48808  -0.48003
 Alpha  occ. eigenvalues --   -0.46744  -0.45909  -0.45840  -0.44809  -0.43886
 Alpha  occ. eigenvalues --   -0.37406  -0.36353
 Alpha virt. eigenvalues --    0.05017   0.11181   0.16476   0.21274   0.22778
 Alpha virt. eigenvalues --    0.24277   0.26485   0.27056   0.27472   0.28042
 Alpha virt. eigenvalues --    0.28428   0.30851   0.31324   0.31831   0.32185

 Mulliken charges:
               1
     1  C   -0.298133
     2  C   -0.298282
     3  C   -0.486215
     4  H    0.150302
     5  H    0.151828
     6  H    0.147786
     7  H    0.147294
     8  H    0.159132
     9  H    0.154780
    10  H    0.167590
    11  C   -0.298076
    12  C   -0.299796
    13  C   -0.475709
    14  H    0.147879
    15  H    0.148832
    16  H    0.152253
    17  H    0.153094
    18  H    0.155024
    19  H    0.154459
    20  H    0.160887
    21  C   -0.170237
    22  C   -0.217687
    23  C   -0.176638
    24  C    0.163657
    25  C   -0.170762
    26  C   -0.218120
    27  H    0.226120
    28  H    0.224776
    29  H    0.276531
    30  H    0.276028
    31  H    0.223792
    32  N    0.488323
    33  O   -0.460341
    34  O   -0.460368
 Sum of Mulliken charges =  -0.00000

 Dipole moment (field-independent basis, Debye):
    X=              1.4230    Y=              4.9761    Z=              0.0415  Tot=              5.1757
 Quadrupole moment (field-independent basis, Debye-Ang):
   XX=           -104.8071   YY=            -95.8778   ZZ=            -90.9784
   XY=            -17.5720   XZ=              2.1638   YZ=             -0.9010

 Normal termination of Gaussian 16 at Thu May  6 17:13:45 2021.
