 Gaussian 16, Revision A.03,
 Gaussian 16:  EM64L-G16RevA.03 25-Dec-2016

 -------------
 #p 6-31g* mp2
 -------------

 ------------------------------------------------------
 Input file generated by CHIRIPA (05-May-2021 14:55:21)
 ------------------------------------------------------
 Symbolic Z-matrix:
 Charge =  0 Multiplicity = 1

                         Standard orientation:
 ---------------------------------------------------------------------
 Center     Atomic      Atomic             Coordinates (Angstroms)
 Number     Number       Type             X           Y           Z
 ---------------------------------------------------------------------
      1          6           0        0.709536   -2.153270    0.186395
      2          6           0        1.460573   -1.756725    1.297798
      3          6           0        2.379189   -0.707725    1.196342
      4          6           0        2.521974   -0.074494   -0.037319
      5          6           0        1.788343   -0.446467   -1.162802
      6          6           0        0.875525   -1.498031   -1.038199
      7          1           0       -0.001815   -2.969153    0.274199
      8          1           0        1.333753   -2.263779    2.250088
      9          1           0        2.973540   -0.380338    2.040725
     10          1           0        1.936783    0.078091   -2.098870
     11          1           0        0.293614   -1.803855   -1.903009
     12          7           0        3.491402    1.037392   -0.156979
     13          8           0        3.598606    1.579143   -1.255000
     14          8           0        4.125680    1.346084    0.849519
     15          6           0       -3.034224   -0.305262   -0.401585
     16          6           0       -2.868162   -1.584925    0.418702
     17          6           0       -2.891446   -2.847192   -0.443813
     18          1           0       -3.980582   -0.353843   -0.957454
     19          1           0       -2.233296   -0.252532   -1.152005
     20          1           0       -3.668358   -1.634536    1.168263
     21          1           0       -1.922180   -1.533208    0.972833
     22          1           0       -2.083408   -2.824220   -1.182155
     23          1           0       -3.839507   -2.926124   -0.985614
     24          1           0       -2.771155   -3.750201    0.162788
     25          6           0       -3.013009    0.965092    0.446636
     26          6           0       -3.179072    2.244754   -0.373651
     27          6           0       -3.155788    3.507021    0.488864
     28          1           0       -3.813936    0.912362    1.197056
     29          1           0       -2.066650    1.013673    1.002505
     30          1           0       -4.125053    2.193037   -0.927781
     31          1           0       -2.378875    2.294366   -1.123211
     32          1           0       -2.207725    3.585954    1.030665
     33          1           0       -3.963825    3.484049    1.227206
     34          1           0       -3.276078    4.410030   -0.117737
 ---------------------------------------------------------------------

 SCF Done:  E(RHF) =  -669.534300436     A.U. after   15 cycles
 E2 =    -0.2094251109D+01 EUMP2 =    -0.67162855154447D+03

 The electronic state is 1-A.
 Alpha  occ. eigenvalues --  -20.60813 -20.60808 -15.85870 -11.31245 -11.27847
 Alpha  occ. eigenvalues --  -11.27837 -11.27518 -11.26835 -11.26821 -11.22392
 Alpha  occ. eigenvalues --  -11.22272 -11.21985 -11.21861 -11.21748 -11.21206
 Alpha  occ. eigenvalues --   -1.59890  -1.39443  -1.19439  -1.09027  -1.08783
 Alpha  occ. eigenvalues --   -1.04844  -1.04129  -0.96605  -0.95645  -0.87606
 Alpha  occ. eigenvalues --   -0.86240  -0.82491  -0.80203  -0.78734  -0.77531
 Alpha  occ. eigenvalues --   -0.72088  -0.71216  -0.70608  -0.65682  -0.65080
 Alpha  occ. eigenvalues --   -0.64805  -0.62211  -0.61504  -0.60015  -0.58175
 Alpha  occ. eigenvalues --   -0.56061  -0.55084  -0.53290  -0.53172  -0.53018
 Alpha  occ. eigenvalues --   -0.52919  -0.50537  -0.48850  -0.48841  -0.48501
 Alpha  occ. eigenvalues --   -0.47239  -0.46284  -0.46168  -0.44846  -0.44340
 Alpha  occ. eigenvalues --   -0.37331  -0.36445
 Alpha virt. eigenvalues --    0.04987   0.11069   0.16397   0.19630   0.22906
 Alpha virt. eigenvalues --    0.24198   0.24897   0.26516   0.26578   0.27973
 Alpha virt. eigenvalues --    0.29292   0.30339   0.31000   0.31600   0.31904

 Mulliken charges:
               1
     1  C   -0.171410
     2  C   -0.221238
     3  C   -0.170199
     4  C    0.157925
     5  C   -0.171474
     6  C   -0.221664
     7  H    0.234880
     8  H    0.224178
     9  H    0.275945
    10  H    0.275970
    11  H    0.224666
    12  N    0.488089
    13  O   -0.460351
    14  O   -0.460290
    15  C   -0.297702
    16  C   -0.305022
    17  C   -0.482587
    18  H    0.150750
    19  H    0.147368
    20  H    0.155576
    21  H    0.153182
    22  H    0.145544
    23  H    0.163797
    24  H    0.158225
    25  C   -0.299289
    26  C   -0.300195
    27  C   -0.476246
    28  H    0.149763
    29  H    0.152722
    30  H    0.151641
    31  H    0.152975
    32  H    0.157561
    33  H    0.154769
    34  H    0.162142
 Sum of Mulliken charges =  -0.00000

 Dipole moment (field-independent basis, Debye):
    X=             -3.4652    Y=             -3.8314    Z=              0.4627  Tot=              5.1867
 Quadrupole moment (field-independent basis, Debye-Ang):
   XX=           -111.1885   YY=            -95.7848   ZZ=            -90.4467
   XY=             -9.8959   XZ=              2.4215   YZ=             -1.0377

 Normal termination of Gaussian 16 at Wed May  5 15:55:09 2021.
