 Gaussian 16, Revision A.03,
 Gaussian 16:  EM64L-G16RevA.03 25-Dec-2016

 -------------
 #p 6-31g* mp2
 -------------

 ------------------------------------------------------
 Input file generated by CHIRIPA (05-May-2021 14:53:17)
 ------------------------------------------------------
 Symbolic Z-matrix:
 Charge =  0 Multiplicity = 1

                         Standard orientation:
 ---------------------------------------------------------------------
 Center     Atomic      Atomic             Coordinates (Angstroms)
 Number     Number       Type             X           Y           Z
 ---------------------------------------------------------------------
      1          6           0        1.077846    2.102991   -0.046640
      2          6           0        0.020747    2.375649    1.023960
      3          6           0       -0.887309    3.554206    0.671495
      4          1           0        1.686323    3.006317   -0.190521
      5          1           0        0.577136    1.907480   -1.005004
      6          1           0        0.523257    2.569225    1.980322
      7          1           0       -0.585162    1.471508    1.165445
      8          1           0       -1.414770    3.366236   -0.269277
      9          1           0       -0.300053    4.470190    0.550229
     10          1           0       -1.635499    3.731508    1.450364
     11          6           0        1.993316    0.927668    0.291383
     12          6           0        3.050414    0.655010   -0.779218
     13          6           0        3.958470   -0.523547   -0.426753
     14          1           0        2.494025    1.123180    1.249746
     15          1           0        1.384838    0.024342    0.435263
     16          1           0        3.656323    1.559152   -0.920703
     17          1           0        2.547904    0.461435   -1.735579
     18          1           0        3.371214   -1.439531   -0.305487
     19          1           0        4.485932   -0.335577    0.514020
     20          1           0        4.706660   -0.700848   -1.205621
     21          6           0        0.373545   -2.834875    0.983763
     22          6           0        0.448076   -2.593536   -0.391998
     23          6           0       -0.418556   -1.680875   -1.000725
     24          6           0       -1.351765   -1.024237   -0.199951
     25          6           0       -1.450690   -1.243143    1.173214
     26          6           0       -0.573930   -2.160099    1.760609
     27          1           0        1.050699   -3.545520    1.448352
     28          1           0        1.182899   -3.116128   -0.997784
     29          1           0       -0.382622   -1.475027   -2.063623
     30          1           0       -2.193709   -0.706937    1.750990
     31          1           0       -0.634094   -2.345534    2.829272
     32          7           0       -2.274591   -0.055770   -0.833092
     33          8           0       -3.087876    0.509846   -0.105574
     34          8           0       -2.167142    0.119359   -2.044877
 ---------------------------------------------------------------------

 SCF Done:  E(RHF) =  -669.533619077     A.U. after   15 cycles
 E2 =    -0.2099425838D+01 EUMP2 =    -0.67163304491533D+03

 The electronic state is 1-A.
 Alpha  occ. eigenvalues --  -20.61056 -20.61036 -15.86055 -11.31390 -11.27974
 Alpha  occ. eigenvalues --  -11.27960 -11.27712 -11.26989 -11.26965 -11.21667
 Alpha  occ. eigenvalues --  -11.21383 -11.21130 -11.21105 -11.21013 -11.20269
 Alpha  occ. eigenvalues --   -1.60097  -1.39653  -1.19621  -1.08994  -1.08216
 Alpha  occ. eigenvalues --   -1.05005  -1.03313  -0.95827  -0.95737  -0.86778
 Alpha  occ. eigenvalues --   -0.86379  -0.82650  -0.79416  -0.78012  -0.77705
 Alpha  occ. eigenvalues --   -0.72282  -0.71479  -0.70688  -0.65248  -0.64988
 Alpha  occ. eigenvalues --   -0.64900  -0.62351  -0.60718  -0.59164  -0.57350
 Alpha  occ. eigenvalues --   -0.55490  -0.55134  -0.53399  -0.53065  -0.52418
 Alpha  occ. eigenvalues --   -0.52162  -0.49717  -0.49053  -0.49034  -0.47732
 Alpha  occ. eigenvalues --   -0.46516  -0.45532  -0.45379  -0.44785  -0.43527
 Alpha  occ. eigenvalues --   -0.37531  -0.36530
 Alpha virt. eigenvalues --    0.04780   0.10833   0.16258   0.20677   0.23160
 Alpha virt. eigenvalues --    0.24154   0.26444   0.26972   0.27914   0.28295
 Alpha virt. eigenvalues --    0.28440   0.30561   0.31704   0.32061   0.32330

 Mulliken charges:
               1
     1  C   -0.303035
     2  C   -0.305698
     3  C   -0.474308
     4  H    0.149704
     5  H    0.153452
     6  H    0.147359
     7  H    0.150716
     8  H    0.168220
     9  H    0.150070
    10  H    0.160310
    11  C   -0.306010
    12  C   -0.298031
    13  C   -0.476566
    14  H    0.145631
    15  H    0.160568
    16  H    0.153584
    17  H    0.148920
    18  H    0.146435
    19  H    0.155483
    20  H    0.159419
    21  C   -0.170719
    22  C   -0.217807
    23  C   -0.173910
    24  C    0.161844
    25  C   -0.174535
    26  C   -0.216133
    27  H    0.227603
    28  H    0.225686
    29  H    0.276483
    30  H    0.276858
    31  H    0.225225
    32  N    0.490302
    33  O   -0.457867
    34  O   -0.459253
 Sum of Mulliken charges =  -0.00000

 Dipole moment (field-independent basis, Debye):
    X=              2.9827    Y=             -3.5159    Z=              2.2035  Tot=              5.1101
 Quadrupole moment (field-independent basis, Debye-Ang):
   XX=           -103.7669   YY=            -88.4191   ZZ=            -91.6341
   XY=              1.6689   XZ=             -5.6045   YZ=             -0.7111

 Normal termination of Gaussian 16 at Wed May  5 15:45:33 2021.
