 Gaussian 16, Revision A.03,
 Gaussian 16:  EM64L-G16RevA.03 25-Dec-2016

 -------------
 #p 6-31g* mp2
 -------------

 ------------------------------------------------------
 Input file generated by CHIRIPA (05-May-2021 14:55:19)
 ------------------------------------------------------
 Symbolic Z-matrix:
 Charge =  0 Multiplicity = 1

                         Standard orientation:
 ---------------------------------------------------------------------
 Center     Atomic      Atomic             Coordinates (Angstroms)
 Number     Number       Type             X           Y           Z
 ---------------------------------------------------------------------
      1          6           0        1.859632    1.907231   -1.435236
      2          6           0        0.888044    0.903873   -1.511456
      3          6           0        1.084387   -0.324526   -0.873463
      4          6           0        2.269333   -0.516431   -0.164687
      5          6           0        3.256166    0.463640   -0.070292
      6          6           0        3.038514    1.684305   -0.716166
      7          1           0        1.698831    2.858477   -1.933905
      8          1           0       -0.028453    1.074206   -2.069188
      9          1           0        0.348818   -1.118586   -0.916185
     10          1           0        4.159643    0.264411    0.493139
     11          1           0        3.794803    2.461714   -0.655266
     12          7           0        2.488472   -1.812788    0.514899
     13          8           0        3.540966   -1.957008    1.133036
     14          8           0        1.603590   -2.660106    0.416553
     15          6           0       -2.549140    1.083439    0.295334
     16          6           0       -1.687304    1.467567    1.498525
     17          6           0       -1.075292    2.862448    1.366071
     18          1           0       -1.937686    1.132091   -0.616095
     19          1           0       -3.349830    1.826209    0.174582
     20          1           0       -0.889304    0.723534    1.617804
     21          1           0       -2.300831    1.417808    2.407218
     22          1           0       -1.859949    3.619872    1.270021
     23          1           0       -0.440402    2.921652    0.476122
     24          1           0       -0.463174    3.116642    2.237022
     25          6           0       -3.167894   -0.308333    0.412994
     26          6           0       -4.029731   -0.692461   -0.790197
     27          6           0       -4.641742   -2.087342   -0.657744
     28          1           0       -2.367204   -1.051104    0.533746
     29          1           0       -3.779349   -0.356986    1.324423
     30          1           0       -3.416203   -0.642702   -1.698890
     31          1           0       -4.827731    0.051572   -0.909476
     32          1           0       -5.276633   -2.146546    0.232206
     33          1           0       -3.857085   -2.844765   -0.561693
     34          1           0       -5.253860   -2.341537   -1.528694
 ---------------------------------------------------------------------

 SCF Done:  E(RHF) =  -669.534724968     A.U. after   15 cycles
 E2 =    -0.2094517366D+01 EUMP2 =    -0.67162924233364D+03

 The electronic state is 1-A.
 Alpha  occ. eigenvalues --  -20.60863 -20.60857 -15.85917 -11.31315 -11.27883
 Alpha  occ. eigenvalues --  -11.27862 -11.27613 -11.26893 -11.26882 -11.21959
 Alpha  occ. eigenvalues --  -11.21858 -11.21800 -11.21679 -11.21333 -11.21234
 Alpha  occ. eigenvalues --   -1.59937  -1.39490  -1.19489  -1.08890  -1.08765
 Alpha  occ. eigenvalues --   -1.04897  -1.03804  -0.96267  -0.95704  -0.87280
 Alpha  occ. eigenvalues --   -0.86293  -0.82539  -0.79880  -0.78610  -0.77577
 Alpha  occ. eigenvalues --   -0.72134  -0.71262  -0.70588  -0.65516  -0.65126
 Alpha  occ. eigenvalues --   -0.64871  -0.62228  -0.61223  -0.59627  -0.57879
 Alpha  occ. eigenvalues --   -0.55618  -0.55347  -0.53187  -0.53032  -0.52929
 Alpha  occ. eigenvalues --   -0.52647  -0.50206  -0.48897  -0.48888  -0.48185
 Alpha  occ. eigenvalues --   -0.46923  -0.46140  -0.46048  -0.44887  -0.44087
 Alpha  occ. eigenvalues --   -0.37415  -0.36438
 Alpha virt. eigenvalues --    0.04913   0.11038   0.16290   0.19468   0.22947
 Alpha virt. eigenvalues --    0.24006   0.25120   0.26071   0.27181   0.28571
 Alpha virt. eigenvalues --    0.30135   0.30565   0.31101   0.31664   0.31899

 Mulliken charges:
               1
     1  C   -0.171733
     2  C   -0.216912
     3  C   -0.172024
     4  C    0.158316
     5  C   -0.170589
     6  C   -0.217940
     7  H    0.226950
     8  H    0.226060
     9  H    0.277157
    10  H    0.276137
    11  H    0.224313
    12  N    0.488085
    13  O   -0.459756
    14  O   -0.460567
    15  C   -0.299607
    16  C   -0.299540
    17  C   -0.478176
    18  H    0.138742
    19  H    0.150261
    20  H    0.156053
    21  H    0.154279
    22  H    0.153222
    23  H    0.152318
    24  H    0.161538
    25  C   -0.302160
    26  C   -0.298548
    27  C   -0.476454
    28  H    0.153470
    29  H    0.153605
    30  H    0.144395
    31  H    0.152517
    32  H    0.157074
    33  H    0.159016
    34  H    0.160496
 Sum of Mulliken charges =  -0.00000

 Dipole moment (field-independent basis, Debye):
    X=             -0.7149    Y=              4.4864    Z=             -2.3272  Tot=              5.1044
 Quadrupole moment (field-independent basis, Debye-Ang):
   XX=            -93.6700   YY=           -100.4719   ZZ=            -93.8629
   XY=             12.0764   XZ=             -4.3660   YZ=              1.0971

 Normal termination of Gaussian 16 at Thu May  6 07:39:42 2021.
