 Gaussian 16, Revision A.03,
 Gaussian 16:  EM64L-G16RevA.03 25-Dec-2016

 -------------
 #p 6-31g* mp2
 -------------

 ------------------------------------------------------
 Input file generated by CHIRIPA (05-May-2021 14:55:25)
 ------------------------------------------------------
 Symbolic Z-matrix:
 Charge =  0 Multiplicity = 1

                         Standard orientation:
 ---------------------------------------------------------------------
 Center     Atomic      Atomic             Coordinates (Angstroms)
 Number     Number       Type             X           Y           Z
 ---------------------------------------------------------------------
      1          6           0        5.189634    0.836685    0.180157
      2          6           0        4.100075    1.713599    0.160034
      3          6           0        2.796602    1.223716    0.035454
      4          6           0        2.618338   -0.155039   -0.067251
      5          6           0        3.683440   -1.054239   -0.050320
      6          6           0        4.978212   -0.542004    0.075102
      7          1           0        6.198823    1.225920    0.277261
      8          1           0        4.261274    2.784782    0.241440
      9          1           0        1.935056    1.880085    0.017123
     10          1           0        3.491192   -2.117046   -0.133384
     11          1           0        5.822486   -1.225387    0.090442
     12          7           0        1.243015   -0.685487   -0.199583
     13          8           0        1.112608   -1.904394   -0.288449
     14          8           0        0.321487    0.127698   -0.211933
     15          6           0       -3.227504   -0.548870    0.148683
     16          6           0       -4.052041   -1.831448    0.034148
     17          6           0       -3.209594   -3.094164    0.217525
     18          1           0       -2.425084   -0.568165   -0.601447
     19          1           0       -2.736290   -0.523556    1.131263
     20          1           0       -4.542660   -1.853671   -0.947389
     21          1           0       -4.852708   -1.809011    0.784510
     22          1           0       -2.731769   -3.098795    1.202545
     23          1           0       -2.419961   -3.143709   -0.539195
     24          1           0       -3.818930   -3.999270    0.131781
     25          6           0       -4.055716    0.721963   -0.032356
     26          6           0       -3.231179    2.004541    0.082181
     27          6           0       -4.073626    3.267256   -0.101197
     28          1           0       -4.546931    0.696648   -1.014935
     29          1           0       -4.858136    0.741259    0.717775
     30          1           0       -2.430511    1.982103   -0.668182
     31          1           0       -2.740559    2.026764    1.063717
     32          1           0       -4.863259    3.316801    0.655523
     33          1           0       -4.551450    3.271887   -1.086217
     34          1           0       -3.464289    4.172362   -0.015452
 ---------------------------------------------------------------------

 SCF Done:  E(RHF) =  -669.536044400     A.U. after   15 cycles
 E2 =    -0.2091716038D+01 EUMP2 =    -0.67162776043826D+03

 The electronic state is 1-A.
 Alpha  occ. eigenvalues --  -20.61000 -20.60993 -15.86020 -11.31329 -11.27889
 Alpha  occ. eigenvalues --  -11.27885 -11.27624 -11.26893 -11.26883 -11.20367
 Alpha  occ. eigenvalues --  -11.20198 -11.20118 -11.20040 -11.19524 -11.19478
 Alpha  occ. eigenvalues --   -1.60054  -1.39610  -1.19495  -1.08903  -1.06965
 Alpha  occ. eigenvalues --   -1.04889  -1.02197  -0.95747  -0.94639  -0.86290
 Alpha  occ. eigenvalues --   -0.85655  -0.82581  -0.78263  -0.77635  -0.76686
 Alpha  occ. eigenvalues --   -0.72227  -0.71366  -0.70603  -0.65150  -0.64891
 Alpha  occ. eigenvalues --   -0.63613  -0.62235  -0.59612  -0.58040  -0.56236
 Alpha  occ. eigenvalues --   -0.55394  -0.53935  -0.53222  -0.52980  -0.51408
 Alpha  occ. eigenvalues --   -0.51056  -0.49063  -0.48998  -0.48540  -0.46566
 Alpha  occ. eigenvalues --   -0.45307  -0.45038  -0.44232  -0.44038  -0.42400
 Alpha  occ. eigenvalues --   -0.37474  -0.36489
 Alpha virt. eigenvalues --    0.04889   0.11166   0.16389   0.21287   0.24201
 Alpha virt. eigenvalues --    0.25552   0.27218   0.27923   0.28178   0.29074
 Alpha virt. eigenvalues --    0.29278   0.30939   0.32363   0.32671   0.32829

 Mulliken charges:
               1
     1  C   -0.170539
     2  C   -0.218560
     3  C   -0.170920
     4  C    0.157632
     5  C   -0.170664
     6  C   -0.218599
     7  H    0.226117
     8  H    0.223981
     9  H    0.276036
    10  H    0.275957
    11  H    0.223935
    12  N    0.489968
    13  O   -0.459280
    14  O   -0.459993
    15  C   -0.299698
    16  C   -0.299647
    17  C   -0.474394
    18  H    0.173563
    19  H    0.148092
    20  H    0.146222
    21  H    0.144444
    22  H    0.153997
    23  H    0.165673
    24  H    0.151502
    25  C   -0.298478
    26  C   -0.297923
    27  C   -0.474824
    28  H    0.144512
    29  H    0.143131
    30  H    0.159210
    31  H    0.150128
    32  H    0.152231
    33  H    0.152745
    34  H    0.154447
 Sum of Mulliken charges =  -0.00000

 Dipole moment (field-independent basis, Debye):
    X=              5.3240    Y=              1.8032    Z=              0.3964  Tot=              5.6350
 Quadrupole moment (field-independent basis, Debye-Ang):
   XX=            -71.4408   YY=            -92.9290   ZZ=            -94.8080
   XY=              2.8512   XZ=              0.8476   YZ=              0.2225

 Normal termination of Gaussian 16 at Thu May  6 09:33:46 2021.
