 Gaussian 16, Revision A.03,
 Gaussian 16:  EM64L-G16RevA.03 25-Dec-2016

 -------------
 #p 6-31g* mp2
 -------------

 ------------------------------------------------------
 Input file generated by CHIRIPA (05-May-2021 14:55:21)
 ------------------------------------------------------
 Symbolic Z-matrix:
 Charge =  0 Multiplicity = 1

                         Standard orientation:
 ---------------------------------------------------------------------
 Center     Atomic      Atomic             Coordinates (Angstroms)
 Number     Number       Type             X           Y           Z
 ---------------------------------------------------------------------
      1          6           0        1.947109    1.639287    0.660164
      2          6           0        2.042179    0.434308    1.364088
      3          6           0        3.036629   -0.496107    1.047945
      4          6           0        3.923320   -0.187674    0.017441
      5          6           0        3.854402    1.004197   -0.702270
      6          6           0        2.851929    1.919891   -0.368954
      7          1           0        1.171480    2.356337    0.912422
      8          1           0        1.340853    0.213718    2.163792
      9          1           0        3.132997   -1.436619    1.576686
     10          1           0        4.567945    1.195966   -1.494418
     11          1           0        2.780482    2.854890   -0.917330
     12          7           0        4.980347   -1.164870   -0.326336
     13          8           0        5.749343   -0.869395   -1.238463
     14          8           0        5.019833   -2.207769    0.322849
     15          6           0       -5.289843   -0.500982    0.141970
     16          6           0       -6.642937   -0.438959   -0.567449
     17          6           0       -7.614373   -1.515665   -0.082878
     18          1           0       -4.846410   -1.493953   -0.013979
     19          1           0       -5.446017   -0.394909    1.224446
     20          1           0       -6.484131   -0.543732   -1.648384
     21          1           0       -7.083113    0.554045   -0.409954
     22          1           0       -7.802161   -1.410205    0.990536
     23          1           0       -7.199776   -2.514218   -0.254932
     24          1           0       -8.575231   -1.453005   -0.603152
     25          6           0       -4.307877    0.569130   -0.331665
     26          6           0       -2.954783    0.507107    0.377755
     27          6           0       -1.983347    1.583813   -0.106817
     28          1           0       -4.151704    0.463056   -1.414140
     29          1           0       -4.751309    1.562102   -0.175715
     30          1           0       -2.514607   -0.485896    0.220260
     31          1           0       -3.113589    0.611878    1.458690
     32          1           0       -2.397944    2.582366    0.065237
     33          1           0       -1.795559    1.478352   -1.180230
     34          1           0       -1.022489    1.521152    0.413457
 ---------------------------------------------------------------------

 SCF Done:  E(RHF) =  -669.535213873     A.U. after   15 cycles
 E2 =    -0.2091271071D+01 EUMP2 =    -0.67162648494389D+03

 The electronic state is 1-A.
 Alpha  occ. eigenvalues --  -20.60761 -20.60756 -15.85816 -11.31185 -11.27757
 Alpha  occ. eigenvalues --  -11.27752 -11.27476 -11.26773 -11.26755 -11.22321
 Alpha  occ. eigenvalues --  -11.21973 -11.21963 -11.21937 -11.21809 -11.21367
 Alpha  occ. eigenvalues --   -1.59837  -1.39390  -1.19360  -1.08958  -1.08754
 Alpha  occ. eigenvalues --   -1.04762  -1.04087  -0.96553  -0.95587  -0.87574
 Alpha  occ. eigenvalues --   -0.86159  -0.82421  -0.80160  -0.78743  -0.77464
 Alpha  occ. eigenvalues --   -0.72034  -0.71160  -0.70494  -0.65579  -0.65013
 Alpha  occ. eigenvalues --   -0.64770  -0.62110  -0.61473  -0.59976  -0.58163
 Alpha  occ. eigenvalues --   -0.55818  -0.55308  -0.53352  -0.53050  -0.52861
 Alpha  occ. eigenvalues --   -0.52850  -0.50474  -0.48793  -0.48788  -0.48470
 Alpha  occ. eigenvalues --   -0.47174  -0.46293  -0.46196  -0.44795  -0.44342
 Alpha  occ. eigenvalues --   -0.37306  -0.36366
 Alpha virt. eigenvalues --    0.05042   0.11234   0.16468   0.20628   0.22490
 Alpha virt. eigenvalues --    0.23945   0.26158   0.26487   0.26933   0.27481
 Alpha virt. eigenvalues --    0.28500   0.30584   0.30879   0.31446   0.32061

 Mulliken charges:
               1
     1  C   -0.169244
     2  C   -0.219128
     3  C   -0.170972
     4  C    0.158510
     5  C   -0.171058
     6  C   -0.219802
     7  H    0.227504
     8  H    0.223766
     9  H    0.275638
    10  H    0.275622
    11  H    0.223844
    12  N    0.488087
    13  O   -0.460421
    14  O   -0.460467
    15  C   -0.298769
    16  C   -0.300045
    17  C   -0.476013
    18  H    0.150843
    19  H    0.149502
    20  H    0.152803
    21  H    0.152100
    22  H    0.155314
    23  H    0.155997
    24  H    0.161367
    25  C   -0.298966
    26  C   -0.299685
    27  C   -0.479129
    28  H    0.151257
    29  H    0.150022
    30  H    0.154377
    31  H    0.150636
    32  H    0.155053
    33  H    0.159613
    34  H    0.151845
 Sum of Mulliken charges =  -0.00000

 Dipole moment (field-independent basis, Debye):
    X=             -3.8420    Y=              3.4153    Z=              1.1605  Tot=              5.2700
 Quadrupole moment (field-independent basis, Debye-Ang):
   XX=           -124.1095   YY=            -94.7556   ZZ=            -92.1074
   XY=             14.8120   XZ=              3.3633   YZ=             -2.1435

 Normal termination of Gaussian 16 at Thu May  6 14:09:38 2021.
