 Gaussian 16, Revision A.03,
 Gaussian 16:  EM64L-G16RevA.03 25-Dec-2016

 -------------
 #p 6-31g* mp2
 -------------

 ------------------------------------------------------
 Input file generated by CHIRIPA (05-May-2021 14:55:22)
 ------------------------------------------------------
 Symbolic Z-matrix:
 Charge =  0 Multiplicity = 1

                         Standard orientation:
 ---------------------------------------------------------------------
 Center     Atomic      Atomic             Coordinates (Angstroms)
 Number     Number       Type             X           Y           Z
 ---------------------------------------------------------------------
      1          6           0        4.276453    0.881414   -0.090282
      2          6           0        3.780297    0.274450   -1.248706
      3          6           0        2.674808   -0.579030   -1.185349
      4          6           0        2.087277   -0.804302    0.058576
      5          6           0        2.558336   -0.214436    1.230520
      6          6           0        3.664967    0.635467    1.143458
      7          1           0        5.135667    1.543028   -0.148707
      8          1           0        4.253177    0.463627   -2.208206
      9          1           0        2.270163   -1.062038   -2.066475
     10          1           0        2.065790   -0.422285    2.172653
     11          1           0        4.048136    1.105467    2.044750
     12          7           0        0.916340   -1.705950    0.138197
     13          8           0        0.416586   -1.888148    1.246207
     14          8           0        0.520487   -2.213390   -0.908913
     15          6           0       -3.226572    0.144133   -0.131783
     16          6           0       -4.741831    0.127254    0.072397
     17          6           0       -5.343060   -1.270492   -0.078013
     18          1           0       -2.993021   -0.251594   -1.129679
     19          1           0       -2.758444   -0.537228    0.592095
     20          1           0       -5.206848    0.809496   -0.650736
     21          1           0       -4.971813    0.523247    1.069851
     22          1           0       -4.906327   -1.958436    0.653149
     23          1           0       -5.142698   -1.670560   -1.077214
     24          1           0       -6.427155   -1.259470    0.071910
     25          6           0       -2.610897    1.534459    0.015420
     26          6           0       -1.095638    1.551336   -0.188759
     27          6           0       -0.494409    2.949083   -0.038349
     28          1           0       -3.079025    2.215820   -0.708457
     29          1           0       -2.844448    1.930186    1.013317
     30          1           0       -0.865656    1.155345   -1.186214
     31          1           0       -0.630621    0.869095    0.534374
     32          1           0       -0.694771    3.349151    0.960852
     33          1           0       -0.931142    3.637026   -0.769511
     34          1           0        0.589686    2.938061   -0.188271
 ---------------------------------------------------------------------

 SCF Done:  E(RHF) =  -669.536394221     A.U. after   15 cycles
 E2 =    -0.2093036812D+01 EUMP2 =    -0.67162943103311D+03

 The electronic state is 1-A.
 Alpha  occ. eigenvalues --  -20.60912 -20.60897 -15.85917 -11.31248 -11.27813
 Alpha  occ. eigenvalues --  -11.27808 -11.27553 -11.26832 -11.26821 -11.21185
 Alpha  occ. eigenvalues --  -11.20871 -11.20840 -11.20796 -11.20416 -11.20259
 Alpha  occ. eigenvalues --   -1.59950  -1.39511  -1.19419  -1.08823  -1.07762
 Alpha  occ. eigenvalues --   -1.04819  -1.02951  -0.95664  -0.95386  -0.86409
 Alpha  occ. eigenvalues --   -0.86219  -0.82501  -0.79053  -0.77567  -0.77515
 Alpha  occ. eigenvalues --   -0.72151  -0.71250  -0.70530  -0.65079  -0.64823
 Alpha  occ. eigenvalues --   -0.64389  -0.62168  -0.60354  -0.58792  -0.57002
 Alpha  occ. eigenvalues --   -0.55324  -0.54672  -0.53130  -0.52912  -0.52126
 Alpha  occ. eigenvalues --   -0.51800  -0.49333  -0.48911  -0.48906  -0.47354
 Alpha  occ. eigenvalues --   -0.46130  -0.45167  -0.45073  -0.44630  -0.43166
 Alpha  occ. eigenvalues --   -0.37374  -0.36412
 Alpha virt. eigenvalues --    0.04968   0.11176   0.16454   0.21345   0.23466
 Alpha virt. eigenvalues --    0.24776   0.27125   0.27416   0.27698   0.28342
 Alpha virt. eigenvalues --    0.28597   0.30941   0.31752   0.31985   0.32393

 Mulliken charges:
               1
     1  C   -0.171051
     2  C   -0.218630
     3  C   -0.171176
     4  C    0.160614
     5  C   -0.172312
     6  C   -0.218303
     7  H    0.225939
     8  H    0.223723
     9  H    0.275611
    10  H    0.275512
    11  H    0.223865
    12  N    0.490771
    13  O   -0.461071
    14  O   -0.458034
    15  C   -0.303099
    16  C   -0.299354
    17  C   -0.475494
    18  H    0.152753
    19  H    0.164166
    20  H    0.148050
    21  H    0.149392
    22  H    0.159530
    23  H    0.155987
    24  H    0.156345
    25  C   -0.296955
    26  C   -0.305886
    27  C   -0.475815
    28  H    0.146399
    29  H    0.147638
    30  H    0.152264
    31  H    0.154226
    32  H    0.153510
    33  H    0.154149
    34  H    0.156735
 Sum of Mulliken charges =  -0.00000

 Dipole moment (field-independent basis, Debye):
    X=              4.2291    Y=              2.9805    Z=             -0.2783  Tot=              5.1813
 Quadrupole moment (field-independent basis, Debye-Ang):
   XX=            -78.9005   YY=           -101.7460   ZZ=            -88.8926
   XY=              3.2172   XZ=             -0.6121   YZ=              1.0662

 Normal termination of Gaussian 16 at Wed May  5 20:40:46 2021.
