 Gaussian 16, Revision A.03,
 Gaussian 16:  EM64L-G16RevA.03 25-Dec-2016

 -------------
 #p 6-31g* mp2
 -------------

 ------------------------------------------------------
 Input file generated by CHIRIPA (05-May-2021 14:57:26)
 ------------------------------------------------------
 Symbolic Z-matrix:
 Charge =  0 Multiplicity = 1

                         Standard orientation:
 ---------------------------------------------------------------------
 Center     Atomic      Atomic             Coordinates (Angstroms)
 Number     Number       Type             X           Y           Z
 ---------------------------------------------------------------------
      1          6           0        5.304067    0.486435    0.473827
      2          6           0        4.693458   -0.565619    1.164378
      3          6           0        3.381471   -0.944616    0.865046
      4          6           0        2.706396   -0.246701   -0.135194
      5          6           0        3.287441    0.805725   -0.840938
      6          6           0        4.600351    1.167548   -0.524866
      7          1           0        6.323609    0.774178    0.712857
      8          1           0        5.237564   -1.096366    1.940459
      9          1           0        2.884652   -1.755339    1.384003
     10          1           0        2.719657    1.315988   -1.609489
     11          1           0        5.072031    1.984979   -1.062797
     12          7           0        1.316966   -0.638838   -0.460944
     13          8           0        0.743662   -0.008091   -1.346448
     14          8           0        0.827544   -1.569516    0.175406
     15          6           0       -3.130827   -2.303912   -0.302689
     16          6           0       -2.781671   -1.457495   -1.360133
     17          6           0       -2.670460   -0.078495   -1.158790
     18          6           0       -2.916497    0.422408    0.118649
     19          6           0       -3.266176   -0.395018    1.192347
     20          6           0       -3.371542   -1.770912    0.967936
     21          1           0       -3.214949   -3.373946   -0.468057
     22          1           0       -2.594155   -1.868642   -2.347980
     23          1           0       -2.401746    0.599610   -1.959656
     24          1           0       -3.447050    0.044206    2.165890
     25          1           0       -3.642868   -2.425858    1.791024
     26          7           0       -2.801857    1.880650    0.344012
     27          8           0       -3.023725    2.297149    1.478886
     28          8           0       -2.492305    2.579509   -0.618490
 ---------------------------------------------------------------------

 SCF Done:  E(RHF) =  -868.338852354     A.U. after   16 cycles
 E2 =    -0.2600248999D+01 EUMP2 =    -0.87093910135286D+03

 The electronic state is 1-A.
 Alpha  occ. eigenvalues --  -20.61051 -20.61040 -20.59547 -20.59525 -15.86079
 Alpha  occ. eigenvalues --  -15.84581 -11.31287 -11.29561 -11.27860 -11.27815
 Alpha  occ. eigenvalues --  -11.27564 -11.26838 -11.26803 -11.26242 -11.26092
 Alpha  occ. eigenvalues --  -11.25921 -11.25188 -11.25037  -1.60109  -1.58621
 Alpha  occ. eigenvalues --   -1.39668  -1.38183  -1.19447  -1.17737  -1.08875
 Alpha  occ. eigenvalues --   -1.07227  -1.04828  -1.03111  -0.95736  -0.94121
 Alpha  occ. eigenvalues --   -0.86234  -0.84562  -0.82575  -0.80984  -0.77635
 Alpha  occ. eigenvalues --   -0.76053  -0.72317  -0.71422  -0.70826  -0.70559
 Alpha  occ. eigenvalues --   -0.69928  -0.68938  -0.65106  -0.64834  -0.63439
 Alpha  occ. eigenvalues --   -0.63190  -0.62177  -0.60510  -0.55347  -0.53719
 Alpha  occ. eigenvalues --   -0.53165  -0.52920  -0.51522  -0.51270  -0.49062
 Alpha  occ. eigenvalues --   -0.48934  -0.47585  -0.47547  -0.45112  -0.43672
 Alpha  occ. eigenvalues --   -0.37423  -0.36421  -0.35703  -0.34582
 Alpha virt. eigenvalues --    0.04879   0.06501   0.11235   0.13010   0.16420
 Alpha virt. eigenvalues --    0.18042   0.21378   0.22844   0.27295   0.28253
 Alpha virt. eigenvalues --    0.28740   0.29708   0.30943   0.32309   0.32490

 Mulliken charges:
               1
     1  C   -0.170123
     2  C   -0.218529
     3  C   -0.170673
     4  C    0.158268
     5  C   -0.169518
     6  C   -0.218413
     7  H    0.226299
     8  H    0.223389
     9  H    0.274089
    10  H    0.277682
    11  H    0.224922
    12  N    0.488952
    13  O   -0.462639
    14  O   -0.461450
    15  C   -0.163876
    16  C   -0.210452
    17  C   -0.147487
    18  C    0.153120
    19  C   -0.171259
    20  C   -0.217109
    21  H    0.219565
    22  H    0.218962
    23  H    0.274137
    24  H    0.268783
    25  H    0.215997
    26  N    0.488092
    27  O   -0.467920
    28  O   -0.462809
 Sum of Mulliken charges =  -0.00000

 Dipole moment (field-independent basis, Debye):
    X=              4.8552    Y=             -3.8056    Z=              0.1342  Tot=              6.1704
 Quadrupole moment (field-independent basis, Debye-Ang):
   XX=            -77.8127   YY=           -108.6859   ZZ=            -98.9092
   XY=             17.9398   XZ=              4.2047   YZ=             -5.1254

 Normal termination of Gaussian 16 at Wed May  5 18:02:45 2021.
