 Gaussian 16, Revision A.03,
 Gaussian 16:  EM64L-G16RevA.03 25-Dec-2016

 -------------
 #p 6-31g* mp2
 -------------

 ------------------------------------------------------
 Input file generated by CHIRIPA (05-May-2021 14:57:24)
 ------------------------------------------------------
 Symbolic Z-matrix:
 Charge =  0 Multiplicity = 1

                         Standard orientation:
 ---------------------------------------------------------------------
 Center     Atomic      Atomic             Coordinates (Angstroms)
 Number     Number       Type             X           Y           Z
 ---------------------------------------------------------------------
      1          6           0       -2.666021    2.162570   -0.347636
      2          6           0       -2.234094    0.974418   -0.946181
      3          6           0       -3.009102   -0.186044   -0.861099
      4          6           0       -4.216122   -0.122316   -0.166599
      5          6           0       -4.673581    1.046283    0.440360
      6          6           0       -3.882242    2.194653    0.342507
      7          1           0       -2.057632    3.059348   -0.418690
      8          1           0       -1.289998    0.946564   -1.482793
      9          1           0       -2.698648   -1.119270   -1.315108
     10          1           0       -5.619313    1.043095    0.968563
     11          1           0       -4.220190    3.115983    0.808327
     12          7           0       -5.045233   -1.344444   -0.069766
     13          8           0       -6.104727   -1.262166    0.547761
     14          8           0       -4.619897   -2.361486   -0.613230
     15          6           0        1.896024    0.214771    1.412234
     16          6           0        1.970939    0.490759    0.043022
     17          6           0        3.175496    0.331468   -0.648510
     18          6           0        4.290562   -0.107517    0.063678
     19          6           0        4.247735   -0.390658    1.427967
     20          6           0        3.032656   -0.224281    2.099125
     21          1           0        0.956209    0.341264    1.941519
     22          1           0        1.089824    0.831875   -0.492999
     23          1           0        3.261564    0.537921   -1.708409
     24          1           0        5.143022   -0.729194    1.935188
     25          1           0        2.977418   -0.439373    3.162483
     26          7           0        5.571342   -0.279901   -0.657632
     27          8           0        6.539408   -0.667919   -0.007304
     28          8           0        5.582898   -0.023734   -1.859664
 ---------------------------------------------------------------------

 SCF Done:  E(RHF) =  -868.336912226     A.U. after   16 cycles
 E2 =    -0.2599545200D+01 EUMP2 =    -0.87093645742600D+03

 The electronic state is 1-A.
 Alpha  occ. eigenvalues --  -20.61393 -20.61388 -20.61137 -20.61129 -15.86455
 Alpha  occ. eigenvalues --  -15.86195 -11.31976 -11.31644 -11.28612 -11.28557
 Alpha  occ. eigenvalues --  -11.28389 -11.28287 -11.28207 -11.28000 -11.27725
 Alpha  occ. eigenvalues --  -11.27576 -11.27372 -11.27213  -1.60467  -1.60210
 Alpha  occ. eigenvalues --   -1.40015  -1.39762  -1.20187  -1.19840  -1.09556
 Alpha  occ. eigenvalues --   -1.09215  -1.05618  -1.05270  -0.96353  -0.96030
 Alpha  occ. eigenvalues --   -0.87021  -0.86658  -0.83185  -0.82872  -0.78208
 Alpha  occ. eigenvalues --   -0.77904  -0.72667  -0.72411  -0.71795  -0.71535
 Alpha  occ. eigenvalues --   -0.71282  -0.70932  -0.65841  -0.65757  -0.65495
 Alpha  occ. eigenvalues --   -0.65213  -0.62991  -0.62578  -0.56117  -0.55746
 Alpha  occ. eigenvalues --   -0.53946  -0.53776  -0.53577  -0.53300  -0.49441
 Alpha  occ. eigenvalues --   -0.49412  -0.49177  -0.49160  -0.45385  -0.45148
 Alpha  occ. eigenvalues --   -0.38189  -0.37816  -0.37227  -0.36875
 Alpha virt. eigenvalues --    0.04350   0.04653   0.10294   0.10774   0.15754
 Alpha virt. eigenvalues --    0.16115   0.18507   0.21785   0.24601   0.27464
 Alpha virt. eigenvalues --    0.27813   0.28359   0.29533   0.31288   0.31771

 Mulliken charges:
               1
     1  C   -0.172588
     2  C   -0.225541
     3  C   -0.170363
     4  C    0.158507
     5  C   -0.169673
     6  C   -0.218940
     7  H    0.226546
     8  H    0.219946
     9  H    0.278407
    10  H    0.278276
    11  H    0.226194
    12  N    0.487918
    13  O   -0.458381
    14  O   -0.458469
    15  C   -0.171651
    16  C   -0.220766
    17  C   -0.171265
    18  C    0.159015
    19  C   -0.169813
    20  C   -0.218348
    21  H    0.228006
    22  H    0.215419
    23  H    0.275189
    24  H    0.277477
    25  H    0.225754
    26  N    0.488118
    27  O   -0.458744
    28  O   -0.460228
 Sum of Mulliken charges =  -0.00000

 Dipole moment (field-independent basis, Debye):
    X=             -1.7029    Y=              4.8496    Z=              2.3280  Tot=              5.6425
 Quadrupole moment (field-independent basis, Debye-Ang):
   XX=           -164.2601   YY=           -105.4344   ZZ=            -99.9724
   XY=            -18.4073   XZ=             11.8044   YZ=             -0.7557

 Normal termination of Gaussian 16 at Thu May  6 03:27:08 2021.
