 Gaussian 16, Revision A.03,
 Gaussian 16:  EM64L-G16RevA.03 25-Dec-2016

 -------------
 #p 6-31g* mp2
 -------------

 ------------------------------------------------------
 Input file generated by CHIRIPA (05-May-2021 14:55:24)
 ------------------------------------------------------
 Symbolic Z-matrix:
 Charge =  0 Multiplicity = 1

                         Standard orientation:
 ---------------------------------------------------------------------
 Center     Atomic      Atomic             Coordinates (Angstroms)
 Number     Number       Type             X           Y           Z
 ---------------------------------------------------------------------
      1          6           0        1.320155    1.774099    0.731193
      2          6           0        1.060143    0.476712    1.184735
      3          6           0        1.927865   -0.573029    0.869063
      4          6           0        3.051288   -0.288396    0.094340
      5          6           0        3.337610    0.993570   -0.372429
      6          6           0        2.456056    2.027940   -0.044574
      7          1           0        0.640715    2.583593    0.981146
      8          1           0        0.178755    0.276642    1.787373
      9          1           0        1.750632   -1.586823    1.207040
     10          1           0        4.224314    1.162092   -0.971407
     11          1           0        2.660506    3.034523   -0.398179
     12          7           0        3.977228   -1.391573   -0.246297
     13          8           0        4.960133   -1.114707   -0.930315
     14          8           0        3.702543   -2.512221    0.177180
     15          6           0       -3.834663   -0.605212   -0.326595
     16          6           0       -5.193302   -1.092993    0.177540
     17          6           0       -5.427389   -2.578651   -0.097816
     18          1           0       -3.761387   -0.795500   -1.406116
     19          1           0       -3.040659   -1.196905    0.149694
     20          1           0       -5.984449   -0.499632   -0.298512
     21          1           0       -5.263428   -0.901347    1.255950
     22          1           0       -4.659152   -3.186715    0.390723
     23          1           0       -5.384270   -2.782718   -1.172571
     24          1           0       -6.404494   -2.906181    0.270762
     25          6           0       -3.585963    0.878053   -0.058636
     26          6           0       -2.227323    1.365835   -0.562771
     27          6           0       -1.993236    2.851492   -0.287416
     28          1           0       -4.379967    1.469747   -0.534926
     29          1           0       -3.659238    1.068341    1.020885
     30          1           0       -2.157198    1.174188   -1.641182
     31          1           0       -1.436176    0.772473   -0.086720
     32          1           0       -2.036355    3.055559    0.787339
     33          1           0       -2.761474    3.459557   -0.775954
     34          1           0       -1.016131    3.179021   -0.655993
 ---------------------------------------------------------------------

 SCF Done:  E(RHF) =  -669.533746828     A.U. after   15 cycles
 E2 =    -0.2093680602D+01 EUMP2 =    -0.67162742743010D+03

 The electronic state is 1-A.
 Alpha  occ. eigenvalues --  -20.60766 -20.60761 -15.85822 -11.31191 -11.27780
 Alpha  occ. eigenvalues --  -11.27776 -11.27440 -11.26771 -11.26760 -11.22350
 Alpha  occ. eigenvalues --  -11.22174 -11.22090 -11.22065 -11.21942 -11.21423
 Alpha  occ. eigenvalues --   -1.59842  -1.39396  -1.19378  -1.09109  -1.08755
 Alpha  occ. eigenvalues --   -1.04792  -1.04213  -0.96706  -0.95583  -0.87711
 Alpha  occ. eigenvalues --   -0.86189  -0.82433  -0.80273  -0.78869  -0.77481
 Alpha  occ. eigenvalues --   -0.72041  -0.71166  -0.70514  -0.65802  -0.65021
 Alpha  occ. eigenvalues --   -0.64780  -0.62175  -0.61571  -0.60104  -0.58290
 Alpha  occ. eigenvalues --   -0.56093  -0.55193  -0.53390  -0.53130  -0.52985
 Alpha  occ. eigenvalues --   -0.52875  -0.50608  -0.48813  -0.48794  -0.48561
 Alpha  occ. eigenvalues --   -0.47297  -0.46411  -0.46333  -0.44801  -0.44455
 Alpha  occ. eigenvalues --   -0.37278  -0.36361
 Alpha virt. eigenvalues --    0.05044   0.11107   0.16449   0.19864   0.22758
 Alpha virt. eigenvalues --    0.24188   0.25452   0.26219   0.27111   0.27847
 Alpha virt. eigenvalues --    0.29713   0.30309   0.30914   0.31129   0.32027

 Mulliken charges:
               1
     1  C   -0.167813
     2  C   -0.220869
     3  C   -0.172132
     4  C    0.158099
     5  C   -0.170074
     6  C   -0.221068
     7  H    0.232716
     8  H    0.223307
     9  H    0.275572
    10  H    0.275689
    11  H    0.223473
    12  N    0.488148
    13  O   -0.460459
    14  O   -0.460492
    15  C   -0.297862
    16  C   -0.300082
    17  C   -0.476056
    18  H    0.152709
    19  H    0.146928
    20  H    0.153113
    21  H    0.151235
    22  H    0.155617
    23  H    0.156765
    24  H    0.161685
    25  C   -0.298719
    26  C   -0.305663
    27  C   -0.482079
    28  H    0.151867
    29  H    0.146537
    30  H    0.157207
    31  H    0.154851
    32  H    0.148982
    33  H    0.162338
    34  H    0.156529
 Sum of Mulliken charges =  -0.00000

 Dipole moment (field-independent basis, Debye):
    X=             -3.3596    Y=              3.8500    Z=              1.1154  Tot=              5.2300
 Quadrupole moment (field-independent basis, Debye-Ang):
   XX=           -113.0148   YY=            -96.4466   ZZ=            -93.0361
   XY=             14.7629   XZ=              2.2890   YZ=             -2.2972

 Normal termination of Gaussian 16 at Thu May  6 17:41:21 2021.
