 Gaussian 16, Revision A.03,
 Gaussian 16:  EM64L-G16RevA.03 25-Dec-2016

 -------------
 #p 6-31g* mp2
 -------------

 ------------------------------------------------------
 Input file generated by CHIRIPA (05-May-2021 14:51:11)
 ------------------------------------------------------
 Symbolic Z-matrix:
 Charge =  0 Multiplicity = 1

                         Standard orientation:
 ---------------------------------------------------------------------
 Center     Atomic      Atomic             Coordinates (Angstroms)
 Number     Number       Type             X           Y           Z
 ---------------------------------------------------------------------
      1          6           0        2.205819    0.889713    0.006325
      2          6           0        3.003947    2.182917    0.175438
      3          6           0        2.200272    3.288209    0.861173
      4          1           0        1.298106    1.100000   -0.575724
      5          1           0        1.870679    0.542148    0.993379
      6          1           0        3.338657    2.527195   -0.811506
      7          1           0        3.909962    1.969490    0.756989
      8          1           0        1.878757    2.969000    1.857834
      9          1           0        1.304206    3.529874    0.280428
     10          1           0        2.789897    4.203602    0.971893
     11          6           0        2.995779   -0.224679   -0.677650
     12          6           0        2.197651   -1.517883   -0.846763
     13          6           0        3.001326   -2.623174   -1.532498
     14          1           0        3.330919    0.122886   -1.664704
     15          1           0        3.903492   -0.434965   -0.095601
     16          1           0        1.291636   -1.304455   -1.428314
     17          1           0        1.862941   -1.862161    0.140181
     18          1           0        3.897392   -2.864840   -0.951753
     19          1           0        3.322841   -2.303965   -2.529159
     20          1           0        2.411701   -3.538567   -1.643218
     21          6           0       -1.962130   -0.726792    0.477372
     22          6           0       -1.771242   -1.060369    1.957328
     23          6           0       -0.489149   -1.849317    2.224896
     24          1           0       -1.975788   -1.659287   -0.103329
     25          1           0       -1.095637   -0.151009    0.123735
     26          1           0       -2.638486   -1.634163    2.308420
     27          1           0       -1.758230   -0.126982    2.534596
     28          1           0        0.388202   -1.279769    1.901676
     29          1           0       -0.497055   -2.795514    1.674215
     30          1           0       -0.372609   -2.077073    3.289041
     31          6           0       -3.239468    0.061757    0.193954
     32          6           0       -3.430356    0.395335   -1.286004
     33          6           0       -4.712449    1.184283   -1.553571
     34          1           0       -4.105960   -0.514025    0.547591
     35          1           0       -3.225810    0.994252    0.774654
     36          1           0       -3.443369   -0.538052   -1.863270
     37          1           0       -2.563113    0.969129   -1.637095
     38          1           0       -4.704543    2.130480   -1.002890
     39          1           0       -5.589800    0.614735   -1.230351
     40          1           0       -4.828990    1.412038   -2.617716
 ---------------------------------------------------------------------

 SCF Done:  E(RHF) =  -470.732532580     A.U. after   11 cycles
 E2 =    -0.1584523119D+01 EUMP2 =    -0.47231705569838D+03

 The electronic state is 1-A.
 Alpha  occ. eigenvalues --  -11.21660 -11.21600 -11.21569 -11.21505 -11.21467
 Alpha  occ. eigenvalues --  -11.21371 -11.21360 -11.21285 -11.21132 -11.21068
 Alpha  occ. eigenvalues --  -11.21029 -11.21022  -1.08480  -1.08381  -1.03552
 Alpha  occ. eigenvalues --   -1.03497  -0.96000  -0.95962  -0.87025  -0.86972
 Alpha  occ. eigenvalues --   -0.79680  -0.79530  -0.78440  -0.78041  -0.65126
 Alpha  occ. eigenvalues --   -0.65018  -0.60965  -0.60895  -0.59416  -0.59280
 Alpha  occ. eigenvalues --   -0.57625  -0.57558  -0.55364  -0.55187  -0.52698
 Alpha  occ. eigenvalues --   -0.52655  -0.52466  -0.52370  -0.49963  -0.49912
 Alpha  occ. eigenvalues --   -0.48126  -0.47790  -0.46734  -0.46614  -0.46199
 Alpha  occ. eigenvalues --   -0.45721  -0.45611  -0.45104  -0.43798  -0.43755
 Alpha virt. eigenvalues --    0.20890   0.23177   0.23718   0.24232   0.24684
 Alpha virt. eigenvalues --    0.25758   0.26935   0.27829   0.28779   0.30015
 Alpha virt. eigenvalues --    0.31117   0.31391   0.31574   0.31855   0.32135

 Mulliken charges:
               1
     1  C   -0.305330
     2  C   -0.299255
     3  C   -0.475829
     4  H    0.151169
     5  H    0.153187
     6  H    0.152348
     7  H    0.152358
     8  H    0.155111
     9  H    0.154804
    10  H    0.160678
    11  C   -0.298084
    12  C   -0.306776
    13  C   -0.475341
    14  H    0.149422
    15  H    0.149476
    16  H    0.153167
    17  H    0.159785
    18  H    0.154886
    19  H    0.154718
    20  H    0.160035
    21  C   -0.303845
    22  C   -0.298919
    23  C   -0.483745
    24  H    0.149299
    25  H    0.156224
    26  H    0.151663
    27  H    0.151561
    28  H    0.163120
    29  H    0.155379
    30  H    0.159602
    31  C   -0.298185
    32  C   -0.299415
    33  C   -0.475661
    34  H    0.149378
    35  H    0.149618
    36  H    0.151871
    37  H    0.150934
    38  H    0.155224
    39  H    0.155280
    40  H    0.160088
 Sum of Mulliken charges =  -0.00000

 Dipole moment (field-independent basis, Debye):
    X=              0.0248    Y=              0.0052    Z=              0.0055  Tot=              0.0259
 Quadrupole moment (field-independent basis, Debye-Ang):
   XX=            -85.4634   YY=            -85.0503   ZZ=            -84.3775
   XY=              1.2831   XZ=              0.3412   YZ=             -0.4017

 Normal termination of Gaussian 16 at Wed May  5 19:50:46 2021.
