 Gaussian 16, Revision A.03,
 Gaussian 16:  EM64L-G16RevA.03 25-Dec-2016

 -------------
 #p 6-31g* mp2
 -------------

 ------------------------------------------------------
 Input file generated by CHIRIPA (05-May-2021 14:57:23)
 ------------------------------------------------------
 Symbolic Z-matrix:
 Charge =  0 Multiplicity = 1

                         Standard orientation:
 ---------------------------------------------------------------------
 Center     Atomic      Atomic             Coordinates (Angstroms)
 Number     Number       Type             X           Y           Z
 ---------------------------------------------------------------------
      1          6           0        0.932829   -1.633047    1.430834
      2          6           0        1.724222   -2.114919    0.382971
      3          6           0        2.668010   -1.287329   -0.232584
      4          6           0        2.794543    0.022631    0.227073
      5          6           0        2.020833    0.531978    1.268815
      6          6           0        1.083395   -0.313463    1.869638
      7          1           0        0.202138   -2.282872    1.903290
      8          1           0        1.609462   -3.139284    0.040112
      9          1           0        3.293716   -1.634573   -1.045807
     10          1           0        2.158113    1.557768    1.588701
     11          1           0        0.470155    0.063470    2.683213
     12          7           0        3.790328    0.908212   -0.416790
     13          8           0        3.882485    2.058360    0.006652
     14          8           0        4.459812    0.435413   -1.332699
     15          6           0       -3.207760    2.534040    0.136974
     16          6           0       -4.028995    1.510361    0.620891
     17          6           0       -3.718827    0.171102    0.366468
     18          6           0       -2.574611   -0.109736   -0.378643
     19          6           0       -1.736558    0.887841   -0.874423
     20          6           0       -2.066175    2.220067   -0.607825
     21          1           0       -3.456260    3.571677    0.339345
     22          1           0       -4.916196    1.751239    1.199593
     23          1           0       -4.337097   -0.641109    0.729062
     24          1           0       -0.858806    0.616553   -1.448332
     25          1           0       -1.426559    3.013004   -0.984903
     26          7           0       -2.235955   -1.523826   -0.654433
     27          8           0       -1.222283   -1.744930   -1.313384
     28          8           0       -2.990603   -2.384310   -0.206425
 ---------------------------------------------------------------------

 SCF Done:  E(RHF) =  -868.339219847     A.U. after   16 cycles
 E2 =    -0.2601645544D+01 EUMP2 =    -0.87094086539128D+03

 The electronic state is 1-A.
 Alpha  occ. eigenvalues --  -20.61466 -20.61411 -20.60623 -20.60596 -15.86448
 Alpha  occ. eigenvalues --  -15.85655 -11.31640 -11.30838 -11.28226 -11.28147
 Alpha  occ. eigenvalues --  -11.27900 -11.27408 -11.27239 -11.27184 -11.27106
 Alpha  occ. eigenvalues --  -11.26946 -11.26404 -11.26164  -1.60515  -1.59695
 Alpha  occ. eigenvalues --   -1.40068  -1.39252  -1.19805  -1.18954  -1.09233
 Alpha  occ. eigenvalues --   -1.08374  -1.05169  -1.04308  -0.96097  -0.95250
 Alpha  occ. eigenvalues --   -0.86572  -0.85710  -0.82929  -0.82082  -0.77998
 Alpha  occ. eigenvalues --   -0.77170  -0.72697  -0.71884  -0.71851  -0.71025
 Alpha  occ. eigenvalues --   -0.70897  -0.70017  -0.65451  -0.65157  -0.64590
 Alpha  occ. eigenvalues --   -0.64285  -0.62508  -0.61662  -0.55676  -0.54781
 Alpha  occ. eigenvalues --   -0.53545  -0.53254  -0.52651  -0.52384  -0.49460
 Alpha  occ. eigenvalues --   -0.49445  -0.48643  -0.48612  -0.45518  -0.44698
 Alpha  occ. eigenvalues --   -0.37817  -0.36920  -0.36762  -0.35770
 Alpha virt. eigenvalues --    0.04449   0.05345   0.10848   0.11831   0.16031
 Alpha virt. eigenvalues --    0.16888   0.21077   0.21937   0.27004   0.27832
 Alpha virt. eigenvalues --    0.27940   0.28756   0.30666   0.31510   0.32097

 Mulliken charges:
               1
     1  C   -0.176073
     2  C   -0.199185
     3  C   -0.174097
     4  C    0.154875
     5  C   -0.176875
     6  C   -0.220252
     7  H    0.230254
     8  H    0.231465
     9  H    0.275330
    10  H    0.270645
    11  H    0.220308
    12  N    0.487634
    13  O   -0.464892
    14  O   -0.459714
    15  C   -0.170983
    16  C   -0.219641
    17  C   -0.173270
    18  C    0.155306
    19  C   -0.167607
    20  C   -0.221112
    21  H    0.227721
    22  H    0.224154
    23  H    0.274629
    24  H    0.278913
    25  H    0.228562
    26  N    0.486436
    27  O   -0.458451
    28  O   -0.464081
 Sum of Mulliken charges =  -0.00000

 Dipole moment (field-independent basis, Debye):
    X=             -4.7926    Y=              1.6644    Z=              3.1035  Tot=              5.9473
 Quadrupole moment (field-independent basis, Debye-Ang):
   XX=           -116.2902   YY=           -103.0664   ZZ=           -102.5741
   XY=            -22.3229   XZ=              0.0319   YZ=             -1.0217

 Normal termination of Gaussian 16 at Thu May  6 18:00:24 2021.
