 Gaussian 16, Revision A.03,
 Gaussian 16:  EM64L-G16RevA.03 25-Dec-2016

 -------------
 #p 6-31g* mp2
 -------------

 ------------------------------------------------------
 Input file generated by CHIRIPA (05-May-2021 14:55:23)
 ------------------------------------------------------
 Symbolic Z-matrix:
 Charge =  0 Multiplicity = 1

                         Standard orientation:
 ---------------------------------------------------------------------
 Center     Atomic      Atomic             Coordinates (Angstroms)
 Number     Number       Type             X           Y           Z
 ---------------------------------------------------------------------
      1          6           0       -1.757684    1.887217    0.815944
      2          6           0       -1.677711    0.652154    1.467670
      3          6           0       -2.559136   -0.382218    1.139476
      4          6           0       -3.512526   -0.145936    0.150280
      5          6           0       -3.617351    1.073490   -0.517030
      6          6           0       -2.725542    2.093579   -0.172583
      7          1           0       -1.068939    2.685194    1.077206
      8          1           0       -0.927068    0.489054    2.235771
      9          1           0       -2.519411   -1.348154    1.628155
     10          1           0       -4.376262    1.206179   -1.278518
     11          1           0       -2.789976    3.051718   -0.680384
     12          7           0       -4.451147   -1.233419   -0.205767
     13          8           0       -5.282107   -1.000012   -1.080790
     14          8           0       -4.338106   -2.298604    0.396927
     15          6           0        3.655688   -0.127383   -0.672011
     16          6           0        2.544078    0.835579   -0.253661
     17          6           0        1.265443    0.653793   -1.072098
     18          1           0        3.877061    0.019148   -1.738064
     19          1           0        3.295507   -1.160128   -0.566643
     20          1           0        2.906720    1.866171   -0.358472
     21          1           0        2.325459    0.686872    0.811565
     22          1           0        0.877160   -0.363602   -0.959200
     23          1           0        1.461725    0.822399   -2.135886
     24          1           0        0.484047    1.352109   -0.756443
     25          6           0        4.940356    0.042150    0.137071
     26          6           0        6.051965   -0.920812   -0.281279
     27          6           0        7.330601   -0.739028    0.537157
     28          1           0        5.300536    1.074894    0.031703
     29          1           0        4.718983   -0.104381    1.203124
     30          1           0        6.270584   -0.772106   -1.346505
     31          1           0        5.689323   -1.951405   -0.176468
     32          1           0        7.134318   -0.907632    1.600946
     33          1           0        7.718883    0.278368    0.424260
     34          1           0        8.111995   -1.437342    0.221503
 ---------------------------------------------------------------------

 SCF Done:  E(RHF) =  -669.534680707     A.U. after   15 cycles
 E2 =    -0.2092334624D+01 EUMP2 =    -0.67162701533081D+03

 The electronic state is 1-A.
 Alpha  occ. eigenvalues --  -20.60781 -20.60776 -15.85836 -11.31214 -11.27791
 Alpha  occ. eigenvalues --  -11.27786 -11.27528 -11.26809 -11.26795 -11.22163
 Alpha  occ. eigenvalues --  -11.21905 -11.21810 -11.21741 -11.21403 -11.21343
 Alpha  occ. eigenvalues --   -1.59856  -1.39409  -1.19397  -1.08851  -1.08785
 Alpha  occ. eigenvalues --   -1.04798  -1.03923  -0.96356  -0.95623  -0.87364
 Alpha  occ. eigenvalues --   -0.86198  -0.82454  -0.79993  -0.78649  -0.77491
 Alpha  occ. eigenvalues --   -0.72054  -0.71179  -0.70526  -0.65470  -0.65051
 Alpha  occ. eigenvalues --   -0.64801  -0.62145  -0.61320  -0.59777  -0.58000
 Alpha  occ. eigenvalues --   -0.55637  -0.55317  -0.53558  -0.52893  -0.52839
 Alpha  occ. eigenvalues --   -0.52523  -0.50275  -0.48814  -0.48807  -0.48307
 Alpha  occ. eigenvalues --   -0.47037  -0.46188  -0.46112  -0.44812  -0.44189
 Alpha  occ. eigenvalues --   -0.37278  -0.36392
 Alpha virt. eigenvalues --    0.05009   0.11204   0.16427   0.20749   0.22615
 Alpha virt. eigenvalues --    0.24089   0.26034   0.26799   0.27261   0.27529
 Alpha virt. eigenvalues --    0.28687   0.30354   0.31156   0.31610   0.32360

 Mulliken charges:
               1
     1  C   -0.173933
     2  C   -0.213564
     3  C   -0.171674
     4  C    0.159001
     5  C   -0.170296
     6  C   -0.217882
     7  H    0.226764
     8  H    0.223846
     9  H    0.275602
    10  H    0.275874
    11  H    0.223857
    12  N    0.488061
    13  O   -0.460280
    14  O   -0.460460
    15  C   -0.298242
    16  C   -0.299859
    17  C   -0.478280
    18  H    0.151522
    19  H    0.151048
    20  H    0.150228
    21  H    0.144595
    22  H    0.157660
    23  H    0.155602
    24  H    0.160093
    25  C   -0.298232
    26  C   -0.300007
    27  C   -0.475860
    28  H    0.149235
    29  H    0.148277
    30  H    0.152830
    31  H    0.152875
    32  H    0.154968
    33  H    0.155140
    34  H    0.161492
 Sum of Mulliken charges =  -0.00000

 Dipole moment (field-independent basis, Debye):
    X=              3.2946    Y=              3.8068    Z=              1.2281  Tot=              5.1821
 Quadrupole moment (field-independent basis, Debye-Ang):
   XX=           -118.3666   YY=            -94.0808   ZZ=            -92.3232
   XY=            -15.4897   XZ=             -3.0607   YZ=             -2.3994

 Normal termination of Gaussian 16 at Wed May  5 20:41:54 2021.
