 Gaussian 16, Revision A.03,
 Gaussian 16:  EM64L-G16RevA.03 25-Dec-2016

 -------------
 #p 6-31g* mp2
 -------------

 ------------------------------------------------------
 Input file generated by CHIRIPA (05-May-2021 14:57:26)
 ------------------------------------------------------
 Symbolic Z-matrix:
 Charge =  0 Multiplicity = 1

                         Standard orientation:
 ---------------------------------------------------------------------
 Center     Atomic      Atomic             Coordinates (Angstroms)
 Number     Number       Type             X           Y           Z
 ---------------------------------------------------------------------
      1          6           0       -2.941465   -1.846431    0.713823
      2          6           0       -2.780299   -0.860927    1.693276
      3          6           0       -2.423438    0.442913    1.336627
      4          6           0       -2.234799    0.727646   -0.014902
      5          6           0       -2.387873   -0.232332   -1.014052
      6          6           0       -2.745084   -1.529546   -0.634339
      7          1           0       -3.218819   -2.856712    0.999835
      8          1           0       -2.932163   -1.104158    2.741046
      9          1           0       -2.292052    1.225184    2.074331
     10          1           0       -2.229646    0.040331   -2.050410
     11          1           0       -2.869553   -2.292876   -1.397150
     12          7           0       -1.856820    2.104456   -0.404680
     13          8           0       -1.696406    2.329811   -1.602227
     14          8           0       -1.728132    2.932176    0.494741
     15          6           0        4.020341    1.156648    0.756540
     16          6           0        3.260830    0.431440    1.680519
     17          6           0        2.303216   -0.489519    1.245366
     18          6           0        2.130497   -0.660960   -0.127247
     19          6           0        2.871623    0.046514   -1.072499
     20          6           0        3.823660    0.962213   -0.614603
     21          1           0        4.762072    1.870028    1.103411
     22          1           0        3.411426    0.580380    2.745969
     23          1           0        1.701470   -1.064247    1.938913
     24          1           0        2.698854   -0.123670   -2.128249
     25          1           0        4.412064    1.524025   -1.334459
     26          7           0        1.119666   -1.633154   -0.599962
     27          8           0        0.986620   -1.765864   -1.814592
     28          8           0        0.479563   -2.244042    0.253103
 ---------------------------------------------------------------------

 SCF Done:  E(RHF) =  -868.339203477     A.U. after   16 cycles
 E2 =    -0.2601723418D+01 EUMP2 =    -0.87094092689491D+03

 The electronic state is 1-A.
 Alpha  occ. eigenvalues --  -20.61005 -20.60972 -20.60210 -20.60196 -15.85997
 Alpha  occ. eigenvalues --  -15.85248 -11.31142 -11.30280 -11.27717 -11.27660
 Alpha  occ. eigenvalues --  -11.27380 -11.26870 -11.26694 -11.26669 -11.26618
 Alpha  occ. eigenvalues --  -11.26414 -11.25804 -11.25598  -1.60049  -1.59292
 Alpha  occ. eigenvalues --   -1.39612  -1.38853  -1.19291  -1.18393  -1.08731
 Alpha  occ. eigenvalues --   -1.07837  -1.04662  -1.03743  -0.95609  -0.94742
 Alpha  occ. eigenvalues --   -0.86074  -0.85166  -0.82457  -0.81594  -0.77529
 Alpha  occ. eigenvalues --   -0.76694  -0.72265  -0.71477  -0.71381  -0.70605
 Alpha  occ. eigenvalues --   -0.70405  -0.69501  -0.64953  -0.64672  -0.64047
 Alpha  occ. eigenvalues --   -0.63758  -0.62022  -0.61119  -0.55178  -0.54249
 Alpha  occ. eigenvalues --   -0.53004  -0.52761  -0.52087  -0.51848  -0.49024
 Alpha  occ. eigenvalues --   -0.48975  -0.48244  -0.48200  -0.45047  -0.44333
 Alpha  occ. eigenvalues --   -0.37287  -0.36289  -0.36188  -0.35268
 Alpha virt. eigenvalues --    0.04982   0.05822   0.11405   0.12356   0.16538
 Alpha virt. eigenvalues --    0.17427   0.21533   0.22404   0.27438   0.28304
 Alpha virt. eigenvalues --    0.28403   0.29258   0.31086   0.31934   0.32575

 Mulliken charges:
               1
     1  C   -0.156962
     2  C   -0.218126
     3  C   -0.175220
     4  C    0.152475
     5  C   -0.174402
     6  C   -0.201844
     7  H    0.224420
     8  H    0.217681
     9  H    0.268981
    10  H    0.275531
    11  H    0.226824
    12  N    0.488164
    13  O   -0.462672
    14  O   -0.465935
    15  C   -0.168692
    16  C   -0.217308
    17  C   -0.170445
    18  C    0.157263
    19  C   -0.168186
    20  C   -0.216849
    21  H    0.226798
    22  H    0.222848
    23  H    0.272017
    24  H    0.276229
    25  H    0.225267
    26  N    0.489491
    27  O   -0.464535
    28  O   -0.462815
 Sum of Mulliken charges =  -0.00000

 Dipole moment (field-independent basis, Debye):
    X=              2.3578    Y=             -1.6973    Z=              2.9023  Tot=              4.1065
 Quadrupole moment (field-independent basis, Debye-Ang):
   XX=            -84.4858   YY=           -117.1341   ZZ=            -96.4597
   XY=             16.5690   XZ=             -0.9905   YZ=             -0.1281

 Normal termination of Gaussian 16 at Fri May  7 09:41:38 2021.
