 Gaussian 16, Revision A.03,
 Gaussian 16:  EM64L-G16RevA.03 25-Dec-2016

 -------------
 #p 6-31g* mp2
 -------------

 ------------------------------------------------------
 Input file generated by CHIRIPA (05-May-2021 14:51:08)
 ------------------------------------------------------
 Symbolic Z-matrix:
 Charge =  0 Multiplicity = 1

                         Standard orientation:
 ---------------------------------------------------------------------
 Center     Atomic      Atomic             Coordinates (Angstroms)
 Number     Number       Type             X           Y           Z
 ---------------------------------------------------------------------
      1          6           0       -3.333989   -0.515214    0.337217
      2          6           0       -4.082774    0.384826   -0.646263
      3          6           0       -5.257429    1.119065    0.000938
      4          1           0       -4.035385   -1.245906    0.762750
      5          1           0       -2.969625    0.093609    1.176245
      6          1           0       -4.444425   -0.225278   -1.483878
      7          1           0       -3.379472    1.113336   -1.069649
      8          1           0       -4.909941    1.751407    0.824343
      9          1           0       -5.980945    0.405187    0.407761
     10          1           0       -5.778578    1.756739   -0.719920
     11          6           0       -2.156978   -1.255978   -0.294955
     12          6           0       -1.408193   -2.156019    0.688525
     13          6           0       -0.233537   -2.890258    0.041324
     14          1           0       -2.521342   -1.864801   -1.133983
     15          1           0       -1.455581   -0.525287   -0.720488
     16          1           0       -2.111495   -2.884529    1.111910
     17          1           0       -1.046542   -1.545914    1.526140
     18          1           0        0.489978   -2.176380   -0.365499
     19          1           0       -0.581026   -3.522600   -0.782081
     20          1           0        0.287611   -3.527931    0.762182
     21          6           0        3.417097    0.555881    0.132668
     22          6           0        3.535638   -0.865001   -0.419627
     23          6           0        4.884833   -1.511337   -0.103848
     24          1           0        4.226538    1.172282   -0.281821
     25          1           0        3.567825    0.532588    1.220847
     26          1           0        3.383359   -0.839220   -1.506256
     27          1           0        2.725708   -1.478042   -0.003924
     28          1           0        5.041784   -1.566352    0.978253
     29          1           0        5.703171   -0.923901   -0.532616
     30          1           0        4.948022   -2.526538   -0.507871
     31          6           0        2.073869    1.215312   -0.174930
     32          6           0        1.955328    2.636193    0.377365
     33          6           0        0.606134    3.282530    0.061586
     34          1           0        1.923142    1.238604   -1.263109
     35          1           0        1.264429    0.598911    0.239559
     36          1           0        2.765259    3.249234   -0.038338
     37          1           0        2.107608    2.610413    1.463994
     38          1           0       -0.212205    2.695094    0.490354
     39          1           0        0.449183    3.337545   -1.020514
     40          1           0        0.542945    4.297730    0.465609
 ---------------------------------------------------------------------

 SCF Done:  E(RHF) =  -470.733269964     A.U. after   11 cycles
 E2 =    -0.1583511750D+01 EUMP2 =    -0.47231678171396D+03

 The electronic state is 1-A.
 Alpha  occ. eigenvalues --  -11.21669 -11.21616 -11.21583 -11.21579 -11.21467
 Alpha  occ. eigenvalues --  -11.21399 -11.21392 -11.21339 -11.21149 -11.21064
 Alpha  occ. eigenvalues --  -11.21054 -11.21041  -1.08484  -1.08420  -1.03571
 Alpha  occ. eigenvalues --   -1.03520  -0.96018  -0.95974  -0.87050  -0.86978
 Alpha  occ. eigenvalues --   -0.79676  -0.79551  -0.78336  -0.78197  -0.65219
 Alpha  occ. eigenvalues --   -0.64959  -0.61036  -0.60864  -0.59391  -0.59340
 Alpha  occ. eigenvalues --   -0.57629  -0.57580  -0.55308  -0.55273  -0.52717
 Alpha  occ. eigenvalues --   -0.52668  -0.52467  -0.52373  -0.50066  -0.49852
 Alpha  occ. eigenvalues --   -0.48016  -0.47846  -0.46797  -0.46547  -0.46004
 Alpha  occ. eigenvalues --   -0.45777  -0.45731  -0.45380  -0.43822  -0.43778
 Alpha virt. eigenvalues --    0.19851   0.22790   0.23730   0.24408   0.25876
 Alpha virt. eigenvalues --    0.26730   0.27131   0.27450   0.28207   0.29688
 Alpha virt. eigenvalues --    0.31325   0.31528   0.31564   0.31862   0.32009

 Mulliken charges:
               1
     1  C   -0.298093
     2  C   -0.300022
     3  C   -0.475661
     4  H    0.149645
     5  H    0.148876
     6  H    0.151864
     7  H    0.152772
     8  H    0.155214
     9  H    0.155031
    10  H    0.160322
    11  C   -0.300939
    12  C   -0.299235
    13  C   -0.483583
    14  H    0.149659
    15  H    0.152267
    16  H    0.152112
    17  H    0.150836
    18  H    0.163378
    19  H    0.155470
    20  H    0.159499
    21  C   -0.297848
    22  C   -0.306999
    23  C   -0.475258
    24  H    0.149860
    25  H    0.149448
    26  H    0.151475
    27  H    0.160148
    28  H    0.155022
    29  H    0.154993
    30  H    0.160622
    31  C   -0.302269
    32  C   -0.299614
    33  C   -0.476127
    34  H    0.149646
    35  H    0.152110
    36  H    0.152531
    37  H    0.152140
    38  H    0.154566
    39  H    0.155363
    40  H    0.160779
 Sum of Mulliken charges =  -0.00000

 Dipole moment (field-independent basis, Debye):
    X=              0.0202    Y=              0.0073    Z=             -0.0162  Tot=              0.0269
 Quadrupole moment (field-independent basis, Debye-Ang):
   XX=            -85.8845   YY=            -84.7299   ZZ=            -84.0954
   XY=              1.7088   XZ=             -0.0025   YZ=             -0.2181

 Normal termination of Gaussian 16 at Thu May  6 08:27:07 2021.
