 Gaussian 16, Revision A.03,
 Gaussian 16:  EM64L-G16RevA.03 25-Dec-2016

 -------------
 #p 6-31g* mp2
 -------------

 ------------------------------------------------------
 Input file generated by CHIRIPA (05-May-2021 14:57:23)
 ------------------------------------------------------
 Symbolic Z-matrix:
 Charge =  0 Multiplicity = 1

                         Standard orientation:
 ---------------------------------------------------------------------
 Center     Atomic      Atomic             Coordinates (Angstroms)
 Number     Number       Type             X           Y           Z
 ---------------------------------------------------------------------
      1          6           0        0.777086   -2.323478    0.959361
      2          6           0        0.859482   -1.176299    1.755420
      3          6           0        1.691953   -0.115078    1.387519
      4          6           0        2.431350   -0.235189    0.211868
      5          6           0        2.370817   -1.365105   -0.602328
      6          6           0        1.531686   -2.414061   -0.214903
      7          1           0        0.127815   -3.143096    1.252739
      8          1           0        0.274599   -1.103190    2.667896
      9          1           0        1.774766    0.784543    1.985216
     10          1           0        2.965971   -1.408882   -1.506371
     11          1           0        1.469690   -3.303769   -0.835081
     12          7           0        3.316175    0.881786   -0.187948
     13          8           0        3.957358    0.751398   -1.228390
     14          8           0        3.351764    1.866508    0.546690
     15          6           0       -2.821612   -2.029508   -0.564060
     16          6           0       -3.578500   -1.245049    0.312448
     17          6           0       -3.290434    0.112830    0.478980
     18          6           0       -2.233692    0.656019   -0.250084
     19          6           0       -1.461244   -0.099394   -1.130972
     20          6           0       -1.767258   -1.455189   -1.281707
     21          1           0       -3.052361   -3.083531   -0.687290
     22          1           0       -4.397904   -1.688388    0.871082
     23          1           0       -3.860206    0.743216    1.150834
     24          1           0       -0.650525    0.370829   -1.674150
     25          1           0       -1.177753   -2.061991   -1.963118
     26          7           0       -1.919229    2.092442   -0.082146
     27          8           0       -0.983086    2.547118   -0.736015
     28          8           0       -2.614849    2.736435    0.700173
 ---------------------------------------------------------------------

 SCF Done:  E(RHF) =  -868.335238447     A.U. after   16 cycles
 E2 =    -0.2605174604D+01 EUMP2 =    -0.87094041305038D+03

 The electronic state is 1-A.
 Alpha  occ. eigenvalues --  -20.60986 -20.60954 -20.60693 -20.60644 -15.86024
 Alpha  occ. eigenvalues --  -15.85740 -11.31543 -11.31367 -11.28126 -11.28046
 Alpha  occ. eigenvalues --  -11.28038 -11.27928 -11.27920 -11.27779 -11.27229
 Alpha  occ. eigenvalues --  -11.27170 -11.27096 -11.26951  -1.60047  -1.59739
 Alpha  occ. eigenvalues --   -1.39595  -1.39287  -1.19761  -1.19553  -1.09136
 Alpha  occ. eigenvalues --   -1.08909  -1.05159  -1.05013  -0.95924  -0.95706
 Alpha  occ. eigenvalues --   -0.86578  -0.86384  -0.82743  -0.82540  -0.77759
 Alpha  occ. eigenvalues --   -0.77536  -0.72234  -0.71954  -0.71388  -0.71066
 Alpha  occ. eigenvalues --   -0.70861  -0.70678  -0.65387  -0.65259  -0.65183
 Alpha  occ. eigenvalues --   -0.64988  -0.62512  -0.62340  -0.55703  -0.55522
 Alpha  occ. eigenvalues --   -0.54231  -0.53268  -0.53097  -0.52618  -0.49011
 Alpha  occ. eigenvalues --   -0.48985  -0.48736  -0.48688  -0.44963  -0.44634
 Alpha  occ. eigenvalues --   -0.38268  -0.37517  -0.36658  -0.36172
 Alpha virt. eigenvalues --    0.04753   0.04987   0.10520   0.11335   0.16205
 Alpha virt. eigenvalues --    0.16401   0.20319   0.21565   0.26046   0.27484
 Alpha virt. eigenvalues --    0.27598   0.28413   0.29748   0.31252   0.32034

 Mulliken charges:
               1
     1  C   -0.162634
     2  C   -0.218319
     3  C   -0.169784
     4  C    0.159588
     5  C   -0.176885
     6  C   -0.224617
     7  H    0.221566
     8  H    0.224676
     9  H    0.281537
    10  H    0.275483
    11  H    0.217964
    12  N    0.489108
    13  O   -0.462389
    14  O   -0.453204
    15  C   -0.178128
    16  C   -0.219886
    17  C   -0.174209
    18  C    0.158562
    19  C   -0.165813
    20  C   -0.212111
    21  H    0.222311
    22  H    0.222917
    23  H    0.275879
    24  H    0.278009
    25  H    0.219389
    26  N    0.486748
    27  O   -0.454833
    28  O   -0.460925
 Sum of Mulliken charges =  -0.00000

 Dipole moment (field-independent basis, Debye):
    X=             -4.0906    Y=             -8.6823    Z=              0.9051  Tot=              9.6402
 Quadrupole moment (field-independent basis, Debye-Ang):
   XX=           -113.2471   YY=           -109.7537   ZZ=            -99.0970
   XY=              0.8134   XZ=              0.4964   YZ=              2.3320

 Normal termination of Gaussian 16 at Thu May  6 21:13:55 2021.
