 Gaussian 16, Revision A.03,
 Gaussian 16:  EM64L-G16RevA.03 25-Dec-2016

 -------------
 #p 6-31g* mp2
 -------------

 ------------------------------------------------------
 Input file generated by CHIRIPA (05-May-2021 14:53:12)
 ------------------------------------------------------
 Symbolic Z-matrix:
 Charge =  0 Multiplicity = 1

                         Standard orientation:
 ---------------------------------------------------------------------
 Center     Atomic      Atomic             Coordinates (Angstroms)
 Number     Number       Type             X           Y           Z
 ---------------------------------------------------------------------
      1          6           0       -2.871165   -0.874865    0.244267
      2          6           0       -2.006368   -0.779931    1.501684
      3          6           0       -0.695241   -1.556658    1.377444
      4          1           0       -3.087648   -1.931361    0.034751
      5          1           0       -2.299785   -0.496574   -0.614695
      6          1           0       -2.579701   -1.157004    2.358260
      7          1           0       -1.792078    0.276473    1.708340
      8          1           0       -0.099968   -1.176373    0.541002
      9          1           0       -0.892066   -2.617994    1.194614
     10          1           0       -0.092593   -1.475215    2.287412
     11          6           0       -4.185260   -0.103482    0.353125
     12          6           0       -5.050058   -0.198416   -0.904292
     13          6           0       -6.361184    0.578311   -0.780052
     14          1           0       -4.756640   -0.481773    1.212087
     15          1           0       -3.968777    0.953014    0.562641
     16          1           0       -5.264347   -1.254820   -1.110948
     17          1           0       -4.476724    0.178656   -1.760867
     18          1           0       -6.164359    1.639647   -0.597222
     19          1           0       -6.956457    0.198026    0.056390
     20          1           0       -6.963832    0.496868   -1.690020
     21          6           0        0.818909    1.976412    0.031928
     22          6           0        0.787949    0.997056   -0.966283
     23          6           0        1.855858    0.108387   -1.122435
     24          6           0        2.943727    0.228041   -0.259003
     25          6           0        3.004127    1.193130    0.745110
     26          6           0        1.924951    2.071156    0.882938
     27          1           0       -0.015044    2.662617    0.146113
     28          1           0       -0.069713    0.921140   -1.628627
     29          1           0        1.857965   -0.659209   -1.886771
     30          1           0        3.872834    1.244192    1.390215
     31          1           0        1.951728    2.830750    1.659048
     32          7           0        4.080240   -0.707119   -0.414615
     33          8           0        5.027045   -0.580922    0.358864
     34          8           0        4.002712   -1.548588   -1.307116
 ---------------------------------------------------------------------

 SCF Done:  E(RHF) =  -669.534303501     A.U. after   15 cycles
 E2 =    -0.2093974698D+01 EUMP2 =    -0.67162827819912D+03

 The electronic state is 1-A.
 Alpha  occ. eigenvalues --  -20.60820 -20.60815 -15.85875 -11.31289 -11.27854
 Alpha  occ. eigenvalues --  -11.27840 -11.27606 -11.26886 -11.26870 -11.22156
 Alpha  occ. eigenvalues --  -11.22022 -11.21979 -11.21928 -11.21558 -11.21083
 Alpha  occ. eigenvalues --   -1.59894  -1.39446  -1.19475  -1.08965  -1.08842
 Alpha  occ. eigenvalues --   -1.04896  -1.03947  -0.96386  -0.95679  -0.87401
 Alpha  occ. eigenvalues --   -0.86273  -0.82515  -0.80027  -0.78786  -0.77549
 Alpha  occ. eigenvalues --   -0.72093  -0.71216  -0.70567  -0.65637  -0.65121
 Alpha  occ. eigenvalues --   -0.64859  -0.62227  -0.61390  -0.59764  -0.58016
 Alpha  occ. eigenvalues --   -0.55817  -0.55370  -0.53309  -0.53029  -0.52975
 Alpha  occ. eigenvalues --   -0.52665  -0.50267  -0.48856  -0.48845  -0.48322
 Alpha  occ. eigenvalues --   -0.47069  -0.46302  -0.46267  -0.44840  -0.44236
 Alpha  occ. eigenvalues --   -0.37435  -0.36379
 Alpha virt. eigenvalues --    0.04955   0.11061   0.16356   0.19945   0.22843
 Alpha virt. eigenvalues --    0.24086   0.25147   0.26169   0.27503   0.28334
 Alpha virt. eigenvalues --    0.28868   0.30366   0.31240   0.31615   0.31900

 Mulliken charges:
               1
     1  C   -0.298321
     2  C   -0.298336
     3  C   -0.481823
     4  H    0.153384
     5  H    0.140088
     6  H    0.153474
     7  H    0.145251
     8  H    0.163178
     9  H    0.155255
    10  H    0.160597
    11  C   -0.297722
    12  C   -0.299283
    13  C   -0.475751
    14  H    0.152442
    15  H    0.145040
    16  H    0.154383
    17  H    0.148249
    18  H    0.153922
    19  H    0.156863
    20  H    0.161730
    21  C   -0.168654
    22  C   -0.220255
    23  C   -0.174760
    24  C    0.162949
    25  C   -0.170770
    26  C   -0.218014
    27  H    0.226071
    28  H    0.225903
    29  H    0.276654
    30  H    0.276151
    31  H    0.224103
    32  N    0.488083
    33  O   -0.460094
    34  O   -0.459985
 Sum of Mulliken charges =  -0.00000

 Dipole moment (field-independent basis, Debye):
    X=             -3.9397    Y=              3.2837    Z=              0.5579  Tot=              5.1590
 Quadrupole moment (field-independent basis, Debye-Ang):
   XX=           -118.1901   YY=            -92.3543   ZZ=            -92.3822
   XY=             11.1223   XZ=              4.5072   YZ=              1.0055

 Normal termination of Gaussian 16 at Thu May  6 11:58:42 2021.
