 Gaussian 16, Revision A.03,
 Gaussian 16:  EM64L-G16RevA.03 25-Dec-2016

 -------------
 #p 6-31g* mp2
 -------------

 ------------------------------------------------------
 Input file generated by CHIRIPA (05-May-2021 14:53:17)
 ------------------------------------------------------
 Symbolic Z-matrix:
 Charge =  0 Multiplicity = 1

                         Standard orientation:
 ---------------------------------------------------------------------
 Center     Atomic      Atomic             Coordinates (Angstroms)
 Number     Number       Type             X           Y           Z
 ---------------------------------------------------------------------
      1          6           0        5.168071    0.116241   -0.157572
      2          6           0        5.667692   -1.065096    0.674777
      3          6           0        7.002135   -1.618627    0.174117
      4          1           0        5.066195   -0.198576   -1.205168
      5          1           0        5.925126    0.912507   -0.142693
      6          1           0        4.909319   -1.858350    0.659469
      7          1           0        5.768207   -0.747484    1.720547
      8          1           0        7.776225   -0.845068    0.205616
      9          1           0        6.912456   -1.962246   -0.861491
     10          1           0        7.340725   -2.462409    0.783420
     11          6           0        3.835057    0.680571    0.330624
     12          6           0        3.335436    1.861908   -0.501725
     13          6           0        2.000993    2.415438   -0.001065
     14          1           0        3.078002   -0.115696    0.315745
     15          1           0        3.936933    0.995387    1.378220
     16          1           0        3.234921    1.544295   -1.547495
     17          1           0        4.093809    2.655161   -0.486417
     18          1           0        2.090671    2.759057    1.034543
     19          1           0        1.226903    1.641879   -0.032564
     20          1           0        1.662403    3.259220   -0.610368
     21          6           0       -5.850050    0.441205    0.528967
     22          6           0       -4.836710    1.386552    0.339281
     23          6           0       -3.540290    0.981061    0.008494
     24          6           0       -3.291281   -0.384000   -0.125272
     25          6           0       -4.279582   -1.350028    0.057324
     26          6           0       -5.568748   -0.921666    0.387632
     27          1           0       -6.854323    0.765082    0.785744
     28          1           0       -5.052282    2.445640    0.448392
     29          1           0       -2.736987    1.691603   -0.143996
     30          1           0       -4.034224   -2.398763   -0.058314
     31          1           0       -6.353750   -1.658069    0.534353
     32          7           0       -1.922659   -0.825380   -0.475208
     33          8           0       -1.729003   -2.033925   -0.587256
     34          8           0       -1.069504    0.045568   -0.630816
 ---------------------------------------------------------------------

 SCF Done:  E(RHF) =  -669.536277676     A.U. after   15 cycles
 E2 =    -0.2090641818D+01 EUMP2 =    -0.67162691949340D+03

 The electronic state is 1-A.
 Alpha  occ. eigenvalues --  -20.60952 -20.60942 -15.85992 -11.31288 -11.27852
 Alpha  occ. eigenvalues --  -11.27843 -11.27588 -11.26856 -11.26845 -11.20863
 Alpha  occ. eigenvalues --  -11.20564 -11.20546 -11.20454 -11.20348 -11.19827
 Alpha  occ. eigenvalues --   -1.60014  -1.39571  -1.19457  -1.08866  -1.07516
 Alpha  occ. eigenvalues --   -1.04850  -1.02617  -0.95712  -0.95064  -0.86252
 Alpha  occ. eigenvalues --   -0.86086  -0.82546  -0.78703  -0.77600  -0.77316
 Alpha  occ. eigenvalues --   -0.72221  -0.71328  -0.70566  -0.65115  -0.64853
 Alpha  occ. eigenvalues --   -0.64137  -0.62196  -0.59997  -0.58465  -0.56681
 Alpha  occ. eigenvalues --   -0.55357  -0.54326  -0.53183  -0.52941  -0.51790
 Alpha  occ. eigenvalues --   -0.51490  -0.49082  -0.48973  -0.48861  -0.47012
 Alpha  occ. eigenvalues --   -0.45724  -0.45003  -0.44865  -0.44723  -0.42885
 Alpha  occ. eigenvalues --   -0.37436  -0.36450
 Alpha virt. eigenvalues --    0.04919   0.11205   0.16409   0.21302   0.23780
 Alpha virt. eigenvalues --    0.25224   0.27212   0.27531   0.27982   0.28465
 Alpha virt. eigenvalues --    0.29049   0.30842   0.32035   0.32505   0.32731

 Mulliken charges:
               1
     1  C   -0.297788
     2  C   -0.299559
     3  C   -0.475261
     4  H    0.150156
     5  H    0.146294
     6  H    0.154443
     7  H    0.149898
     8  H    0.153346
     9  H    0.155101
    10  H    0.158376
    11  C   -0.300233
    12  C   -0.297102
    13  C   -0.487863
    14  H    0.159419
    15  H    0.145557
    16  H    0.153316
    17  H    0.145920
    18  H    0.147231
    19  H    0.183095
    20  H    0.152629
    21  C   -0.170561
    22  C   -0.218595
    23  C   -0.170637
    24  C    0.157436
    25  C   -0.170650
    26  C   -0.218621
    27  H    0.225987
    28  H    0.223979
    29  H    0.276475
    30  H    0.275763
    31  H    0.223765
    32  N    0.494908
    33  O   -0.459237
    34  O   -0.466989
 Sum of Mulliken charges =  -0.00000

 Dipole moment (field-independent basis, Debye):
    X=             -5.1330    Y=              1.4161    Z=              1.1955  Tot=              5.4573
 Quadrupole moment (field-independent basis, Debye-Ang):
   XX=            -64.8109   YY=            -91.8568   ZZ=            -95.7577
   XY=             -1.2996   XZ=             -3.2471   YZ=             -0.5074

 Normal termination of Gaussian 16 at Thu May  6 05:59:12 2021.
