 Gaussian 16, Revision A.03,
 Gaussian 16:  EM64L-G16RevA.03 25-Dec-2016

 -------------
 #p 6-31g* mp2
 -------------

 ------------------------------------------------------
 Input file generated by CHIRIPA (05-May-2021 14:55:24)
 ------------------------------------------------------
 Symbolic Z-matrix:
 Charge =  0 Multiplicity = 1

                         Standard orientation:
 ---------------------------------------------------------------------
 Center     Atomic      Atomic             Coordinates (Angstroms)
 Number     Number       Type             X           Y           Z
 ---------------------------------------------------------------------
      1          6           0        1.251057   -1.547784    1.456098
      2          6           0        0.732287   -0.587191    0.581651
      3          6           0        1.587332    0.240014   -0.152638
      4          6           0        2.962074    0.078695    0.012742
      5          6           0        3.509443   -0.869118    0.876066
      6          6           0        2.635538   -1.685440    1.600260
      7          1           0        0.579512   -2.186150    2.022590
      8          1           0       -0.342490   -0.478050    0.467681
      9          1           0        1.212635    0.991835   -0.836585
     10          1           0        4.585366   -0.954360    0.968482
     11          1           0        3.041243   -2.430594    2.278636
     12          7           0        3.877254    0.948658   -0.759273
     13          8           0        5.084577    0.786649   -0.595680
     14          8           0        3.369922    1.776071   -1.513354
     15          6           0       -3.768068   -0.661483   -0.152974
     16          6           0       -3.035280   -1.488050   -1.210231
     17          6           0       -3.385118   -2.975049   -1.145111
     18          1           0       -3.524163   -1.053695    0.843833
     19          1           0       -4.851537   -0.790245   -0.283018
     20          1           0       -1.953540   -1.356673   -1.079103
     21          1           0       -3.280809   -1.093703   -2.204627
     22          1           0       -4.458730   -3.125277   -1.298048
     23          1           0       -3.123920   -3.389740   -0.166129
     24          1           0       -2.850207   -3.547173   -1.909575
     25          6           0       -3.428708    0.827078   -0.205374
     26          6           0       -4.161496    1.653646    0.851884
     27          6           0       -3.811658    3.140645    0.786763
     28          1           0       -2.345239    0.955841   -0.075331
     29          1           0       -3.672614    1.219291   -1.202181
     30          1           0       -3.915967    1.259300    1.846279
     31          1           0       -5.243237    1.522269    0.720754
     32          1           0       -4.072856    3.555336   -0.192220
     33          1           0       -2.738046    3.290873    0.939701
     34          1           0       -4.346570    3.712769    1.551226
 ---------------------------------------------------------------------

 SCF Done:  E(RHF) =  -669.535164812     A.U. after   15 cycles
 E2 =    -0.2092021323D+01 EUMP2 =    -0.67162718613517D+03

 The electronic state is 1-A.
 Alpha  occ. eigenvalues --  -20.60756 -20.60751 -15.85810 -11.31184 -11.27763
 Alpha  occ. eigenvalues --  -11.27754 -11.27506 -11.26773 -11.26736 -11.22508
 Alpha  occ. eigenvalues --  -11.22343 -11.22291 -11.22256 -11.21848 -11.21585
 Alpha  occ. eigenvalues --   -1.59832  -1.39385  -1.19361  -1.09303  -1.08753
 Alpha  occ. eigenvalues --   -1.04767  -1.04290  -0.96733  -0.95586  -0.87743
 Alpha  occ. eigenvalues --   -0.86168  -0.82424  -0.80361  -0.79123  -0.77463
 Alpha  occ. eigenvalues --   -0.72029  -0.71155  -0.70470  -0.66091  -0.65012
 Alpha  occ. eigenvalues --   -0.64689  -0.62135  -0.61661  -0.60094  -0.58338
 Alpha  occ. eigenvalues --   -0.56035  -0.55267  -0.53395  -0.53154  -0.53082
 Alpha  occ. eigenvalues --   -0.52867  -0.50685  -0.48799  -0.48783  -0.48656
 Alpha  occ. eigenvalues --   -0.47413  -0.46611  -0.46566  -0.44789  -0.44574
 Alpha  occ. eigenvalues --   -0.37340  -0.36362
 Alpha virt. eigenvalues --    0.05067   0.11208   0.16496   0.18713   0.23014
 Alpha virt. eigenvalues --    0.23564   0.24843   0.26221   0.27109   0.28338
 Alpha virt. eigenvalues --    0.29521   0.30655   0.31213   0.31260   0.31808

 Mulliken charges:
               1
     1  C   -0.172453
     2  C   -0.226946
     3  C   -0.173621
     4  C    0.158684
     5  C   -0.170794
     6  C   -0.218454
     7  H    0.225830
     8  H    0.236108
     9  H    0.275686
    10  H    0.275693
    11  H    0.223409
    12  N    0.488114
    13  O   -0.460563
    14  O   -0.460232
    15  C   -0.299961
    16  C   -0.304415
    17  C   -0.475106
    18  H    0.145312
    19  H    0.154873
    20  H    0.146181
    21  H    0.157539
    22  H    0.158559
    23  H    0.151741
    24  H    0.163956
    25  C   -0.301241
    26  C   -0.299764
    27  C   -0.476464
    28  H    0.141038
    29  H    0.155240
    30  H    0.151059
    31  H    0.154808
    32  H    0.157580
    33  H    0.155744
    34  H    0.162861
 Sum of Mulliken charges =  -0.00000

 Dipole moment (field-independent basis, Debye):
    X=             -3.4198    Y=             -3.0340    Z=              2.6633  Tot=              5.2908
 Quadrupole moment (field-independent basis, Debye-Ang):
   XX=           -109.4471   YY=            -95.6594   ZZ=            -93.8958
   XY=            -11.8977   XZ=             10.7570   YZ=             -1.0673

 Normal termination of Gaussian 16 at Wed May  5 19:09:00 2021.
