 Gaussian 16, Revision A.03,
 Gaussian 16:  EM64L-G16RevA.03 25-Dec-2016

 -------------
 #p 6-31g* mp2
 -------------

 ------------------------------------------------------
 Input file generated by CHIRIPA (05-May-2021 14:53:17)
 ------------------------------------------------------
 Symbolic Z-matrix:
 Charge =  0 Multiplicity = 1

                         Standard orientation:
 ---------------------------------------------------------------------
 Center     Atomic      Atomic             Coordinates (Angstroms)
 Number     Number       Type             X           Y           Z
 ---------------------------------------------------------------------
      1          6           0       -3.971162   -0.491063    0.105824
      2          6           0       -5.142379   -1.219178   -0.554543
      3          6           0       -5.059093   -2.737712   -0.396716
      4          1           0       -3.029794   -0.855145   -0.328013
      5          1           0       -3.943458   -0.748679    1.173655
      6          1           0       -5.168699   -0.959178   -1.620527
      7          1           0       -6.081077   -0.853181   -0.119218
      8          1           0       -5.055945   -3.015360    0.662295
      9          1           0       -4.138382   -3.121959   -0.847545
     10          1           0       -5.906141   -3.238227   -0.876148
     11          6           0       -4.040296    1.027712   -0.043419
     12          6           0       -2.869079    1.755827    0.616948
     13          6           0       -2.952364    3.274361    0.459121
     14          1           0       -4.068000    1.285328   -1.111249
     15          1           0       -4.981664    1.391794    0.390418
     16          1           0       -1.930380    1.389830    0.181623
     17          1           0       -2.842759    1.495827    1.682933
     18          1           0       -3.873075    3.658608    0.909950
     19          1           0       -2.955513    3.552009   -0.599889
     20          1           0       -2.105316    3.774875    0.938553
     21          6           0        0.620364   -0.417153    0.140589
     22          6           0        1.189436    0.540711   -0.705091
     23          6           0        2.578438    0.664618   -0.804423
     24          6           0        3.372047   -0.189566   -0.040325
     25          6           0        2.835062   -1.153801    0.811254
     26          6           0        1.443541   -1.259866    0.894733
     27          1           0       -0.459625   -0.506477    0.211594
     28          1           0        0.552600    1.196520   -1.291946
     29          1           0        3.045463    1.397437   -1.451172
     30          1           0        3.495761   -1.793347    1.383859
     31          1           0        1.004367   -2.004671    1.552332
     32          7           0        4.843855   -0.067835   -0.137092
     33          8           0        5.521185   -0.832358    0.546549
     34          8           0        5.292259    0.789797   -0.894746
 ---------------------------------------------------------------------

 SCF Done:  E(RHF) =  -669.535206678     A.U. after   15 cycles
 E2 =    -0.2092018755D+01 EUMP2 =    -0.67162722543352D+03

 The electronic state is 1-A.
 Alpha  occ. eigenvalues --  -20.60724 -20.60719 -15.85779 -11.31134 -11.27711
 Alpha  occ. eigenvalues --  -11.27704 -11.27390 -11.26714 -11.26697 -11.22768
 Alpha  occ. eigenvalues --  -11.22560 -11.22471 -11.22407 -11.21981 -11.21851
 Alpha  occ. eigenvalues --   -1.59801  -1.39354  -1.19306  -1.09489  -1.08697
 Alpha  occ. eigenvalues --   -1.04711  -1.04496  -0.96925  -0.95538  -0.87939
 Alpha  occ. eigenvalues --   -0.86108  -0.82377  -0.80579  -0.79336  -0.77422
 Alpha  occ. eigenvalues --   -0.71996  -0.71124  -0.70432  -0.66125  -0.64956
 Alpha  occ. eigenvalues --   -0.64713  -0.62088  -0.61865  -0.60294  -0.58546
 Alpha  occ. eigenvalues --   -0.56213  -0.55232  -0.53581  -0.53347  -0.53036
 Alpha  occ. eigenvalues --   -0.52801  -0.50871  -0.48877  -0.48756  -0.48751
 Alpha  occ. eigenvalues --   -0.47619  -0.46823  -0.46758  -0.44769  -0.44762
 Alpha  occ. eigenvalues --   -0.37267  -0.36318
 Alpha virt. eigenvalues --    0.05105   0.11292   0.16576   0.19110   0.22606
 Alpha virt. eigenvalues --    0.23193   0.24755   0.25787   0.26520   0.27552
 Alpha virt. eigenvalues --    0.29523   0.30728   0.31021   0.31140   0.31297

 Mulliken charges:
               1
     1  C   -0.302544
     2  C   -0.299903
     3  C   -0.476586
     4  H    0.142818
     5  H    0.150899
     6  H    0.154041
     7  H    0.155400
     8  H    0.155761
     9  H    0.154437
    10  H    0.163912
    11  C   -0.298769
    12  C   -0.304037
    13  C   -0.476532
    14  H    0.151048
    15  H    0.154636
    16  H    0.143081
    17  H    0.155047
    18  H    0.159407
    19  H    0.155560
    20  H    0.163667
    21  C   -0.176667
    22  C   -0.221772
    23  C   -0.170785
    24  C    0.158031
    25  C   -0.170609
    26  C   -0.220828
    27  H    0.236483
    28  H    0.223311
    29  H    0.275394
    30  H    0.275374
    31  H    0.223858
    32  N    0.488050
    33  O   -0.460554
    34  O   -0.460628
 Sum of Mulliken charges =  -0.00000

 Dipole moment (field-independent basis, Debye):
    X=             -5.4657    Y=             -0.3768    Z=              0.3768  Tot=              5.4917
 Quadrupole moment (field-independent basis, Debye-Ang):
   XX=           -128.8768   YY=            -93.0079   ZZ=            -92.2717
   XY=             -1.1614   XZ=              1.2556   YZ=             -2.7403

 Normal termination of Gaussian 16 at Wed May  5 23:37:09 2021.
