 Gaussian 16, Revision A.03,
 Gaussian 16:  EM64L-G16RevA.03 25-Dec-2016

 -------------
 #p 6-31g* mp2
 -------------

 ------------------------------------------------------
 Input file generated by CHIRIPA (05-May-2021 14:51:12)
 ------------------------------------------------------
 Symbolic Z-matrix:
 Charge =  0 Multiplicity = 1

                         Standard orientation:
 ---------------------------------------------------------------------
 Center     Atomic      Atomic             Coordinates (Angstroms)
 Number     Number       Type             X           Y           Z
 ---------------------------------------------------------------------
      1          6           0        3.161250   -0.241783   -0.131740
      2          6           0        2.155852   -1.128222    0.604047
      3          6           0        0.707179   -0.819913    0.224459
      4          1           0        2.939851    0.811943    0.086406
      5          1           0        3.029593   -0.371078   -1.214951
      6          1           0        2.290296   -0.998337    1.685560
      7          1           0        2.379788   -2.179968    0.384277
      8          1           0        0.550332   -0.967925   -0.848897
      9          1           0        0.460332    0.220419    0.459780
     10          1           0        0.005295   -1.465076    0.762030
     11          6           0        4.613786   -0.538045    0.237174
     12          6           0        5.619184    0.348394   -0.498614
     13          6           0        7.067857    0.040084   -0.119025
     14          1           0        4.745443   -0.408750    1.320384
     15          1           0        4.835185   -1.591772    0.019028
     16          1           0        5.395247    1.400140   -0.278843
     17          1           0        5.484740    0.218509   -1.580127
     18          1           0        7.314704   -1.000248   -0.354347
     19          1           0        7.224704    0.188097    0.954331
     20          1           0        7.769741    0.685248   -0.656596
     21          6           0       -3.935862   -0.348833   -0.240729
     22          6           0       -5.288478   -0.974366    0.101505
     23          6           0       -5.369790   -2.452600   -0.280603
     24          1           0       -3.748834   -0.461532   -1.317420
     25          1           0       -3.141196   -0.905951    0.274556
     26          1           0       -6.080473   -0.415379   -0.413172
     27          1           0       -5.472394   -0.859994    1.177474
     28          1           0       -4.600417   -3.028841    0.243432
     29          1           0       -5.211952   -2.581699   -1.356253
     30          1           0       -6.345083   -2.879715   -0.027152
     31          6           0       -3.839174    1.128661    0.135295
     32          6           0       -2.486559    1.754195   -0.206939
     33          6           0       -2.405245    3.232428    0.175170
     34          1           0       -4.633839    1.685779   -0.379990
     35          1           0       -4.026202    1.241361    1.211987
     36          1           0       -2.302642    1.639822   -1.282908
     37          1           0       -1.694564    1.195207    0.307739
     38          1           0       -2.563085    3.361528    1.250819
     39          1           0       -3.174618    3.808669   -0.348866
     40          1           0       -1.429954    3.659544   -0.078282
 ---------------------------------------------------------------------

 SCF Done:  E(RHF) =  -470.733137722     A.U. after   11 cycles
 E2 =    -0.1582696489D+01 EUMP2 =    -0.47231583421161D+03

 The electronic state is 1-A.
 Alpha  occ. eigenvalues --  -11.21615 -11.21609 -11.21558 -11.21477 -11.21417
 Alpha  occ. eigenvalues --  -11.21358 -11.21336 -11.21277 -11.21083 -11.21077
 Alpha  occ. eigenvalues --  -11.21040 -11.21025  -1.08444  -1.08363  -1.03550
 Alpha  occ. eigenvalues --   -1.03467  -0.95997  -0.95926  -0.87026  -0.86933
 Alpha  occ. eigenvalues --   -0.79669  -0.79483  -0.78275  -0.78146  -0.65090
 Alpha  occ. eigenvalues --   -0.64986  -0.61014  -0.60814  -0.59364  -0.59300
 Alpha  occ. eigenvalues --   -0.57642  -0.57501  -0.55315  -0.55189  -0.52722
 Alpha  occ. eigenvalues --   -0.52608  -0.52455  -0.52320  -0.50024  -0.49809
 Alpha  occ. eigenvalues --   -0.48066  -0.47728  -0.46758  -0.46438  -0.45879
 Alpha  occ. eigenvalues --   -0.45730  -0.45685  -0.45484  -0.43788  -0.43719
 Alpha virt. eigenvalues --    0.21985   0.22981   0.23861   0.24482   0.25609
 Alpha virt. eigenvalues --    0.26581   0.26966   0.27385   0.27890   0.29192
 Alpha virt. eigenvalues --    0.30083   0.31448   0.31684   0.31831   0.32072

 Mulliken charges:
               1
     1  C   -0.298421
     2  C   -0.300049
     3  C   -0.478714
     4  H    0.149707
     5  H    0.149659
     6  H    0.151725
     7  H    0.151956
     8  H    0.156350
     9  H    0.158336
    10  H    0.159739
    11  C   -0.298275
    12  C   -0.299660
    13  C   -0.475714
    14  H    0.149511
    15  H    0.149701
    16  H    0.151953
    17  H    0.151960
    18  H    0.155195
    19  H    0.155187
    20  H    0.160289
    21  C   -0.299318
    22  C   -0.299630
    23  C   -0.475575
    24  H    0.149489
    25  H    0.151123
    26  H    0.151818
    27  H    0.151717
    28  H    0.154993
    29  H    0.155118
    30  H    0.160060
    31  C   -0.297703
    32  C   -0.307271
    33  C   -0.475576
    34  H    0.149088
    35  H    0.149053
    36  H    0.151499
    37  H    0.161446
    38  H    0.154652
    39  H    0.155068
    40  H    0.159514
 Sum of Mulliken charges =  -0.00000

 Dipole moment (field-independent basis, Debye):
    X=              0.0320    Y=             -0.0135    Z=             -0.0061  Tot=              0.0352
 Quadrupole moment (field-independent basis, Debye-Ang):
   XX=            -86.0829   YY=            -85.5180   ZZ=            -83.4189
   XY=             -0.1965   XZ=              0.0516   YZ=              0.0865

 Normal termination of Gaussian 16 at Thu May  6 03:55:19 2021.
