 Gaussian 16, Revision A.03,
 Gaussian 16:  EM64L-G16RevA.03 25-Dec-2016

 -------------
 #p 6-31g* mp2
 -------------

 ------------------------------------------------------
 Input file generated by CHIRIPA (05-May-2021 14:53:15)
 ------------------------------------------------------
 Symbolic Z-matrix:
 Charge =  0 Multiplicity = 1

                         Standard orientation:
 ---------------------------------------------------------------------
 Center     Atomic      Atomic             Coordinates (Angstroms)
 Number     Number       Type             X           Y           Z
 ---------------------------------------------------------------------
      1          6           0       -2.939289   -0.787933    0.133150
      2          6           0       -2.154250   -1.643603   -0.861600
      3          6           0       -0.853569   -2.190930   -0.272994
      4          1           0       -2.307426    0.045911    0.468411
      5          1           0       -3.163727   -1.388479    1.025544
      6          1           0       -1.932558   -1.042040   -1.752437
      7          1           0       -2.788121   -2.475398   -1.194678
      8          1           0       -1.059446   -2.813596    0.603648
      9          1           0       -0.199021   -1.372094    0.042720
     10          1           0       -0.308337   -2.799670   -1.001017
     11          6           0       -4.242062   -0.233582   -0.440614
     12          6           0       -5.027100    0.622088    0.554137
     13          6           0       -6.327781    1.169415   -0.034470
     14          1           0       -4.017623    0.366964   -1.333008
     15          1           0       -4.873924   -1.067426   -0.775875
     16          1           0       -4.393229    1.453883    0.887214
     17          1           0       -5.248793    0.020525    1.444973
     18          1           0       -6.982330    0.350579   -0.350184
     19          1           0       -6.121905    1.792081   -0.911112
     20          1           0       -6.873013    1.778155    0.693553
     21          6           0        2.046157    2.798985   -0.053000
     22          6           0        3.157424    2.362004   -0.781459
     23          6           0        3.586932    1.034492   -0.693239
     24          6           0        2.878598    0.167010    0.136838
     25          6           0        1.767732    0.572237    0.875119
     26          6           0        1.356074    1.904285    0.771511
     27          1           0        1.719439    3.831990   -0.127508
     28          1           0        3.695274    3.054627   -1.422580
     29          1           0        4.443988    0.669593   -1.246160
     30          1           0        1.251835   -0.141527    1.505840
     31          1           0        0.492709    2.240862    1.338398
     32          7           0        3.323850   -1.240769    0.238378
     33          8           0        2.682703   -1.985330    0.976751
     34          8           0        4.305554   -1.572966   -0.422332
 ---------------------------------------------------------------------

 SCF Done:  E(RHF) =  -669.535066640     A.U. after   15 cycles
 E2 =    -0.2092505658D+01 EUMP2 =    -0.67162757229816D+03

 The electronic state is 1-A.
 Alpha  occ. eigenvalues --  -20.60808 -20.60782 -15.85836 -11.31237 -11.27808
 Alpha  occ. eigenvalues --  -11.27794 -11.27557 -11.26837 -11.26825 -11.21846
 Alpha  occ. eigenvalues --  -11.21580 -11.21527 -11.21476 -11.21290 -11.20697
 Alpha  occ. eigenvalues --   -1.59861  -1.39414  -1.19418  -1.08802  -1.08547
 Alpha  occ. eigenvalues --   -1.04830  -1.03569  -0.96007  -0.95628  -0.87017
 Alpha  occ. eigenvalues --   -0.86218  -0.82462  -0.79642  -0.78377  -0.77497
 Alpha  occ. eigenvalues --   -0.72057  -0.71181  -0.70532  -0.65194  -0.65068
 Alpha  occ. eigenvalues --   -0.64830  -0.62209  -0.60956  -0.59384  -0.57618
 Alpha  occ. eigenvalues --   -0.55416  -0.55228  -0.53164  -0.52951  -0.52649
 Alpha  occ. eigenvalues --   -0.52371  -0.49950  -0.48825  -0.48815  -0.47936
 Alpha  occ. eigenvalues --   -0.46695  -0.45921  -0.45833  -0.44766  -0.43817
 Alpha  occ. eigenvalues --   -0.37388  -0.36401
 Alpha virt. eigenvalues --    0.04997   0.11113   0.16466   0.20885   0.22806
 Alpha virt. eigenvalues --    0.24245   0.25838   0.26980   0.27385   0.28067
 Alpha virt. eigenvalues --    0.28989   0.30658   0.31444   0.31723   0.32179

 Mulliken charges:
               1
     1  C   -0.296386
     2  C   -0.300911
     3  C   -0.475185
     4  H    0.140144
     5  H    0.150735
     6  H    0.150222
     7  H    0.152709
     8  H    0.157829
     9  H    0.151005
    10  H    0.166226
    11  C   -0.298034
    12  C   -0.298938
    13  C   -0.475661
    14  H    0.148804
    15  H    0.151568
    16  H    0.147636
    17  H    0.152848
    18  H    0.156576
    19  H    0.154635
    20  H    0.160041
    21  C   -0.170763
    22  C   -0.218184
    23  C   -0.170979
    24  C    0.160374
    25  C   -0.172429
    26  C   -0.220279
    27  H    0.225824
    28  H    0.223705
    29  H    0.275845
    30  H    0.277769
    31  H    0.224106
    32  N    0.488371
    33  O   -0.458899
    34  O   -0.460322
 Sum of Mulliken charges =  -0.00000

 Dipole moment (field-independent basis, Debye):
    X=             -1.4862    Y=              4.8665    Z=             -0.3761  Tot=              5.1022
 Quadrupole moment (field-independent basis, Debye-Ang):
   XX=           -102.0352   YY=            -92.7102   ZZ=            -93.3217
   XY=             15.9677   XZ=             -4.4552   YZ=             -0.2656

 Normal termination of Gaussian 16 at Thu May  6 13:50:35 2021.
