 Gaussian 16, Revision A.03,
 Gaussian 16:  EM64L-G16RevA.03 25-Dec-2016

 -------------
 #p 6-31g* mp2
 -------------

 ------------------------------------------------------
 Input file generated by CHIRIPA (05-May-2021 14:51:08)
 ------------------------------------------------------
 Symbolic Z-matrix:
 Charge =  0 Multiplicity = 1

                         Standard orientation:
 ---------------------------------------------------------------------
 Center     Atomic      Atomic             Coordinates (Angstroms)
 Number     Number       Type             X           Y           Z
 ---------------------------------------------------------------------
      1          6           0       -3.649353   -0.583642    0.079760
      2          6           0       -4.308595    0.014682   -1.163378
      3          6           0       -5.315685   -0.934604   -1.813317
      4          1           0       -3.147131   -1.521396   -0.194712
      5          1           0       -4.428436   -0.847903    0.808177
      6          1           0       -3.528404    0.279011   -1.888670
      7          1           0       -4.809144    0.951219   -0.885954
      8          1           0       -6.114558   -1.189487   -1.109444
      9          1           0       -4.826541   -1.865515   -2.117857
     10          1           0       -5.774962   -0.486828   -2.700121
     11          6           0       -2.640042    0.353472    0.740695
     12          6           0       -1.980800   -0.244852    1.983834
     13          6           0       -0.973710    0.704434    2.633772
     14          1           0       -1.860959    0.617733    0.012278
     15          1           0       -3.142264    1.291226    1.015167
     16          1           0       -1.480251   -1.181389    1.706409
     17          1           0       -2.760992   -0.509181    2.709126
     18          1           0       -1.462854    1.635344    2.938313
     19          1           0       -0.174837    0.959317    1.929899
     20          1           0       -0.514433    0.256658    3.520577
     21          6           0        3.295377    0.856474   -0.515442
     22          6           0        2.040039    1.726974   -0.581333
     23          6           0        2.357811    3.207641   -0.792139
     24          1           0        3.939639    1.214307    0.299314
     25          1           0        3.868493    0.980763   -1.444681
     26          1           0        1.468756    1.600019    0.347179
     27          1           0        1.398600    1.366908   -1.395903
     28          1           0        2.907587    3.354293   -1.727468
     29          1           0        2.978141    3.588729    0.025519
     30          1           0        1.446130    3.811592   -0.836215
     31          6           0        2.994019   -0.626304   -0.305014
     32          6           0        4.249356   -1.496804   -0.239123
     33          6           0        3.931584   -2.977471   -0.028317
     34          1           0        2.420902   -0.750593    0.624226
     35          1           0        2.349756   -0.984136   -1.119770
     36          1           0        4.890795   -1.136738    0.575448
     37          1           0        4.820639   -1.369849   -1.167635
     38          1           0        3.311254   -3.358558   -0.845973
     39          1           0        3.381809   -3.124122    0.907013
     40          1           0        4.843265   -3.581421    0.015759
 ---------------------------------------------------------------------

 SCF Done:  E(RHF) =  -470.733407702     A.U. after   11 cycles
 E2 =    -0.1582860113D+01 EUMP2 =    -0.47231626781534D+03

 The electronic state is 1-A.
 Alpha  occ. eigenvalues --  -11.21647 -11.21628 -11.21591 -11.21591 -11.21442
 Alpha  occ. eigenvalues --  -11.21384 -11.21382 -11.21323 -11.21094 -11.21093
 Alpha  occ. eigenvalues --  -11.21068 -11.21064  -1.08469  -1.08413  -1.03568
 Alpha  occ. eigenvalues --   -1.03517  -0.96007  -0.95973  -0.87029  -0.86986
 Alpha  occ. eigenvalues --   -0.79667  -0.79552  -0.78304  -0.78204  -0.65138
 Alpha  occ. eigenvalues --   -0.65011  -0.61043  -0.60851  -0.59394  -0.59321
 Alpha  occ. eigenvalues --   -0.57636  -0.57566  -0.55310  -0.55252  -0.52703
 Alpha  occ. eigenvalues --   -0.52669  -0.52452  -0.52386  -0.50032  -0.49864
 Alpha  occ. eigenvalues --   -0.48064  -0.47824  -0.46791  -0.46503  -0.45915
 Alpha  occ. eigenvalues --   -0.45772  -0.45727  -0.45487  -0.43815  -0.43774
 Alpha virt. eigenvalues --    0.20900   0.23227   0.23681   0.24433   0.25806
 Alpha virt. eigenvalues --    0.26344   0.27170   0.27828   0.28065   0.29136
 Alpha virt. eigenvalues --    0.30464   0.31457   0.31731   0.31897   0.31983

 Mulliken charges:
               1
     1  C   -0.298345
     2  C   -0.299616
     3  C   -0.475696
     4  H    0.149742
     5  H    0.149441
     6  H    0.151858
     7  H    0.151898
     8  H    0.155180
     9  H    0.155151
    10  H    0.160180
    11  C   -0.299187
    12  C   -0.298923
    13  C   -0.484549
    14  H    0.150898
    15  H    0.149395
    16  H    0.152121
    17  H    0.151846
    18  H    0.155373
    19  H    0.162697
    20  H    0.159917
    21  C   -0.297533
    22  C   -0.309696
    23  C   -0.475063
    24  H    0.149928
    25  H    0.149756
    26  H    0.160728
    27  H    0.151492
    28  H    0.155265
    29  H    0.155433
    30  H    0.160660
    31  C   -0.299220
    32  C   -0.299654
    33  C   -0.475770
    34  H    0.150078
    35  H    0.149238
    36  H    0.152181
    37  H    0.152062
    38  H    0.155037
    39  H    0.155296
    40  H    0.160401
 Sum of Mulliken charges =  -0.00000

 Dipole moment (field-independent basis, Debye):
    X=              0.0211    Y=              0.0095    Z=             -0.0045  Tot=              0.0235
 Quadrupole moment (field-independent basis, Debye-Ang):
   XX=            -84.7735   YY=            -86.1300   ZZ=            -83.8192
   XY=             -0.7842   XZ=             -0.8114   YZ=              0.2060

 Normal termination of Gaussian 16 at Thu May  6 14:52:23 2021.
