 Gaussian 16, Revision A.03,
 Gaussian 16:  EM64L-G16RevA.03 25-Dec-2016

 -------------
 #p 6-31g* mp2
 -------------

 ------------------------------------------------------
 Input file generated by CHIRIPA (05-May-2021 14:53:15)
 ------------------------------------------------------
 Symbolic Z-matrix:
 Charge =  0 Multiplicity = 1

                         Standard orientation:
 ---------------------------------------------------------------------
 Center     Atomic      Atomic             Coordinates (Angstroms)
 Number     Number       Type             X           Y           Z
 ---------------------------------------------------------------------
      1          6           0       -3.689165    0.985078    0.414293
      2          6           0       -2.641922    1.607662   -0.509642
      3          6           0       -1.880915    2.758180    0.149880
      4          1           0       -4.398451    1.762234    0.730344
      5          1           0       -3.194650    0.623568    1.326522
      6          1           0       -3.138061    1.966647   -1.420461
      7          1           0       -1.935159    0.828894   -0.823683
      8          1           0       -1.360214    2.410825    1.048110
      9          1           0       -2.569951    3.555043    0.447941
     10          1           0       -1.137399    3.188608   -0.528189
     11          6           0       -4.458273   -0.166451   -0.230828
     12          6           0       -5.505516   -0.789035    0.693107
     13          6           0       -6.266524   -1.939554    0.033585
     14          1           0       -4.952788    0.195059   -1.143056
     15          1           0       -3.748988   -0.943607   -0.546879
     16          1           0       -6.212279   -0.010267    1.007148
     17          1           0       -5.009377   -1.148020    1.603926
     18          1           0       -5.577487   -2.736416   -0.264476
     19          1           0       -6.787224   -1.592198   -0.864644
     20          1           0       -7.010039   -2.369981    0.711654
     21          6           0        0.751390   -0.741677   -0.598137
     22          6           0        1.238089    0.568424   -0.540858
     23          6           0        2.583322    0.814015   -0.250028
     24          6           0        3.417633   -0.278989   -0.020769
     25          6           0        2.962665   -1.595727   -0.070700
     26          6           0        1.613711   -1.817674   -0.363289
     27          1           0       -0.295065   -0.923273   -0.824744
     28          1           0        0.570697    1.405996   -0.722807
     29          1           0        2.986530    1.818144   -0.199386
     30          1           0        3.652164   -2.410233    0.115281
     31          1           0        1.238503   -2.836174   -0.407113
     32          7           0        4.843741   -0.031508    0.288051
     33          8           0        5.558331   -1.011690    0.486140
     34          8           0        5.219930    1.137965    0.326168
 ---------------------------------------------------------------------

 SCF Done:  E(RHF) =  -669.534633915     A.U. after   15 cycles
 E2 =    -0.2092608724D+01 EUMP2 =    -0.67162724263981D+03

 The electronic state is 1-A.
 Alpha  occ. eigenvalues --  -20.60718 -20.60712 -15.85769 -11.31125 -11.27693
 Alpha  occ. eigenvalues --  -11.27673 -11.27414 -11.26714 -11.26623 -11.22928
 Alpha  occ. eigenvalues --  -11.22426 -11.22376 -11.22317 -11.22316 -11.21736
 Alpha  occ. eigenvalues --   -1.59793  -1.39347  -1.19292  -1.09460  -1.08691
 Alpha  occ. eigenvalues --   -1.04714  -1.04525  -0.96979  -0.95532  -0.87993
 Alpha  occ. eigenvalues --   -0.86093  -0.82365  -0.80626  -0.79238  -0.77412
 Alpha  occ. eigenvalues --   -0.71989  -0.71116  -0.70447  -0.66155  -0.64941
 Alpha  occ. eigenvalues --   -0.64732  -0.62265  -0.61710  -0.60324  -0.58567
 Alpha  occ. eigenvalues --   -0.56242  -0.55240  -0.53704  -0.53410  -0.53021
 Alpha  occ. eigenvalues --   -0.52686  -0.50890  -0.48924  -0.48744  -0.48740
 Alpha  occ. eigenvalues --   -0.47659  -0.46779  -0.46673  -0.44792  -0.44754
 Alpha  occ. eigenvalues --   -0.37276  -0.36290
 Alpha virt. eigenvalues --    0.05119   0.11313   0.16603   0.18995   0.22359
 Alpha virt. eigenvalues --    0.23490   0.24448   0.25914   0.26300   0.28593
 Alpha virt. eigenvalues --    0.29557   0.29829   0.30781   0.31304   0.32096

 Mulliken charges:
               1
     1  C   -0.299286
     2  C   -0.305311
     3  C   -0.484165
     4  H    0.154518
     5  H    0.151762
     6  H    0.157873
     7  H    0.142517
     8  H    0.160364
     9  H    0.164673
    10  H    0.155945
    11  C   -0.297876
    12  C   -0.300538
    13  C   -0.476068
    14  H    0.152226
    15  H    0.143186
    16  H    0.154543
    17  H    0.153026
    18  H    0.154213
    19  H    0.156521
    20  H    0.163001
    21  C   -0.177518
    22  C   -0.225205
    23  C   -0.173149
    24  C    0.158629
    25  C   -0.171230
    26  C   -0.218250
    27  H    0.228696
    28  H    0.236032
    29  H    0.275688
    30  H    0.275262
    31  H    0.223062
    32  N    0.488019
    33  O   -0.460667
    34  O   -0.460492
 Sum of Mulliken charges =  -0.00000

 Dipole moment (field-independent basis, Debye):
    X=             -5.3235    Y=             -0.7750    Z=             -1.0071  Tot=              5.4731
 Quadrupole moment (field-independent basis, Debye-Ang):
   XX=           -128.4254   YY=            -89.3635   ZZ=            -95.5469
   XY=             -3.7357   XZ=             -3.7373   YZ=             -0.5334

 Normal termination of Gaussian 16 at Thu May  6 13:51:01 2021.
