 Gaussian 16, Revision A.03,
 Gaussian 16:  EM64L-G16RevA.03 25-Dec-2016

 -------------
 #p 6-31g* mp2
 -------------

 ------------------------------------------------------
 Input file generated by CHIRIPA (05-May-2021 14:51:07)
 ------------------------------------------------------
 Symbolic Z-matrix:
 Charge =  0 Multiplicity = 1

                         Standard orientation:
 ---------------------------------------------------------------------
 Center     Atomic      Atomic             Coordinates (Angstroms)
 Number     Number       Type             X           Y           Z
 ---------------------------------------------------------------------
      1          6           0        2.694337    1.252898   -0.386648
      2          6           0        2.187974    2.470029    0.388061
      3          6           0        1.827163    3.643034   -0.523898
      4          1           0        3.573199    1.542718   -0.978722
      5          1           0        1.924292    0.937336   -1.104175
      6          1           0        2.958194    2.782356    1.104879
      7          1           0        1.310331    2.177232    0.978508
      8          1           0        1.042062    3.354509   -1.230276
      9          1           0        2.699288    3.963072   -1.103186
     10          1           0        1.467540    4.502374    0.050615
     11          6           0        3.059104    0.072052    0.511280
     12          6           0        3.565467   -1.145079   -0.263429
     13          6           0        3.926279   -2.318084    0.648530
     14          1           0        3.829150    0.387615    1.228807
     15          1           0        2.180242   -0.217767    1.103354
     16          1           0        4.443111   -0.852281   -0.853876
     17          1           0        2.795247   -1.457406   -0.980248
     18          1           0        3.054154   -2.638121    1.227818
     19          1           0        4.711380   -2.029558    1.354908
     20          1           0        4.285902   -3.177424    0.074017
     21          6           0       -3.628685   -0.554855   -0.142312
     22          6           0       -4.120349    0.761523    0.460515
     23          6           0       -5.626738    0.962462    0.292559
     24          1           0       -3.886742   -0.580901   -1.209866
     25          1           0       -4.165711   -1.389345    0.329521
     26          1           0       -3.581564    1.593200   -0.011331
     27          1           0       -3.860923    0.784520    1.526718
     28          1           0       -6.180015    0.152584    0.778957
     29          1           0       -5.899069    0.965859   -0.767830
     30          1           0       -5.956726    1.909603    0.730613
     31          6           0       -2.124756   -0.770095    0.017680
     32          6           0       -1.633093   -2.086473   -0.585148
     33          6           0       -0.126704   -2.287412   -0.417190
     34          1           0       -1.587730    0.064394   -0.454153
     35          1           0       -1.866700   -0.744050    1.085235
     36          1           0       -1.892519   -2.109469   -1.651349
     37          1           0       -2.171878   -2.918150   -0.113300
     38          1           0        0.145627   -2.290810    0.643199
     39          1           0        0.426574   -1.477535   -0.903590
     40          1           0        0.203284   -3.234553   -0.855245
 ---------------------------------------------------------------------

 SCF Done:  E(RHF) =  -470.732796861     A.U. after   11 cycles
 E2 =    -0.1583944933D+01 EUMP2 =    -0.47231674179476D+03

 The electronic state is 1-A.
 Alpha  occ. eigenvalues --  -11.21678 -11.21645 -11.21573 -11.21480 -11.21447
 Alpha  occ. eigenvalues --  -11.21414 -11.21362 -11.21263 -11.21162 -11.21103
 Alpha  occ. eigenvalues --  -11.21064 -11.20964  -1.08505  -1.08361  -1.03612
 Alpha  occ. eigenvalues --   -1.03447  -0.96054  -0.95916  -0.87086  -0.86924
 Alpha  occ. eigenvalues --   -0.79683  -0.79515  -0.78315  -0.78182  -0.65177
 Alpha  occ. eigenvalues --   -0.64978  -0.61021  -0.60863  -0.59419  -0.59283
 Alpha  occ. eigenvalues --   -0.57643  -0.57527  -0.55380  -0.55182  -0.52738
 Alpha  occ. eigenvalues --   -0.52616  -0.52467  -0.52338  -0.50102  -0.49781
 Alpha  occ. eigenvalues --   -0.48045  -0.47779  -0.46832  -0.46468  -0.45954
 Alpha  occ. eigenvalues --   -0.45834  -0.45605  -0.45453  -0.43847  -0.43716
 Alpha virt. eigenvalues --    0.20236   0.22812   0.23513   0.24672   0.25450
 Alpha virt. eigenvalues --    0.26180   0.27430   0.27575   0.27959   0.29781
 Alpha virt. eigenvalues --    0.30637   0.31084   0.31804   0.31865   0.32205

 Mulliken charges:
               1
     1  C   -0.299738
     2  C   -0.299902
     3  C   -0.475516
     4  H    0.149718
     5  H    0.148929
     6  H    0.151974
     7  H    0.152664
     8  H    0.154441
     9  H    0.155167
    10  H    0.160264
    11  C   -0.300145
    12  C   -0.302591
    13  C   -0.476652
    14  H    0.149260
    15  H    0.152014
    16  H    0.150939
    17  H    0.157182
    18  H    0.156595
    19  H    0.154373
    20  H    0.159621
    21  C   -0.298282
    22  C   -0.299750
    23  C   -0.475757
    24  H    0.149849
    25  H    0.149812
    26  H    0.152046
    27  H    0.151997
    28  H    0.155256
    29  H    0.155270
    30  H    0.160466
    31  C   -0.298706
    32  C   -0.300500
    33  C   -0.480546
    34  H    0.149122
    35  H    0.149496
    36  H    0.152218
    37  H    0.152295
    38  H    0.156096
    39  H    0.159909
    40  H    0.161116
 Sum of Mulliken charges =  -0.00000

 Dipole moment (field-independent basis, Debye):
    X=             -0.0467    Y=             -0.0260    Z=             -0.0005  Tot=              0.0534
 Quadrupole moment (field-independent basis, Debye-Ang):
   XX=            -85.2267   YY=            -85.3857   ZZ=            -84.2522
   XY=              1.0254   XZ=             -0.2900   YZ=              0.1414

 Normal termination of Gaussian 16 at Thu May  6 00:29:20 2021.
