 Gaussian 16, Revision A.03,
 Gaussian 16:  EM64L-G16RevA.03 25-Dec-2016

 -------------
 #p 6-31g* mp2
 -------------

 ------------------------------------------------------
 Input file generated by CHIRIPA (05-May-2021 14:55:19)
 ------------------------------------------------------
 Symbolic Z-matrix:
 Charge =  0 Multiplicity = 1

                         Standard orientation:
 ---------------------------------------------------------------------
 Center     Atomic      Atomic             Coordinates (Angstroms)
 Number     Number       Type             X           Y           Z
 ---------------------------------------------------------------------
      1          6           0        0.538801   -0.701355    0.766982
      2          6           0        1.393624   -0.000961    1.624448
      3          6           0        2.732279    0.206454    1.278717
      4          6           0        3.184705   -0.302584    0.062378
      5          6           0        2.357688   -1.004451   -0.813245
      6          6           0        1.022709   -1.199985   -0.446988
      7          1           0       -0.499670   -0.857866    1.043526
      8          1           0        1.020562    0.387414    2.567865
      9          1           0        3.415816    0.745104    1.923737
     10          1           0        2.758522   -1.379673   -1.747033
     11          1           0        0.361124   -1.744294   -1.114879
     12          7           0        4.599933   -0.089292   -0.314496
     13          8           0        4.974083   -0.547827   -1.391713
     14          8           0        5.308243    0.532383    0.474461
     15          6           0       -3.102801    0.779759   -0.242984
     16          6           0       -3.205585    2.305036   -0.273816
     17          6           0       -1.846848    2.985817   -0.441639
     18          1           0       -2.437012    0.479998    0.577877
     19          1           0       -2.629768    0.432246   -1.171891
     20          1           0       -3.679542    2.649470    0.654271
     21          1           0       -3.871359    2.601193   -1.094579
     22          1           0       -1.370806    2.670637   -1.375794
     23          1           0       -1.177898    2.719189    0.382993
     24          1           0       -1.943622    4.075825   -0.461114
     25          6           0       -4.452931    0.084849   -0.075716
     26          6           0       -4.350148   -1.440428   -0.044883
     27          6           0       -5.708885   -2.121209    0.122940
     28          1           0       -4.925965    0.432363    0.853192
     29          1           0       -5.118722    0.384611   -0.896576
     30          1           0       -3.684373   -1.736585    0.775880
     31          1           0       -3.876192   -1.784862   -0.972971
     32          1           0       -6.377836   -1.854580   -0.701692
     33          1           0       -6.184928   -1.806028    1.057095
     34          1           0       -5.612111   -3.211216    0.142415
 ---------------------------------------------------------------------

 SCF Done:  E(RHF) =  -669.535470880     A.U. after   15 cycles
 E2 =    -0.2091797657D+01 EUMP2 =    -0.67162726853736D+03

 The electronic state is 1-A.
 Alpha  occ. eigenvalues --  -20.60725 -20.60720 -15.85780 -11.31136 -11.27717
 Alpha  occ. eigenvalues --  -11.27709 -11.27419 -11.26728 -11.26703 -11.22588
 Alpha  occ. eigenvalues --  -11.22425 -11.22332 -11.22255 -11.21838 -11.21657
 Alpha  occ. eigenvalues --   -1.59801  -1.39355  -1.19311  -1.09334  -1.08702
 Alpha  occ. eigenvalues --   -1.04716  -1.04333  -0.96766  -0.95541  -0.87777
 Alpha  occ. eigenvalues --   -0.86111  -0.82380  -0.80408  -0.79190  -0.77425
 Alpha  occ. eigenvalues --   -0.71998  -0.71125  -0.70429  -0.65963  -0.64963
 Alpha  occ. eigenvalues --   -0.64719  -0.62066  -0.61727  -0.60140  -0.58393
 Alpha  occ. eigenvalues --   -0.56078  -0.55217  -0.53428  -0.53169  -0.53042
 Alpha  occ. eigenvalues --   -0.52808  -0.50703  -0.48759  -0.48753  -0.48711
 Alpha  occ. eigenvalues --   -0.47451  -0.46681  -0.46624  -0.44763  -0.44616
 Alpha  occ. eigenvalues --   -0.37259  -0.36322
 Alpha virt. eigenvalues --    0.05094   0.11285   0.16518   0.19583   0.22690
 Alpha virt. eigenvalues --    0.23470   0.24555   0.25704   0.27071   0.27779
 Alpha virt. eigenvalues --    0.30016   0.30628   0.30993   0.31215   0.31560

 Mulliken charges:
               1
     1  C   -0.170310
     2  C   -0.220797
     3  C   -0.170485
     4  C    0.158425
     5  C   -0.170902
     6  C   -0.220330
     7  H    0.230425
     8  H    0.222755
     9  H    0.275436
    10  H    0.275333
    11  H    0.223699
    12  N    0.488089
    13  O   -0.460629
    14  O   -0.460591
    15  C   -0.300312
    16  C   -0.300363
    17  C   -0.475827
    18  H    0.141082
    19  H    0.149369
    20  H    0.152877
    21  H    0.155081
    22  H    0.157657
    23  H    0.153353
    24  H    0.163237
    25  C   -0.298340
    26  C   -0.300344
    27  C   -0.475907
    28  H    0.151565
    29  H    0.153655
    30  H    0.145478
    31  H    0.150672
    32  H    0.158028
    33  H    0.157040
    34  H    0.161880
 Sum of Mulliken charges =  -0.00000

 Dipole moment (field-independent basis, Debye):
    X=             -5.1734    Y=             -0.6796    Z=              1.2602  Tot=              5.3678
 Quadrupole moment (field-independent basis, Debye-Ang):
   XX=           -127.1175   YY=            -93.8536   ZZ=            -90.1100
   XY=             -1.0924   XZ=              5.0819   YZ=              2.0660

 Normal termination of Gaussian 16 at Thu May  6 12:24:38 2021.
