 Gaussian 16, Revision A.03,
 Gaussian 16:  EM64L-G16RevA.03 25-Dec-2016

 -------------
 #p 6-31g* mp2
 -------------

 ------------------------------------------------------
 Input file generated by CHIRIPA (05-May-2021 14:55:23)
 ------------------------------------------------------
 Symbolic Z-matrix:
 Charge =  0 Multiplicity = 1

                         Standard orientation:
 ---------------------------------------------------------------------
 Center     Atomic      Atomic             Coordinates (Angstroms)
 Number     Number       Type             X           Y           Z
 ---------------------------------------------------------------------
      1          6           0        0.762328   -0.310552    1.869862
      2          6           0        1.709063    0.718907    1.890585
      3          6           0        2.791454    0.706016    1.005818
      4          6           0        2.896679   -0.356485    0.109543
      5          6           0        1.969826   -1.396774    0.064480
      6          6           0        0.895497   -1.363251    0.958483
      7          1           0       -0.075368   -0.292525    2.560757
      8          1           0        1.608182    1.537711    2.597287
      9          1           0        3.538856    1.490093    1.000317
     10          1           0        2.097144   -2.199676   -0.651451
     11          1           0        0.161767   -2.164094    0.940131
     12          7           0        4.038291   -0.381053   -0.832009
     13          8           0        4.108406   -1.328365   -1.611958
     14          8           0        4.841354    0.547468   -0.772220
     15          6           0       -3.706643   -0.264823   -0.223121
     16          6           0       -5.224969   -0.418679   -0.317986
     17          6           0       -5.689197   -1.856597   -0.084157
     18          1           0       -3.230576   -0.929286   -0.957148
     19          1           0       -3.372043   -0.602628    0.767498
     20          1           0       -5.556767   -0.079388   -1.307637
     21          1           0       -5.697482    0.246369    0.416220
     22          1           0       -5.386356   -2.202423    0.909469
     23          1           0       -5.244841   -2.530030   -0.824182
     24          1           0       -6.777781   -1.943812   -0.156536
     25          6           0       -3.227188    1.167058   -0.454566
     26          6           0       -1.708862    1.320914   -0.359701
     27          6           0       -1.244634    2.758832   -0.593530
     28          1           0       -3.561788    1.504862   -1.445185
     29          1           0       -3.703255    1.831520    0.279461
     30          1           0       -1.236349    0.655866   -1.093908
     31          1           0       -1.377064    0.981623    0.629949
     32          1           0       -1.688990    3.432265    0.146495
     33          1           0       -1.547475    3.104658   -1.587157
     34          1           0       -0.156050    2.846047   -0.521151
 ---------------------------------------------------------------------

 SCF Done:  E(RHF) =  -669.534669970     A.U. after   15 cycles
 E2 =    -0.2093124925D+01 EUMP2 =    -0.67162779489454D+03

 The electronic state is 1-A.
 Alpha  occ. eigenvalues --  -20.60781 -20.60775 -15.85836 -11.31206 -11.27799
 Alpha  occ. eigenvalues --  -11.27783 -11.27535 -11.26808 -11.26777 -11.22118
 Alpha  occ. eigenvalues --  -11.22009 -11.21961 -11.21832 -11.21576 -11.21417
 Alpha  occ. eigenvalues --   -1.59857  -1.39410  -1.19394  -1.08957  -1.08778
 Alpha  occ. eigenvalues --   -1.04795  -1.03987  -0.96447  -0.95627  -0.87461
 Alpha  occ. eigenvalues --   -0.86194  -0.82456  -0.80059  -0.78773  -0.77489
 Alpha  occ. eigenvalues --   -0.72055  -0.71181  -0.70531  -0.65582  -0.65048
 Alpha  occ. eigenvalues --   -0.64793  -0.62140  -0.61399  -0.59828  -0.58074
 Alpha  occ. eigenvalues --   -0.55751  -0.55321  -0.53268  -0.52972  -0.52888
 Alpha  occ. eigenvalues --   -0.52867  -0.50395  -0.48814  -0.48808  -0.48365
 Alpha  occ. eigenvalues --   -0.47107  -0.46308  -0.46245  -0.44815  -0.44260
 Alpha  occ. eigenvalues --   -0.37248  -0.36387
 Alpha virt. eigenvalues --    0.05010   0.11222   0.16414   0.20467   0.22716
 Alpha virt. eigenvalues --    0.23878   0.25699   0.26398   0.27196   0.27737
 Alpha virt. eigenvalues --    0.29228   0.30610   0.31134   0.31420   0.31857

 Mulliken charges:
               1
     1  C   -0.170020
     2  C   -0.217892
     3  C   -0.171585
     4  C    0.158638
     5  C   -0.171696
     6  C   -0.215070
     7  H    0.225499
     8  H    0.223879
     9  H    0.275824
    10  H    0.275666
    11  H    0.224360
    12  N    0.488088
    13  O   -0.460465
    14  O   -0.460449
    15  C   -0.296834
    16  C   -0.299718
    17  C   -0.475912
    18  H    0.149770
    19  H    0.140923
    20  H    0.154499
    21  H    0.152454
    22  H    0.152983
    23  H    0.155568
    24  H    0.162417
    25  C   -0.298504
    26  C   -0.299095
    27  C   -0.477201
    28  H    0.151968
    29  H    0.148649
    30  H    0.154223
    31  H    0.146932
    32  H    0.152346
    33  H    0.157771
    34  H    0.161986
 Sum of Mulliken charges =  -0.00000

 Dipole moment (field-independent basis, Debye):
    X=             -4.0304    Y=              0.0831    Z=              3.2696  Tot=              5.1905
 Quadrupole moment (field-independent basis, Debye-Ang):
   XX=           -118.3557   YY=            -92.3298   ZZ=            -92.8636
   XY=              2.8955   XZ=             10.1874   YZ=              1.0410

 Normal termination of Gaussian 16 at Thu May  6 14:17:48 2021.
