 Gaussian 16, Revision A.03,
 Gaussian 16:  EM64L-G16RevA.03 25-Dec-2016

 -------------
 #p 6-31g* mp2
 -------------

 ------------------------------------------------------
 Input file generated by CHIRIPA (05-May-2021 14:53:16)
 ------------------------------------------------------
 Symbolic Z-matrix:
 Charge =  0 Multiplicity = 1

                         Standard orientation:
 ---------------------------------------------------------------------
 Center     Atomic      Atomic             Coordinates (Angstroms)
 Number     Number       Type             X           Y           Z
 ---------------------------------------------------------------------
      1          6           0        3.656263    0.852894    0.515813
      2          6           0        2.618258    1.834854   -0.028507
      3          6           0        2.359453    3.006850    0.918720
      4          1           0        3.316469    0.471854    1.488589
      5          1           0        4.596721    1.389915    0.701670
      6          1           0        1.680455    1.295859   -0.214586
      7          1           0        2.960471    2.213455   -1.000190
      8          1           0        3.281562    3.569784    1.095985
      9          1           0        1.994273    2.646974    1.886053
     10          1           0        1.614269    3.696405    0.509971
     11          6           0        3.925797   -0.324199   -0.419886
     12          6           0        4.963802   -1.306159    0.124434
     13          6           0        5.222606   -2.478155   -0.822793
     14          1           0        2.985339   -0.861219   -0.605743
     15          1           0        4.265591    0.056841   -1.392662
     16          1           0        4.621588   -1.684760    1.096117
     17          1           0        5.901605   -0.767163    0.310513
     18          1           0        5.587787   -2.118278   -1.790126
     19          1           0        4.300498   -3.041088   -1.000058
     20          1           0        5.967790   -3.167709   -0.414044
     21          6           0       -2.739530    2.236734   -0.626578
     22          6           0       -3.998775    1.627786   -0.629090
     23          6           0       -4.133766    0.274698   -0.304319
     24          6           0       -2.983224   -0.442727    0.019481
     25          6           0       -1.714843    0.135518    0.030876
     26          6           0       -1.603586    1.489973   -0.297184
     27          1           0       -2.643884    3.288376   -0.880146
     28          1           0       -4.882699    2.205271   -0.884497
     29          1           0       -5.096486   -0.221845   -0.298419
     30          1           0       -0.851997   -0.466062    0.289749
     31          1           0       -0.624366    1.960258   -0.294410
     32          7           0       -3.113571   -1.875903    0.365042
     33          8           0       -2.084497   -2.486076    0.646705
     34          8           0       -4.242343   -2.361919    0.347688
 ---------------------------------------------------------------------

 SCF Done:  E(RHF) =  -669.535456382     A.U. after   15 cycles
 E2 =    -0.2091447404D+01 EUMP2 =    -0.67162690378530D+03

 The electronic state is 1-A.
 Alpha  occ. eigenvalues --  -20.60754 -20.60748 -15.85806 -11.31160 -11.27722
 Alpha  occ. eigenvalues --  -11.27718 -11.27454 -11.26739 -11.26685 -11.22551
 Alpha  occ. eigenvalues --  -11.22002 -11.21971 -11.21824 -11.21750 -11.21157
 Alpha  occ. eigenvalues --   -1.59829  -1.39383  -1.19325  -1.08971  -1.08721
 Alpha  occ. eigenvalues --   -1.04729  -1.04071  -0.96498  -0.95561  -0.87512
 Alpha  occ. eigenvalues --   -0.86125  -0.82399  -0.80176  -0.78726  -0.77443
 Alpha  occ. eigenvalues --   -0.72025  -0.71151  -0.70438  -0.65641  -0.64975
 Alpha  occ. eigenvalues --   -0.64731  -0.62168  -0.61386  -0.59909  -0.58099
 Alpha  occ. eigenvalues --   -0.55766  -0.55221  -0.53224  -0.53057  -0.52927
 Alpha  occ. eigenvalues --   -0.52788  -0.50432  -0.48784  -0.48781  -0.48465
 Alpha  occ. eigenvalues --   -0.47206  -0.46266  -0.46155  -0.44791  -0.44309
 Alpha  occ. eigenvalues --   -0.37305  -0.36327
 Alpha virt. eigenvalues --    0.05087   0.11322   0.16576   0.19143   0.22740
 Alpha virt. eigenvalues --    0.23676   0.25002   0.26206   0.26680   0.28566
 Alpha virt. eigenvalues --    0.29394   0.30444   0.30865   0.31225   0.32184

 Mulliken charges:
               1
     1  C   -0.298675
     2  C   -0.304470
     3  C   -0.478039
     4  H    0.152230
     5  H    0.152255
     6  H    0.142943
     7  H    0.155578
     8  H    0.161297
     9  H    0.158757
    10  H    0.153836
    11  C   -0.299104
    12  C   -0.300324
    13  C   -0.476581
    14  H    0.150258
    15  H    0.150142
    16  H    0.154319
    17  H    0.151905
    18  H    0.154700
    19  H    0.158408
    20  H    0.161766
    21  C   -0.171687
    22  C   -0.218354
    23  C   -0.171258
    24  C    0.158934
    25  C   -0.173663
    26  C   -0.225674
    27  H    0.225780
    28  H    0.223255
    29  H    0.275446
    30  H    0.274526
    31  H    0.234665
    32  N    0.488189
    33  O   -0.460883
    34  O   -0.460480
 Sum of Mulliken charges =  -0.00000

 Dipole moment (field-independent basis, Debye):
    X=              0.6664    Y=              5.0252    Z=             -1.1873  Tot=              5.2064
 Quadrupole moment (field-independent basis, Debye-Ang):
   XX=            -91.2639   YY=           -100.2725   ZZ=            -95.6546
   XY=            -15.1092   XZ=              4.4400   YZ=             -0.1412

 Normal termination of Gaussian 16 at Thu May  6 17:12:11 2021.
