 Gaussian 16, Revision A.03,
 Gaussian 16:  EM64L-G16RevA.03 25-Dec-2016

 -------------
 #p 6-31g* mp2
 -------------

 ------------------------------------------------------
 Input file generated by CHIRIPA (05-May-2021 14:57:27)
 ------------------------------------------------------
 Symbolic Z-matrix:
 Charge =  0 Multiplicity = 1

                         Standard orientation:
 ---------------------------------------------------------------------
 Center     Atomic      Atomic             Coordinates (Angstroms)
 Number     Number       Type             X           Y           Z
 ---------------------------------------------------------------------
      1          6           0       -2.309051    1.429140    0.170512
      2          6           0       -2.241834    0.062234    0.459598
      3          6           0       -3.385475   -0.737773    0.378205
      4          6           0       -4.585220   -0.135231    0.002913
      5          6           0       -4.684310    1.223772   -0.291336
      6          6           0       -3.527926    2.004532   -0.203373
      7          1           0       -1.415694    2.043128    0.236292
      8          1           0       -1.296595   -0.387330    0.750220
      9          1           0       -3.361779   -1.798526    0.596514
     10          1           0       -5.640848    1.643399   -0.578331
     11          1           0       -3.583098    3.065823   -0.428457
     12          7           0       -5.802686   -0.971974   -0.086731
     13          8           0       -6.847610   -0.417056   -0.419653
     14          8           0       -5.688960   -2.166888    0.177624
     15          6           0        2.363120    1.497399    0.153943
     16          6           0        3.646027    2.053362    0.114245
     17          6           0        4.773236    1.231827    0.019225
     18          6           0        4.579993   -0.147696   -0.034280
     19          6           0        3.314767   -0.731724    0.003231
     20          6           0        2.201869    0.109078    0.098407
     21          1           0        1.493035    2.143070    0.227817
     22          1           0        3.774269    3.131208    0.157206
     23          1           0        5.777860    1.635670   -0.013309
     24          1           0        3.218685   -1.809776   -0.041374
     25          1           0        1.206746   -0.325475    0.129049
     26          7           0        5.765743   -1.027617   -0.134957
     27          8           0        5.568686   -2.239938   -0.180592
     28          8           0        6.869739   -0.488315   -0.166324
 ---------------------------------------------------------------------

 SCF Done:  E(RHF) =  -868.335829422     A.U. after   16 cycles
 E2 =    -0.2600147183D+01 EUMP2 =    -0.87093597660504D+03

 The electronic state is 1-A.
 Alpha  occ. eigenvalues --  -20.61347 -20.61342 -20.61331 -20.61325 -15.86408
 Alpha  occ. eigenvalues --  -15.86391 -11.31954 -11.31929 -11.28575 -11.28548
 Alpha  occ. eigenvalues --  -11.28525 -11.28498 -11.28470 -11.28436 -11.27743
 Alpha  occ. eigenvalues --  -11.27711 -11.27603 -11.27576  -1.60418  -1.60402
 Alpha  occ. eigenvalues --   -1.39967  -1.39951  -1.20168  -1.20140  -1.09562
 Alpha  occ. eigenvalues --   -1.09522  -1.05605  -1.05566  -0.96359  -0.96316
 Alpha  occ. eigenvalues --   -0.87054  -0.86941  -0.83198  -0.83132  -0.78201
 Alpha  occ. eigenvalues --   -0.78117  -0.72626  -0.72607  -0.71743  -0.71727
 Alpha  occ. eigenvalues --   -0.71460  -0.71197  -0.65902  -0.65817  -0.65797
 Alpha  occ. eigenvalues --   -0.65412  -0.63048  -0.62799  -0.56377  -0.55979
 Alpha  occ. eigenvalues --   -0.53920  -0.53887  -0.53848  -0.53539  -0.49410
 Alpha  occ. eigenvalues --   -0.49372  -0.49365  -0.49349  -0.45331  -0.45317
 Alpha  occ. eigenvalues --   -0.38197  -0.38151  -0.37189  -0.37156
 Alpha virt. eigenvalues --    0.04373   0.04404   0.10390   0.10491   0.15791
 Alpha virt. eigenvalues --    0.15837   0.16345   0.22416   0.22853   0.24803
 Alpha virt. eigenvalues --    0.27788   0.28702   0.30562   0.31321   0.33384

 Mulliken charges:
               1
     1  C   -0.171929
     2  C   -0.222563
     3  C   -0.169658
     4  C    0.159589
     5  C   -0.169315
     6  C   -0.218236
     7  H    0.218715
     8  H    0.220147
     9  H    0.278469
    10  H    0.278403
    11  H    0.225478
    12  N    0.487864
    13  O   -0.458186
    14  O   -0.458299
    15  C   -0.172563
    16  C   -0.218139
    17  C   -0.169500
    18  C    0.159604
    19  C   -0.170393
    20  C   -0.221416
    21  H    0.218879
    22  H    0.225451
    23  H    0.278257
    24  H    0.278329
    25  H    0.219820
    26  N    0.487891
    27  O   -0.458404
    28  O   -0.458296
 Sum of Mulliken charges =  -0.00000

 Dipole moment (field-independent basis, Debye):
    X=              0.0946    Y=              5.9960    Z=              0.6237  Tot=              6.0291
 Quadrupole moment (field-independent basis, Debye-Ang):
   XX=           -177.3659   YY=           -100.3046   ZZ=           -106.2179
   XY=              1.0329   XZ=              1.2300   YZ=             -1.4983

 Normal termination of Gaussian 16 at Fri May  7 06:39:16 2021.
