 Gaussian 16, Revision A.03,
 Gaussian 16:  EM64L-G16RevA.03 25-Dec-2016

 -------------
 #p 6-31g* mp2
 -------------

 ------------------------------------------------------
 Input file generated by CHIRIPA (05-May-2021 14:53:11)
 ------------------------------------------------------
 Symbolic Z-matrix:
 Charge =  0 Multiplicity = 1

                         Standard orientation:
 ---------------------------------------------------------------------
 Center     Atomic      Atomic             Coordinates (Angstroms)
 Number     Number       Type             X           Y           Z
 ---------------------------------------------------------------------
      1          6           0        4.428504   -0.301301   -0.198813
      2          6           0        5.848459    0.144300    0.152118
      3          6           0        6.884901   -0.325798   -0.868954
      4          1           0        4.402455   -1.397168   -0.271909
      5          1           0        4.165867    0.084642   -1.193531
      6          1           0        6.107829   -0.241208    1.146466
      7          1           0        5.871088    1.239222    0.224576
      8          1           0        6.653543    0.070306   -1.863024
      9          1           0        6.891629   -1.418535   -0.935897
     10          1           0        7.892956    0.003750   -0.598614
     11          6           0        3.381104    0.161023    0.812591
     12          6           0        1.961149   -0.284578    0.461660
     13          6           0        0.924706    0.185520    1.482732
     14          1           0        3.643741   -0.224921    1.807309
     15          1           0        3.407153    1.256890    0.885687
     16          1           0        1.938520   -1.379500    0.389202
     17          1           0        1.701779    0.100930   -0.532688
     18          1           0        0.917979    1.278257    1.549675
     19          1           0        1.156065   -0.210585    2.476802
     20          1           0       -0.083348   -0.144028    1.212392
     21          6           0       -2.448562    2.498376   -0.419647
     22          6           0       -3.633201    2.114371    0.217294
     23          6           0       -3.976881    0.763333    0.322784
     24          6           0       -3.108833   -0.181441   -0.222366
     25          6           0       -1.921508    0.169628   -0.862913
     26          6           0       -1.597996    1.526492   -0.956770
     27          1           0       -2.189417    3.550157   -0.497076
     28          1           0       -4.295668    2.866972    0.635355
     29          1           0       -4.887776    0.438233    0.810633
     30          1           0       -1.281211   -0.603541   -1.269910
     31          1           0       -0.677339    1.821799   -1.451975
     32          7           0       -3.461997   -1.614807   -0.116845
     33          8           0       -2.680291   -2.427786   -0.605352
     34          8           0       -4.513824   -1.898161    0.452370
 ---------------------------------------------------------------------

 SCF Done:  E(RHF) =  -669.534502775     A.U. after   15 cycles
 E2 =    -0.2092947064D+01 EUMP2 =    -0.67162744983959D+03

 The electronic state is 1-A.
 Alpha  occ. eigenvalues --  -20.60789 -20.60784 -15.85844 -11.31214 -11.27778
 Alpha  occ. eigenvalues --  -11.27759 -11.27519 -11.26792 -11.26776 -11.21977
 Alpha  occ. eigenvalues --  -11.21818 -11.21695 -11.21615 -11.21247 -11.21201
 Alpha  occ. eigenvalues --   -1.59866  -1.39419  -1.19395  -1.08782  -1.08706
 Alpha  occ. eigenvalues --   -1.04806  -1.03777  -0.96214  -0.95614  -0.87225
 Alpha  occ. eigenvalues --   -0.86190  -0.82446  -0.79853  -0.78524  -0.77493
 Alpha  occ. eigenvalues --   -0.72060  -0.71194  -0.70498  -0.65352  -0.65038
 Alpha  occ. eigenvalues --   -0.64789  -0.62167  -0.61173  -0.59614  -0.57857
 Alpha  occ. eigenvalues --   -0.55510  -0.55286  -0.53482  -0.52883  -0.52731
 Alpha  occ. eigenvalues --   -0.52381  -0.50146  -0.48820  -0.48815  -0.48163
 Alpha  occ. eigenvalues --   -0.46902  -0.46059  -0.45993  -0.44823  -0.44036
 Alpha  occ. eigenvalues --   -0.37368  -0.36298
 Alpha virt. eigenvalues --    0.05027   0.11164   0.16465   0.20318   0.22764
 Alpha virt. eigenvalues --    0.23991   0.25784   0.26680   0.27605   0.27998
 Alpha virt. eigenvalues --    0.28749   0.30087   0.31360   0.31539   0.32214

 Mulliken charges:
               1
     1  C   -0.298348
     2  C   -0.299787
     3  C   -0.475839
     4  H    0.152168
     5  H    0.147098
     6  H    0.153092
     7  H    0.150922
     8  H    0.154581
     9  H    0.156476
    10  H    0.160804
    11  C   -0.297841
    12  C   -0.301395
    13  C   -0.478087
    14  H    0.152364
    15  H    0.147339
    16  H    0.158575
    17  H    0.139758
    18  H    0.149834
    19  H    0.157326
    20  H    0.167067
    21  C   -0.171487
    22  C   -0.218112
    23  C   -0.171046
    24  C    0.160234
    25  C   -0.176988
    26  C   -0.212700
    27  H    0.225617
    28  H    0.223588
    29  H    0.275742
    30  H    0.277682
    31  H    0.224066
    32  N    0.488200
    33  O   -0.460674
    34  O   -0.460231
 Sum of Mulliken charges =  -0.00000

 Dipole moment (field-independent basis, Debye):
    X=              1.2401    Y=              5.0106    Z=             -0.3293  Tot=              5.1722
 Quadrupole moment (field-independent basis, Debye-Ang):
   XX=            -99.6808   YY=            -96.1643   ZZ=            -94.2273
   XY=            -17.4108   XZ=             -0.7576   YZ=             -1.0920

 Normal termination of Gaussian 16 at Wed May  5 20:05:45 2021.
