 Gaussian 16, Revision A.03,
 Gaussian 16:  EM64L-G16RevA.03 25-Dec-2016

 -------------
 #p 6-31g* mp2
 -------------

 ------------------------------------------------------
 Input file generated by CHIRIPA (05-May-2021 14:55:24)
 ------------------------------------------------------
 Symbolic Z-matrix:
 Charge =  0 Multiplicity = 1

                         Standard orientation:
 ---------------------------------------------------------------------
 Center     Atomic      Atomic             Coordinates (Angstroms)
 Number     Number       Type             X           Y           Z
 ---------------------------------------------------------------------
      1          6           0       -2.697453    1.826974    0.719699
      2          6           0       -3.166962    1.241337   -0.460603
      3          6           0       -2.828478   -0.076274   -0.782903
      4          6           0       -2.014912   -0.782377    0.101867
      5          6           0       -1.531393   -0.226712    1.285394
      6          6           0       -1.882604    1.092375    1.587401
      7          1           0       -2.965339    2.851099    0.962188
      8          1           0       -3.799943    1.809451   -1.136345
      9          1           0       -3.178071   -0.554201   -1.689980
     10          1           0       -0.902074   -0.818175    1.939265
     11          1           0       -1.516522    1.544615    2.504738
     12          7           0       -1.649838   -2.178054   -0.228596
     13          8           0       -0.931677   -2.778907    0.567556
     14          8           0       -2.088766   -2.644705   -1.277507
     15          6           0        2.509124    1.455860   -0.167634
     16          6           0        1.117873    1.823696   -0.684452
     17          6           0        0.838663    3.325276   -0.613078
     18          1           0        2.610453    1.800154    0.870701
     19          1           0        3.265039    1.998495   -0.752043
     20          1           0        0.364865    1.279467   -0.100150
     21          1           0        1.019776    1.478317   -1.721615
     22          1           0        1.567845    3.881549   -1.210955
     23          1           0        0.909212    3.681570    0.419723
     24          1           0       -0.161240    3.565937   -0.987426
     25          6           0        2.803083   -0.041838   -0.232575
     26          6           0        4.194334   -0.409674    0.284243
     27          6           0        4.473543   -1.911255    0.212869
     28          1           0        2.047168   -0.584473    0.351835
     29          1           0        2.701754   -0.386132   -1.270910
     30          1           0        4.292430   -0.064296    1.321406
     31          1           0        4.947342    0.134554   -0.300059
     32          1           0        4.402994   -2.267548   -0.819933
     33          1           0        3.744361   -2.467527    0.810746
     34          1           0        5.473447   -2.151915    0.587218
 ---------------------------------------------------------------------

 SCF Done:  E(RHF) =  -669.534523804     A.U. after   15 cycles
 E2 =    -0.2094768471D+01 EUMP2 =    -0.67162929227472D+03

 The electronic state is 1-A.
 Alpha  occ. eigenvalues --  -20.60865 -20.60860 -15.85914 -11.31306 -11.27884
 Alpha  occ. eigenvalues --  -11.27861 -11.27617 -11.26910 -11.26877 -11.21465
 Alpha  occ. eigenvalues --  -11.21385 -11.21342 -11.21319 -11.21173 -11.20678
 Alpha  occ. eigenvalues --   -1.59933  -1.39487  -1.19502  -1.08875  -1.08320
 Alpha  occ. eigenvalues --   -1.04910  -1.03420  -0.95893  -0.95702  -0.86904
 Alpha  occ. eigenvalues --   -0.86289  -0.82536  -0.79498  -0.78122  -0.77580
 Alpha  occ. eigenvalues --   -0.72132  -0.71252  -0.70584  -0.65140  -0.64990
 Alpha  occ. eigenvalues --   -0.64891  -0.62242  -0.60877  -0.59307  -0.57509
 Alpha  occ. eigenvalues --   -0.55385  -0.55210  -0.53295  -0.52982  -0.52552
 Alpha  occ. eigenvalues --   -0.52299  -0.49813  -0.48893  -0.48887  -0.47773
 Alpha  occ. eigenvalues --   -0.46490  -0.45653  -0.45579  -0.44856  -0.43680
 Alpha  occ. eigenvalues --   -0.37452  -0.36410
 Alpha virt. eigenvalues --    0.04930   0.11040   0.16403   0.21026   0.23076
 Alpha virt. eigenvalues --    0.24307   0.26299   0.27152   0.27547   0.27785
 Alpha virt. eigenvalues --    0.28769   0.30707   0.31532   0.31794   0.32106

 Mulliken charges:
               1
     1  C   -0.167707
     2  C   -0.217872
     3  C   -0.170718
     4  C    0.165124
     5  C   -0.179107
     6  C   -0.217666
     7  H    0.226897
     8  H    0.224292
     9  H    0.276233
    10  H    0.275793
    11  H    0.224410
    12  N    0.488453
    13  O   -0.460807
    14  O   -0.459682
    15  C   -0.297150
    16  C   -0.308888
    17  C   -0.473726
    18  H    0.144618
    19  H    0.148991
    20  H    0.163854
    21  H    0.151730
    22  H    0.156012
    23  H    0.148912
    24  H    0.154538
    25  C   -0.300012
    26  C   -0.299433
    27  C   -0.476447
    28  H    0.151215
    29  H    0.152301
    30  H    0.149047
    31  H    0.150760
    32  H    0.156987
    33  H    0.160626
    34  H    0.158421
 Sum of Mulliken charges =  -0.00000

 Dipole moment (field-independent basis, Debye):
    X=             -1.4349    Y=              4.7607    Z=              1.1501  Tot=              5.1035
 Quadrupole moment (field-independent basis, Debye-Ang):
   XX=            -88.7257   YY=           -104.5902   ZZ=            -90.2561
   XY=             -9.2174   XZ=             -0.3407   YZ=             -0.7031

 Normal termination of Gaussian 16 at Thu May  6 06:24:12 2021.
