 Gaussian 16, Revision A.03,
 Gaussian 16:  EM64L-G16RevA.03 25-Dec-2016

 -------------
 #p 6-31g* mp2
 -------------

 ------------------------------------------------------
 Input file generated by CHIRIPA (05-May-2021 14:57:23)
 ------------------------------------------------------
 Symbolic Z-matrix:
 Charge =  0 Multiplicity = 1

                         Standard orientation:
 ---------------------------------------------------------------------
 Center     Atomic      Atomic             Coordinates (Angstroms)
 Number     Number       Type             X           Y           Z
 ---------------------------------------------------------------------
      1          6           0        4.882081    1.130807   -0.386303
      2          6           0        3.670180    1.483605   -0.989089
      3          6           0        2.552090    0.652037   -0.875439
      4          6           0        2.681946   -0.530240   -0.148357
      5          6           0        3.875691   -0.909308    0.463665
      6          6           0        4.980794   -0.062420    0.336875
      7          1           0        5.745596    1.782739   -0.479693
      8          1           0        3.590604    2.409673   -1.551326
      9          1           0        1.601787    0.900838   -1.331992
     10          1           0        3.924312   -1.838856    1.017736
     11          1           0        5.920705   -0.338957    0.806066
     12          7           0        1.505148   -1.418693   -0.021085
     13          8           0        1.645474   -2.454880    0.624874
     14          8           0        0.464731   -1.062053   -0.569699
     15          6           0       -1.663409    2.421819    1.030915
     16          6           0       -1.545543    1.200883    1.703180
     17          6           0       -2.212862    0.065157    1.234821
     18          6           0       -2.993115    0.186786    0.086038
     19          6           0       -3.130380    1.389178   -0.605843
     20          6           0       -2.454059    2.511912   -0.119423
     21          1           0       -1.141523    3.299033    1.401763
     22          1           0       -0.932208    1.127969    2.596796
     23          1           0       -2.139113   -0.892455    1.735778
     24          1           0       -3.749084    1.430805   -1.494040
     25          1           0       -2.547430    3.458808   -0.643556
     26          7           0       -3.704342   -1.008680   -0.419353
     27          8           0       -4.385583   -0.875305   -1.433631
     28          8           0       -3.567094   -2.056423    0.208368
 ---------------------------------------------------------------------

 SCF Done:  E(RHF) =  -868.337268177     A.U. after   16 cycles
 E2 =    -0.2600842910D+01 EUMP2 =    -0.87093811108641D+03

 The electronic state is 1-A.
 Alpha  occ. eigenvalues --  -20.61075 -20.61038 -20.59742 -20.59689 -15.86093
 Alpha  occ. eigenvalues --  -15.84778 -11.31512 -11.30217 -11.28083 -11.28079
 Alpha  occ. eigenvalues --  -11.27837 -11.27116 -11.27095 -11.26941 -11.26814
 Alpha  occ. eigenvalues --  -11.26784 -11.26016 -11.25921  -1.60128  -1.58781
 Alpha  occ. eigenvalues --   -1.39679  -1.38336  -1.19691  -1.18461  -1.09077
 Alpha  occ. eigenvalues --   -1.07869  -1.05098  -1.03911  -0.95902  -0.94678
 Alpha  occ. eigenvalues --   -0.86491  -0.85319  -0.82732  -0.81526  -0.77772
 Alpha  occ. eigenvalues --   -0.76518  -0.72324  -0.71467  -0.71019  -0.70789
 Alpha  occ. eigenvalues --   -0.70070  -0.69657  -0.65340  -0.65096  -0.64156
 Alpha  occ. eigenvalues --   -0.63972  -0.62438  -0.61269  -0.55593  -0.54503
 Alpha  occ. eigenvalues --   -0.53435  -0.53185  -0.52211  -0.52045  -0.49081
 Alpha  occ. eigenvalues --   -0.49060  -0.47787  -0.47746  -0.45070  -0.43726
 Alpha  occ. eigenvalues --   -0.37685  -0.36720  -0.36471  -0.35444
 Alpha virt. eigenvalues --    0.04727   0.06071   0.10939   0.12173   0.16238
 Alpha virt. eigenvalues --    0.17465   0.21101   0.22062   0.27000   0.27957
 Alpha virt. eigenvalues --    0.28009   0.29000   0.30650   0.31554   0.32214

 Mulliken charges:
               1
     1  C   -0.170995
     2  C   -0.219400
     3  C   -0.171795
     4  C    0.157170
     5  C   -0.171477
     6  C   -0.218764
     7  H    0.226081
     8  H    0.222810
     9  H    0.276856
    10  H    0.276519
    11  H    0.224344
    12  N    0.487045
    13  O   -0.458998
    14  O   -0.458492
    15  C   -0.173574
    16  C   -0.222525
    17  C   -0.151411
    18  C    0.163962
    19  C   -0.170817
    20  C   -0.222023
    21  H    0.218957
    22  H    0.219018
    23  H    0.279977
    24  H    0.272773
    25  H    0.217342
    26  N    0.489253
    27  O   -0.466187
    28  O   -0.455651
 Sum of Mulliken charges =  -0.00000

 Dipole moment (field-independent basis, Debye):
    X=              6.7572    Y=              6.9856    Z=              1.3389  Tot=              9.8108
 Quadrupole moment (field-independent basis, Debye-Ang):
   XX=            -96.7863   YY=           -104.5299   ZZ=           -101.1611
   XY=             -8.3910   XZ=             -3.7804   YZ=             -4.1508

 Normal termination of Gaussian 16 at Wed May  5 17:52:00 2021.
