 Gaussian 16, Revision A.03,
 Gaussian 16:  EM64L-G16RevA.03 25-Dec-2016

 -------------
 #p 6-31g* mp2
 -------------

 ------------------------------------------------------
 Input file generated by CHIRIPA (05-May-2021 14:57:22)
 ------------------------------------------------------
 Symbolic Z-matrix:
 Charge =  0 Multiplicity = 1

                         Standard orientation:
 ---------------------------------------------------------------------
 Center     Atomic      Atomic             Coordinates (Angstroms)
 Number     Number       Type             X           Y           Z
 ---------------------------------------------------------------------
      1          6           0       -5.997499    0.091455    0.529882
      2          6           0       -5.160028   -0.666944    1.354500
      3          6           0       -3.803036   -0.809309    1.049778
      4          6           0       -3.314780   -0.176779   -0.092501
      5          6           0       -4.123769    0.585457   -0.933823
      6          6           0       -5.477613    0.714137   -0.609639
      7          1           0       -7.050420    0.196732    0.774157
      8          1           0       -5.561029   -1.151649    2.240109
      9          1           0       -3.132278   -1.390590    1.670756
     10          1           0       -3.695068    1.056807   -1.809872
     11          1           0       -6.125655    1.303732   -1.251873
     12          7           0       -1.879860   -0.320251   -0.425398
     13          8           0       -1.474158    0.246994   -1.437463
     14          8           0       -1.188043   -0.997233    0.332045
     15          6           0        4.295817   -2.242153   -0.234721
     16          6           0        5.148617   -1.307546    0.361737
     17          6           0        4.746573    0.022323    0.517808
     18          6           0        3.479292    0.384701    0.063965
     19          6           0        2.606847   -0.523153   -0.534307
     20          6           0        3.029887   -1.847669   -0.680055
     21          1           0        4.616290   -3.273149   -0.351950
     22          1           0        6.132310   -1.611072    0.708528
     23          1           0        5.386682    0.766441    0.976029
     24          1           0        1.632102   -0.190706   -0.870118
     25          1           0        2.365484   -2.571341   -1.143643
     26          7           0        3.042554    1.789740    0.223726
     27          8           0        1.921140    2.083772   -0.184456
     28          8           0        3.829922    2.570374    0.754103
 ---------------------------------------------------------------------

 SCF Done:  E(RHF) =  -868.340464020     A.U. after   16 cycles
 E2 =    -0.2599391637D+01 EUMP2 =    -0.87093985565752D+03

 The electronic state is 1-A.
 Alpha  occ. eigenvalues --  -20.61191 -20.61122 -20.59535 -20.59489 -15.86126
 Alpha  occ. eigenvalues --  -15.84563 -11.31309 -11.29797 -11.27863 -11.27833
 Alpha  occ. eigenvalues --  -11.27574 -11.26837 -11.26816 -11.26521 -11.26253
 Alpha  occ. eigenvalues --  -11.26146 -11.25532 -11.25321  -1.60180  -1.58600
 Alpha  occ. eigenvalues --   -1.39738  -1.38148  -1.19461  -1.18011  -1.08898
 Alpha  occ. eigenvalues --   -1.07462  -1.04836  -1.03376  -0.95763  -0.94290
 Alpha  occ. eigenvalues --   -0.86244  -0.84799  -0.82601  -0.81110  -0.77670
 Alpha  occ. eigenvalues --   -0.76137  -0.72351  -0.71451  -0.70789  -0.70575
 Alpha  occ. eigenvalues --   -0.69924  -0.69140  -0.65119  -0.64845  -0.63668
 Alpha  occ. eigenvalues --   -0.63400  -0.62184  -0.60687  -0.55358  -0.53973
 Alpha  occ. eigenvalues --   -0.53172  -0.52929  -0.51760  -0.51480  -0.49129
 Alpha  occ. eigenvalues --   -0.49097  -0.47566  -0.47517  -0.45170  -0.43584
 Alpha  occ. eigenvalues --   -0.37432  -0.36426  -0.36066  -0.34971
 Alpha virt. eigenvalues --    0.04867   0.06358   0.11232   0.12662   0.16394
 Alpha virt. eigenvalues --    0.17826   0.21361   0.22752   0.27291   0.28230
 Alpha virt. eigenvalues --    0.28689   0.29748   0.30949   0.32205   0.32492

 Mulliken charges:
               1
     1  C   -0.170038
     2  C   -0.218652
     3  C   -0.170307
     4  C    0.159872
     5  C   -0.169459
     6  C   -0.218650
     7  H    0.226279
     8  H    0.223732
     9  H    0.275063
    10  H    0.277497
    11  H    0.224553
    12  N    0.490595
    13  O   -0.457397
    14  O   -0.466195
    15  C   -0.171476
    16  C   -0.220556
    17  C   -0.172114
    18  C    0.153655
    19  C   -0.170786
    20  C   -0.221413
    21  H    0.220247
    22  H    0.217640
    23  H    0.270841
    24  H    0.298470
    25  H    0.224718
    26  N    0.487129
    27  O   -0.454965
    28  O   -0.468282
 Sum of Mulliken charges =  -0.00000

 Dipole moment (field-independent basis, Debye):
    X=             -4.1482    Y=             -4.3917    Z=              0.4834  Tot=              6.0603
 Quadrupole moment (field-independent basis, Debye-Ang):
   XX=            -59.1117   YY=           -108.6370   ZZ=           -101.8488
   XY=            -17.0611   XZ=             -2.8734   YZ=             -3.0809

 Normal termination of Gaussian 16 at Thu May  6 22:38:24 2021.
