 Gaussian 16, Revision A.03,
 Gaussian 16:  EM64L-G16RevA.03 25-Dec-2016

 -------------
 #p 6-31g* mp2
 -------------

 ------------------------------------------------------
 Input file generated by CHIRIPA (05-May-2021 14:57:22)
 ------------------------------------------------------
 Symbolic Z-matrix:
 Charge =  0 Multiplicity = 1

                         Standard orientation:
 ---------------------------------------------------------------------
 Center     Atomic      Atomic             Coordinates (Angstroms)
 Number     Number       Type             X           Y           Z
 ---------------------------------------------------------------------
      1          6           0        2.877330   -2.370547    0.710352
      2          6           0        2.938180   -1.973252   -0.629415
      3          6           0        2.970278   -0.616959   -0.967034
      4          6           0        2.939979    0.319460    0.065193
      5          6           0        2.879385   -0.044891    1.409390
      6          6           0        2.848179   -1.406797    1.723692
      7          1           0        2.852742   -3.426328    0.963566
      8          1           0        2.960935   -2.719512   -1.418479
      9          1           0        3.017414   -0.281606   -1.995983
     10          1           0        2.857924    0.722202    2.173933
     11          1           0        2.800925   -1.712429    2.765038
     12          7           0        2.973488    1.758278   -0.279887
     13          8           0        2.945762    2.563690    0.648110
     14          8           0        3.026844    2.053366   -1.471824
     15          6           0       -5.256063    0.685086    0.500146
     16          6           0       -4.179722    1.574792    0.580366
     17          6           0       -2.889071    1.160507    0.238113
     18          6           0       -2.710012   -0.156516   -0.182219
     19          6           0       -3.762111   -1.066577   -0.272589
     20          6           0       -5.044195   -0.630439    0.074674
     21          1           0       -6.255343    1.015401    0.767962
     22          1           0       -4.341298    2.597033    0.910462
     23          1           0       -2.037905    1.828442    0.291000
     24          1           0       -3.569829   -2.079425   -0.605130
     25          1           0       -5.878220   -1.323581    0.011409
     26          7           0       -1.348192   -0.606667   -0.547200
     27          8           0       -1.216794   -1.772176   -0.914571
     28          8           0       -0.437982    0.214535   -0.458988
 ---------------------------------------------------------------------

 SCF Done:  E(RHF) =  -868.338622670     A.U. after   16 cycles
 E2 =    -0.2600525302D+01 EUMP2 =    -0.87093914797141D+03

 The electronic state is 1-A.
 Alpha  occ. eigenvalues --  -20.61017 -20.60981 -20.59502 -20.59471 -15.86043
 Alpha  occ. eigenvalues --  -15.84531 -11.31282 -11.29599 -11.27868 -11.27792
 Alpha  occ. eigenvalues --  -11.27571 -11.26852 -11.26798 -11.26278 -11.26157
 Alpha  occ. eigenvalues --  -11.26009 -11.25312 -11.25179  -1.60066  -1.58553
 Alpha  occ. eigenvalues --   -1.39625  -1.38123  -1.19447  -1.17786  -1.08868
 Alpha  occ. eigenvalues --   -1.07264  -1.04828  -1.03212  -0.95724  -0.94150
 Alpha  occ. eigenvalues --   -0.86233  -0.84645  -0.82562  -0.81024  -0.77615
 Alpha  occ. eigenvalues --   -0.76078  -0.72307  -0.71378  -0.70794  -0.70555
 Alpha  occ. eigenvalues --   -0.69804  -0.69023  -0.65103  -0.64830  -0.63512
 Alpha  occ. eigenvalues --   -0.63299  -0.62171  -0.60618  -0.55345  -0.53807
 Alpha  occ. eigenvalues --   -0.53172  -0.52918  -0.51576  -0.51377  -0.49022
 Alpha  occ. eigenvalues --   -0.48892  -0.47544  -0.47515  -0.45055  -0.43603
 Alpha  occ. eigenvalues --   -0.37429  -0.36428  -0.35707  -0.34741
 Alpha virt. eigenvalues --    0.04903   0.06501   0.11227   0.12890   0.16423
 Alpha virt. eigenvalues --    0.18036   0.21388   0.22725   0.27313   0.28281
 Alpha virt. eigenvalues --    0.28604   0.29604   0.30950   0.32179   0.32541

 Mulliken charges:
               1
     1  C   -0.168363
     2  C   -0.210618
     3  C   -0.157306
     4  C    0.174716
     5  C   -0.171253
     6  C   -0.219993
     7  H    0.219725
     8  H    0.219661
     9  H    0.271596
    10  H    0.268263
    11  H    0.215504
    12  N    0.488799
    13  O   -0.469282
    14  O   -0.463157
    15  C   -0.170494
    16  C   -0.218893
    17  C   -0.171071
    18  C    0.157319
    19  C   -0.171223
    20  C   -0.218805
    21  H    0.226107
    22  H    0.225623
    23  H    0.280464
    24  H    0.273858
    25  H    0.223074
    26  N    0.490986
    27  O   -0.464331
    28  O   -0.460906
 Sum of Mulliken charges =  -0.00000

 Dipole moment (field-independent basis, Debye):
    X=             -5.1936    Y=             -3.4480    Z=              2.3195  Tot=              6.6515
 Quadrupole moment (field-independent basis, Debye-Ang):
   XX=            -80.9867   YY=           -105.3121   ZZ=           -101.4404
   XY=            -17.2214   XZ=              0.4737   YZ=              2.1565

 Normal termination of Gaussian 16 at Wed May  5 16:17:11 2021.
