 Gaussian 16, Revision A.03,
 Gaussian 16:  EM64L-G16RevA.03 25-Dec-2016

 -------------
 #p 6-31g* mp2
 -------------

 ------------------------------------------------------
 Input file generated by CHIRIPA (05-May-2021 14:55:20)
 ------------------------------------------------------
 Symbolic Z-matrix:
 Charge =  0 Multiplicity = 1

                         Standard orientation:
 ---------------------------------------------------------------------
 Center     Atomic      Atomic             Coordinates (Angstroms)
 Number     Number       Type             X           Y           Z
 ---------------------------------------------------------------------
      1          6           0        1.531649    1.292576   -0.653122
      2          6           0        1.453069   -0.081052   -0.401143
      3          6           0        2.610057   -0.823671   -0.147288
      4          6           0        3.834593   -0.157512   -0.153140
      5          6           0        3.945526    1.209846   -0.400762
      6          6           0        2.775434    1.932513   -0.652129
      7          1           0        0.627782    1.861710   -0.849357
      8          1           0        0.488486   -0.580678   -0.401281
      9          1           0        2.578025   -1.888165    0.050814
     10          1           0        4.921374    1.680051   -0.393956
     11          1           0        2.839479    2.999177   -0.847503
     12          7           0        5.066381   -0.933127    0.114288
     13          8           0        6.133122   -0.322730    0.103504
     14          8           0        4.941792   -2.136767    0.329619
     15          6           0       -4.115365    0.583398    0.295016
     16          6           0       -2.926060    0.201376    1.176832
     17          6           0       -1.868088    1.302660    1.252091
     18          1           0       -3.754138    0.816509   -0.715982
     19          1           0       -4.570664    1.504532    0.684385
     20          1           0       -2.473985   -0.719527    0.786725
     21          1           0       -3.290182   -0.031039    2.185799
     22          1           0       -2.297834    2.222331    1.662120
     23          1           0       -1.477000    1.529932    0.255097
     24          1           0       -1.026929    1.008538    1.887547
     25          6           0       -5.181479   -0.507416    0.209855
     26          6           0       -6.370784   -0.125393   -0.671961
     27          6           0       -7.428755   -1.226677   -0.747220
     28          1           0       -4.726179   -1.428550   -0.179514
     29          1           0       -5.542706   -0.740527    1.220854
     30          1           0       -6.006661    0.107021   -1.680927
     31          1           0       -6.822858    0.795510   -0.281853
     32          1           0       -7.819844   -1.453949    0.249775
     33          1           0       -6.999010   -2.146349   -1.157248
     34          1           0       -8.269913   -0.932556   -1.382676
 ---------------------------------------------------------------------

 SCF Done:  E(RHF) =  -669.535145354     A.U. after   15 cycles
 E2 =    -0.2091525612D+01 EUMP2 =    -0.67162667096540D+03

 The electronic state is 1-A.
 Alpha  occ. eigenvalues --  -20.60724 -20.60719 -15.85778 -11.31130 -11.27704
 Alpha  occ. eigenvalues --  -11.27700 -11.27411 -11.26705 -11.26693 -11.22589
 Alpha  occ. eigenvalues --  -11.22222 -11.22209 -11.22152 -11.22024 -11.21519
 Alpha  occ. eigenvalues --   -1.59800  -1.39354  -1.19303  -1.09200  -1.08697
 Alpha  occ. eigenvalues --   -1.04708  -1.04311  -0.96770  -0.95533  -0.87788
 Alpha  occ. eigenvalues --   -0.86098  -0.82371  -0.80386  -0.78975  -0.77419
 Alpha  occ. eigenvalues --   -0.71996  -0.71123  -0.70434  -0.65851  -0.64954
 Alpha  occ. eigenvalues --   -0.64714  -0.62097  -0.61669  -0.60133  -0.58362
 Alpha  occ. eigenvalues --   -0.56129  -0.55182  -0.53479  -0.53166  -0.52996
 Alpha  occ. eigenvalues --   -0.52788  -0.50702  -0.48757  -0.48751  -0.48684
 Alpha  occ. eigenvalues --   -0.47422  -0.46523  -0.46429  -0.44762  -0.44542
 Alpha  occ. eigenvalues --   -0.37259  -0.36311
 Alpha virt. eigenvalues --    0.05113   0.11292   0.16591   0.19333   0.22502
 Alpha virt. eigenvalues --    0.23761   0.25335   0.25669   0.26809   0.27770
 Alpha virt. eigenvalues --    0.28697   0.29734   0.30907   0.31510   0.31883

 Mulliken charges:
               1
     1  C   -0.171169
     2  C   -0.220497
     3  C   -0.171677
     4  C    0.158270
     5  C   -0.170919
     6  C   -0.219323
     7  H    0.228728
     8  H    0.225435
     9  H    0.275359
    10  H    0.275362
    11  H    0.223403
    12  N    0.488098
    13  O   -0.460602
    14  O   -0.460673
    15  C   -0.298400
    16  C   -0.301055
    17  C   -0.479764
    18  H    0.147212
    19  H    0.151887
    20  H    0.148013
    21  H    0.157519
    22  H    0.160401
    23  H    0.143062
    24  H    0.166622
    25  C   -0.298752
    26  C   -0.300129
    27  C   -0.476121
    28  H    0.149551
    29  H    0.151707
    30  H    0.151801
    31  H    0.152845
    32  H    0.156253
    33  H    0.155769
    34  H    0.161784
 Sum of Mulliken charges =  -0.00000

 Dipole moment (field-independent basis, Debye):
    X=             -4.5568    Y=              2.7468    Z=             -0.8569  Tot=              5.3892
 Quadrupole moment (field-independent basis, Debye-Ang):
   XX=           -126.7603   YY=            -92.6768   ZZ=            -94.4720
   XY=             13.1236   XZ=             -4.0239   YZ=             -0.4831

 Normal termination of Gaussian 16 at Thu May  6 14:07:09 2021.
