 Gaussian 16, Revision A.03,
 Gaussian 16:  EM64L-G16RevA.03 25-Dec-2016

 -------------
 #p 6-31g* mp2
 -------------

 ------------------------------------------------------
 Input file generated by CHIRIPA (05-May-2021 14:55:26)
 ------------------------------------------------------
 Symbolic Z-matrix:
 Charge =  0 Multiplicity = 1

                         Standard orientation:
 ---------------------------------------------------------------------
 Center     Atomic      Atomic             Coordinates (Angstroms)
 Number     Number       Type             X           Y           Z
 ---------------------------------------------------------------------
      1          6           0        4.000963    0.666108    0.340954
      2          6           0        3.817589   -0.142151   -0.785817
      3          6           0        2.668236   -0.927212   -0.917023
      4          6           0        1.718369   -0.879545    0.102178
      5          6           0        1.872265   -0.084468    1.236841
      6          6           0        3.029428    0.692324    1.346913
      7          1           0        4.896842    1.272750    0.434669
      8          1           0        4.570422   -0.164504   -1.568625
      9          1           0        2.500858   -1.561949   -1.778714
     10          1           0        1.104166   -0.083185    2.000674
     11          1           0        3.169174    1.319084    2.223091
     12          7           0        0.497466   -1.706276   -0.025537
     13          8           0       -0.324478   -1.646552    0.886318
     14          8           0        0.385584   -2.398337   -1.035076
     15          6           0       -2.965958    0.447276   -0.422905
     16          6           0       -3.957675   -0.028953    0.639023
     17          6           0       -4.969360   -1.037146    0.093281
     18          1           0       -3.520446    0.897348   -1.257724
     19          1           0       -2.433766   -0.421896   -0.833644
     20          1           0       -4.486853    0.841000    1.048618
     21          1           0       -3.400751   -0.477772    1.471497
     22          1           0       -4.458074   -1.922635   -0.297998
     23          1           0       -5.550347   -0.596371   -0.723280
     24          1           0       -5.668620   -1.364264    0.869096
     25          6           0       -1.948188    1.455544    0.107443
     26          6           0       -0.956472    1.931774   -0.954484
     27          6           0        0.055213    2.939967   -0.408742
     28          1           0       -2.480381    2.324716    0.518182
     29          1           0       -1.393701    1.005472    0.942262
     30          1           0       -1.513396    2.380592   -1.786959
     31          1           0       -0.427293    1.061822   -1.364080
     32          1           0        0.636200    2.499192    0.407818
     33          1           0       -0.456073    3.825456   -0.017463
     34          1           0        0.754474    3.267085   -1.184558
 ---------------------------------------------------------------------

 SCF Done:  E(RHF) =  -669.535623254     A.U. after   15 cycles
 E2 =    -0.2096084878D+01 EUMP2 =    -0.67163170813235D+03

 The electronic state is 1-A.
 Alpha  occ. eigenvalues --  -20.61123 -20.61115 -15.86121 -11.31388 -11.27948
 Alpha  occ. eigenvalues --  -11.27940 -11.27659 -11.26935 -11.26924 -11.21194
 Alpha  occ. eigenvalues --  -11.20848 -11.20599 -11.20446 -11.20233 -11.19976
 Alpha  occ. eigenvalues --   -1.60169  -1.39726  -1.19560  -1.08968  -1.07588
 Alpha  occ. eigenvalues --   -1.04950  -1.02765  -0.95821  -0.95222  -0.86349
 Alpha  occ. eigenvalues --   -0.86252  -0.82659  -0.78886  -0.77746  -0.77315
 Alpha  occ. eigenvalues --   -0.72355  -0.71533  -0.70660  -0.65221  -0.64944
 Alpha  occ. eigenvalues --   -0.64147  -0.62294  -0.60191  -0.58649  -0.56833
 Alpha  occ. eigenvalues --   -0.55442  -0.54668  -0.53109  -0.53033  -0.51978
 Alpha  occ. eigenvalues --   -0.51640  -0.49354  -0.49106  -0.48964  -0.47188
 Alpha  occ. eigenvalues --   -0.46008  -0.45216  -0.44786  -0.44614  -0.42980
 Alpha  occ. eigenvalues --   -0.37497  -0.36472
 Alpha virt. eigenvalues --    0.04738   0.11039   0.16174   0.20968   0.23386
 Alpha virt. eigenvalues --    0.25048   0.26263   0.27297   0.27871   0.28587
 Alpha virt. eigenvalues --    0.29125   0.31117   0.31936   0.32025   0.32230

 Mulliken charges:
               1
     1  C   -0.169483
     2  C   -0.218027
     3  C   -0.171603
     4  C    0.160514
     5  C   -0.172193
     6  C   -0.217320
     7  H    0.226719
     8  H    0.224349
     9  H    0.276301
    10  H    0.276607
    11  H    0.224957
    12  N    0.489991
    13  O   -0.459703
    14  O   -0.458775
    15  C   -0.298653
    16  C   -0.300106
    17  C   -0.476821
    18  H    0.142967
    19  H    0.164808
    20  H    0.144101
    21  H    0.162145
    22  H    0.163227
    23  H    0.150153
    24  H    0.156126
    25  C   -0.303020
    26  C   -0.300232
    27  C   -0.476583
    28  H    0.144451
    29  H    0.154442
    30  H    0.152208
    31  H    0.147298
    32  H    0.151521
    33  H    0.153315
    34  H    0.156321
 Sum of Mulliken charges =  -0.00000

 Dipole moment (field-independent basis, Debye):
    X=              4.5325    Y=              2.6106    Z=              0.4939  Tot=              5.2539
 Quadrupole moment (field-independent basis, Debye-Ang):
   XX=            -80.6184   YY=           -100.4125   ZZ=            -90.9698
   XY=              0.0987   XZ=             -0.4767   YZ=              1.4162

 Normal termination of Gaussian 16 at Thu May  6 11:09:00 2021.
