 Gaussian 16, Revision A.03,
 Gaussian 16:  EM64L-G16RevA.03 25-Dec-2016

 -------------
 #p 6-31g* mp2
 -------------

 ------------------------------------------------------
 Input file generated by CHIRIPA (05-May-2021 14:51:08)
 ------------------------------------------------------
 Symbolic Z-matrix:
 Charge =  0 Multiplicity = 1

                         Standard orientation:
 ---------------------------------------------------------------------
 Center     Atomic      Atomic             Coordinates (Angstroms)
 Number     Number       Type             X           Y           Z
 ---------------------------------------------------------------------
      1          6           0        2.603695   -0.865491   -0.187363
      2          6           0        3.047833    0.125998    0.888591
      3          6           0        4.368437    0.816748    0.547032
      4          1           0        3.388871   -1.621046   -0.327297
      5          1           0        2.504775   -0.336384   -1.145306
      6          1           0        3.144549   -0.404544    1.844513
      7          1           0        2.261426    0.879169    1.026115
      8          1           0        4.281455    1.370856   -0.393181
      9          1           0        5.169596    0.079850    0.429868
     10          1           0        4.667195    1.521173    1.329584
     11          6           0        1.285094   -1.564072    0.139751
     12          6           0        0.840957   -2.555561   -0.936202
     13          6           0       -0.479647   -3.246311   -0.594643
     14          1           0        1.384015   -2.093180    1.097694
     15          1           0        0.499919   -0.808518    0.279685
     16          1           0        1.627364   -3.308733   -1.073727
     17          1           0        0.744241   -2.025020   -1.892125
     18          1           0       -1.280806   -2.509414   -0.477479
     19          1           0       -0.392665   -3.800420    0.345569
     20          1           0       -0.778405   -3.950737   -1.377196
     21          6           0       -2.452884    0.683146   -0.181705
     22          6           0       -2.978533   -0.140055    0.994738
     23          6           0       -3.994902   -1.199472    0.567629
     24          1           0       -3.298482    1.167608   -0.688860
     25          1           0       -1.993100    0.007730   -0.916421
     26          1           0       -3.435957    0.536851    1.727662
     27          1           0       -2.131566   -0.622458    1.499267
     28          1           0       -3.546468   -1.897806   -0.146399
     29          1           0       -4.858270   -0.731910    0.083293
     30          1           0       -4.357566   -1.776265    1.424161
     31          6           0       -1.435906    1.746417    0.229316
     32          6           0       -0.910257    2.569619   -0.947126
     33          6           0        0.106112    3.629036   -0.520018
     34          1           0       -1.895690    2.421833    0.964032
     35          1           0       -0.590308    1.261956    0.736471
     36          1           0       -1.757224    3.052023   -1.451655
     37          1           0       -0.452833    1.892713   -1.680051
     38          1           0        0.969481    3.161473   -0.035682
     39          1           0       -0.342322    4.327370    0.194010
     40          1           0        0.468775    4.205830   -1.376549
 ---------------------------------------------------------------------

 SCF Done:  E(RHF) =  -470.732225593     A.U. after   11 cycles
 E2 =    -0.1586211508D+01 EUMP2 =    -0.47231843710112D+03

 The electronic state is 1-A.
 Alpha  occ. eigenvalues --  -11.21673 -11.21672 -11.21660 -11.21619 -11.21465
 Alpha  occ. eigenvalues --  -11.21460 -11.21405 -11.21398 -11.21132 -11.21112
 Alpha  occ. eigenvalues --  -11.21097 -11.21054  -1.08569  -1.08428  -1.03638
 Alpha  occ. eigenvalues --   -1.03532  -0.96090  -0.95976  -0.87071  -0.87027
 Alpha  occ. eigenvalues --   -0.79663  -0.79636  -0.78416  -0.78220  -0.65652
 Alpha  occ. eigenvalues --   -0.64663  -0.61342  -0.60682  -0.59411  -0.59374
 Alpha  occ. eigenvalues --   -0.57665  -0.57630  -0.55647  -0.55034  -0.52733
 Alpha  occ. eigenvalues --   -0.52711  -0.52516  -0.52363  -0.50034  -0.49930
 Alpha  occ. eigenvalues --   -0.48122  -0.47803  -0.46785  -0.46680  -0.46328
 Alpha  occ. eigenvalues --   -0.45811  -0.45721  -0.45161  -0.43841  -0.43826
 Alpha virt. eigenvalues --    0.18754   0.20987   0.24033   0.24805   0.25330
 Alpha virt. eigenvalues --    0.26082   0.26892   0.27957   0.28750   0.29922
 Alpha virt. eigenvalues --    0.31034   0.31467   0.31684   0.31916   0.32392

 Mulliken charges:
               1
     1  C   -0.297794
     2  C   -0.305172
     3  C   -0.475860
     4  H    0.150211
     5  H    0.149426
     6  H    0.152407
     7  H    0.155452
     8  H    0.155638
     9  H    0.155529
    10  H    0.160618
    11  C   -0.308898
    12  C   -0.298715
    13  C   -0.485407
    14  H    0.149580
    15  H    0.159819
    16  H    0.152400
    17  H    0.151286
    18  H    0.164616
    19  H    0.155629
    20  H    0.160487
    21  C   -0.301843
    22  C   -0.302823
    23  C   -0.479299
    24  H    0.150788
    25  H    0.150611
    26  H    0.152847
    27  H    0.154291
    28  H    0.158690
    29  H    0.155182
    30  H    0.160762
    31  C   -0.305194
    32  C   -0.299510
    33  C   -0.479002
    34  H    0.150598
    35  H    0.154731
    36  H    0.152575
    37  H    0.151324
    38  H    0.157745
    39  H    0.155679
    40  H    0.160596
 Sum of Mulliken charges =  -0.00000

 Dipole moment (field-independent basis, Debye):
    X=             -0.0065    Y=              0.0032    Z=              0.0155  Tot=              0.0171
 Quadrupole moment (field-independent basis, Debye-Ang):
   XX=            -85.2964   YY=            -84.7163   ZZ=            -84.5764
   XY=             -2.0429   XZ=              0.1324   YZ=             -0.3476

 Normal termination of Gaussian 16 at Wed May  5 22:56:33 2021.
