 Gaussian 16, Revision A.03,
 Gaussian 16:  EM64L-G16RevA.03 25-Dec-2016

 -------------
 #p 6-31g* mp2
 -------------

 ------------------------------------------------------
 Input file generated by CHIRIPA (05-May-2021 14:53:15)
 ------------------------------------------------------
 Symbolic Z-matrix:
 Charge =  0 Multiplicity = 1

                         Standard orientation:
 ---------------------------------------------------------------------
 Center     Atomic      Atomic             Coordinates (Angstroms)
 Number     Number       Type             X           Y           Z
 ---------------------------------------------------------------------
      1          6           0       -4.634726   -0.353741   -0.165370
      2          6           0       -4.412254   -1.865553   -0.111399
      3          6           0       -5.716717   -2.658482   -0.197623
      4          1           0       -5.300362   -0.057897    0.657036
      5          1           0       -5.158068   -0.100213   -1.097696
      6          1           0       -3.888258   -2.115995    0.819903
      7          1           0       -3.746917   -2.157806   -0.933914
      8          1           0       -6.240633   -2.437680   -1.133229
      9          1           0       -6.382777   -2.395631    0.630553
     10          1           0       -5.534424   -3.736905   -0.157222
     11          6           0       -3.339975    0.452547   -0.080247
     12          6           0       -3.562447    1.964360   -0.134218
     13          6           0       -2.257984    2.757289   -0.047994
     14          1           0       -2.816633    0.199020    0.852079
     15          1           0       -2.674339    0.156704   -0.902653
     16          1           0       -4.227784    2.256613    0.688297
     17          1           0       -4.086443    2.214801   -1.065520
     18          1           0       -1.591924    2.494438   -0.876170
     19          1           0       -1.734068    2.536486    0.887612
     20          1           0       -2.440277    3.835712   -0.088395
     21          6           0        1.399948    1.755288    0.549920
     22          6           0        1.402561    0.580942    1.309805
     23          6           0        2.348222   -0.419728    1.067042
     24          6           0        3.280933   -0.212023    0.052055
     25          6           0        3.304083    0.946989   -0.722185
     26          6           0        2.349044    1.934248   -0.461866
     27          1           0        0.661693    2.527424    0.745324
     28          1           0        0.666674    0.439240    2.096212
     29          1           0        2.372969   -1.338591    1.640188
     30          1           0        4.050221    1.059588   -1.499371
     31          1           0        2.349396    2.845241   -1.053589
     32          7           0        4.287027   -1.264289   -0.214241
     33          8           0        5.098137   -1.057107   -1.114137
     34          8           0        4.245442   -2.276312    0.481977
 ---------------------------------------------------------------------

 SCF Done:  E(RHF) =  -669.535225291     A.U. after   15 cycles
 E2 =    -0.2091402719D+01 EUMP2 =    -0.67162662801013D+03

 The electronic state is 1-A.
 Alpha  occ. eigenvalues --  -20.60706 -20.60701 -15.85761 -11.31102 -11.27685
 Alpha  occ. eigenvalues --  -11.27681 -11.27340 -11.26677 -11.26664 -11.22468
 Alpha  occ. eigenvalues --  -11.22270 -11.22103 -11.22031 -11.21910 -11.21405
 Alpha  occ. eigenvalues --   -1.59783  -1.39337  -1.19277  -1.09091  -1.08666
 Alpha  occ. eigenvalues --   -1.04681  -1.04221  -0.96704  -0.95503  -0.87730
 Alpha  occ. eigenvalues --   -0.86076  -0.82347  -0.80307  -0.78863  -0.77400
 Alpha  occ. eigenvalues --   -0.71978  -0.71107  -0.70381  -0.65719  -0.64925
 Alpha  occ. eigenvalues --   -0.64690  -0.62036  -0.61615  -0.60074  -0.58310
 Alpha  occ. eigenvalues --   -0.56020  -0.55212  -0.53378  -0.53136  -0.52911
 Alpha  occ. eigenvalues --   -0.52771  -0.50647  -0.48744  -0.48735  -0.48577
 Alpha  occ. eigenvalues --   -0.47317  -0.46412  -0.46311  -0.44748  -0.44454
 Alpha  occ. eigenvalues --   -0.37224  -0.36294
 Alpha virt. eigenvalues --    0.05131   0.11330   0.16590   0.20329   0.22377
 Alpha virt. eigenvalues --    0.23831   0.25380   0.26204   0.26772   0.27725
 Alpha virt. eigenvalues --    0.28977   0.30477   0.30576   0.31174   0.31813

 Mulliken charges:
               1
     1  C   -0.298931
     2  C   -0.300062
     3  C   -0.476145
     4  H    0.150174
     5  H    0.151195
     6  H    0.151152
     7  H    0.153896
     8  H    0.156041
     9  H    0.155334
    10  H    0.162242
    11  C   -0.298122
    12  C   -0.299866
    13  C   -0.480002
    14  H    0.144980
    15  H    0.152880
    16  H    0.154172
    17  H    0.155802
    18  H    0.157685
    19  H    0.145128
    20  H    0.163296
    21  C   -0.171760
    22  C   -0.220426
    23  C   -0.170822
    24  C    0.157947
    25  C   -0.170744
    26  C   -0.221363
    27  H    0.233844
    28  H    0.222232
    29  H    0.275214
    30  H    0.275178
    31  H    0.223280
    32  N    0.488113
    33  O   -0.460776
    34  O   -0.460766
 Sum of Mulliken charges =  -0.00000

 Dipole moment (field-independent basis, Debye):
    X=             -3.7610    Y=              3.6908    Z=              0.8619  Tot=              5.3395
 Quadrupole moment (field-independent basis, Debye-Ang):
   XX=           -118.1426   YY=            -95.6712   ZZ=            -91.3664
   XY=             13.6958   XZ=              1.3148   YZ=             -2.4821

 Normal termination of Gaussian 16 at Thu May  6 15:28:44 2021.
