 Gaussian 16, Revision A.03,
 Gaussian 16:  EM64L-G16RevA.03 25-Dec-2016

 -------------
 #p 6-31g* mp2
 -------------

 ------------------------------------------------------
 Input file generated by CHIRIPA (05-May-2021 14:53:13)
 ------------------------------------------------------
 Symbolic Z-matrix:
 Charge =  0 Multiplicity = 1

                         Standard orientation:
 ---------------------------------------------------------------------
 Center     Atomic      Atomic             Coordinates (Angstroms)
 Number     Number       Type             X           Y           Z
 ---------------------------------------------------------------------
      1          6           0       -3.697790   -0.535978   -0.488892
      2          6           0       -3.070548   -1.893497   -0.169999
      3          6           0       -3.964394   -3.066889   -0.572473
      4          1           0       -4.664707   -0.455822    0.026464
      5          1           0       -3.911947   -0.482615   -1.565314
      6          1           0       -2.856367   -1.943748    0.905277
      7          1           0       -2.104923   -1.970353   -0.686020
      8          1           0       -4.168207   -3.044736   -1.647913
      9          1           0       -4.923920   -3.017980   -0.047575
     10          1           0       -3.496658   -4.027589   -0.335537
     11          6           0       -2.816152    0.646896   -0.092340
     12          6           0       -3.443394    2.004415   -0.411233
     13          6           0       -2.549549    3.177807   -0.008759
     14          1           0       -2.601995    0.593533    0.984081
     15          1           0       -1.849235    0.566740   -0.607696
     16          1           0       -4.409019    2.081271    0.104788
     17          1           0       -3.657576    2.054666   -1.486509
     18          1           0       -1.590023    3.128898   -0.533658
     19          1           0       -2.345736    3.155654    1.066681
     20          1           0       -3.017284    4.138508   -0.245695
     21          6           0        0.407804    0.179111    1.550272
     22          6           0        0.872200    1.253764    0.784782
     23          6           0        2.054845    1.141776    0.047654
     24          6           0        2.751077   -0.064832    0.099119
     25          6           0        2.314205   -1.153479    0.852299
     26          6           0        1.129016   -1.018969    1.581532
     27          1           0       -0.511892    0.274854    2.119825
     28          1           0        0.314163    2.185406    0.758626
     29          1           0        2.437148    1.957904   -0.553343
     30          1           0        2.892248   -2.069584    0.858569
     31          1           0        0.770747   -1.855219    2.175143
     32          7           0        4.004437   -0.195311   -0.677067
     33          8           0        4.599447   -1.268973   -0.615006
     34          8           0        4.368079    0.778552   -1.332804
 ---------------------------------------------------------------------

 SCF Done:  E(RHF) =  -669.534130767     A.U. after   15 cycles
 E2 =    -0.2093899424D+01 EUMP2 =    -0.67162803019066D+03

 The electronic state is 1-A.
 Alpha  occ. eigenvalues --  -20.60709 -20.60704 -15.85763 -11.31099 -11.27687
 Alpha  occ. eigenvalues --  -11.27671 -11.27369 -11.26672 -11.26598 -11.22516
 Alpha  occ. eigenvalues --  -11.22320 -11.22292 -11.22228 -11.22117 -11.21641
 Alpha  occ. eigenvalues --   -1.59786  -1.39341  -1.19279  -1.09295  -1.08660
 Alpha  occ. eigenvalues --   -1.04685  -1.04370  -0.96843  -0.95512  -0.87860
 Alpha  occ. eigenvalues --   -0.86078  -0.82349  -0.80455  -0.79129  -0.77391
 Alpha  occ. eigenvalues --   -0.71981  -0.71111  -0.70392  -0.65907  -0.64924
 Alpha  occ. eigenvalues --   -0.64692  -0.62066  -0.61753  -0.60183  -0.58478
 Alpha  occ. eigenvalues --   -0.56152  -0.55192  -0.53522  -0.53374  -0.53003
 Alpha  occ. eigenvalues --   -0.52654  -0.50779  -0.48796  -0.48739  -0.48685
 Alpha  occ. eigenvalues --   -0.47467  -0.46622  -0.46520  -0.44753  -0.44613
 Alpha  occ. eigenvalues --   -0.37167  -0.36274
 Alpha virt. eigenvalues --    0.05124   0.11253   0.16536   0.19663   0.22549
 Alpha virt. eigenvalues --    0.23374   0.24578   0.26082   0.26643   0.28580
 Alpha virt. eigenvalues --    0.29794   0.30232   0.30908   0.31249   0.31669

 Mulliken charges:
               1
     1  C   -0.298323
     2  C   -0.300342
     3  C   -0.476052
     4  H    0.150563
     5  H    0.153296
     6  H    0.144343
     7  H    0.156433
     8  H    0.157972
     9  H    0.155831
    10  H    0.161277
    11  C   -0.303590
    12  C   -0.298940
    13  C   -0.481400
    14  H    0.137842
    15  H    0.158925
    16  H    0.154508
    17  H    0.156830
    18  H    0.153447
    19  H    0.149702
    20  H    0.167409
    21  C   -0.167491
    22  C   -0.224379
    23  C   -0.173583
    24  C    0.158165
    25  C   -0.171226
    26  C   -0.220061
    27  H    0.227361
    28  H    0.231601
    29  H    0.275140
    30  H    0.275207
    31  H    0.223108
    32  N    0.488107
    33  O   -0.460844
    34  O   -0.460837
 Sum of Mulliken charges =  -0.00000

 Dipole moment (field-independent basis, Debye):
    X=             -4.6098    Y=              0.4516    Z=              2.6004  Tot=              5.3119
 Quadrupole moment (field-independent basis, Debye-Ang):
   XX=           -119.5477   YY=            -91.1757   ZZ=            -93.5563
   XY=              0.3870   XZ=              7.2437   YZ=             -2.1767

 Normal termination of Gaussian 16 at Wed May  5 23:23:54 2021.
