 Gaussian 16, Revision A.03,
 Gaussian 16:  EM64L-G16RevA.03 25-Dec-2016

 -------------
 #p 6-31g* mp2
 -------------

 ------------------------------------------------------
 Input file generated by CHIRIPA (05-May-2021 14:55:23)
 ------------------------------------------------------
 Symbolic Z-matrix:
 Charge =  0 Multiplicity = 1

                         Standard orientation:
 ---------------------------------------------------------------------
 Center     Atomic      Atomic             Coordinates (Angstroms)
 Number     Number       Type             X           Y           Z
 ---------------------------------------------------------------------
      1          6           0       -1.416272   -2.460350    0.741034
      2          6           0       -2.789044   -2.333855    0.977709
      3          6           0       -3.490448   -1.218753    0.509599
      4          6           0       -2.784393   -0.244765   -0.194762
      5          6           0       -1.416775   -0.342137   -0.446613
      6          6           0       -0.735718   -1.465841    0.030880
      7          1           0       -0.879308   -3.329930    1.108317
      8          1           0       -3.320161   -3.104645    1.528929
      9          1           0       -4.553299   -1.095538    0.678667
     10          1           0       -0.914621    0.442662   -0.999198
     11          1           0        0.330385   -1.561428   -0.154409
     12          7           0       -3.516167    0.940297   -0.695296
     13          8           0       -2.871092    1.784504   -1.313219
     14          8           0       -4.720951    1.002503   -0.460213
     15          6           0        3.636718    0.065190   -0.388987
     16          6           0        4.981469   -0.590127   -0.072453
     17          6           0        5.422285   -1.584099   -1.147393
     18          1           0        2.873040   -0.716295   -0.503106
     19          1           0        3.705937    0.578473   -1.358081
     20          1           0        4.910149   -1.100855    0.896405
     21          1           0        5.741995    0.193019    0.041115
     22          1           0        5.521356   -1.084625   -2.116574
     23          1           0        4.684784   -2.385852   -1.256424
     24          1           0        6.385928   -2.040759   -0.900994
     25          6           0        3.182578    1.061408    0.676392
     26          6           0        1.837828    1.716725    0.359858
     27          6           0        1.397012    2.710697    1.434798
     28          1           0        3.113360    0.548125    1.645487
     29          1           0        3.946257    1.842893    0.790511
     30          1           0        1.077301    0.933579    0.246291
     31          1           0        1.909147    2.227453   -0.608999
     32          1           0        2.134512    3.512450    1.543829
     33          1           0        1.297940    2.211223    2.403979
     34          1           0        0.433369    3.167357    1.188400
 ---------------------------------------------------------------------

 SCF Done:  E(RHF) =  -669.534742039     A.U. after   15 cycles
 E2 =    -0.2093036409D+01 EUMP2 =    -0.67162777844831D+03

 The electronic state is 1-A.
 Alpha  occ. eigenvalues --  -20.60768 -20.60763 -15.85821 -11.31184 -11.27772
 Alpha  occ. eigenvalues --  -11.27728 -11.27516 -11.26785 -11.26765 -11.22205
 Alpha  occ. eigenvalues --  -11.22122 -11.22079 -11.21917 -11.21621 -11.21270
 Alpha  occ. eigenvalues --   -1.59843  -1.39396  -1.19372  -1.09025  -1.08764
 Alpha  occ. eigenvalues --   -1.04787  -1.04021  -0.96459  -0.95598  -0.87470
 Alpha  occ. eigenvalues --   -0.86172  -0.82447  -0.80119  -0.78887  -0.77458
 Alpha  occ. eigenvalues --   -0.72040  -0.71166  -0.70485  -0.65710  -0.65020
 Alpha  occ. eigenvalues --   -0.64771  -0.62197  -0.61363  -0.59815  -0.58073
 Alpha  occ. eigenvalues --   -0.55759  -0.55279  -0.53143  -0.53077  -0.52915
 Alpha  occ. eigenvalues --   -0.52823  -0.50402  -0.48800  -0.48799  -0.48401
 Alpha  occ. eigenvalues --   -0.47157  -0.46392  -0.46297  -0.44800  -0.44296
 Alpha  occ. eigenvalues --   -0.37355  -0.36335
 Alpha virt. eigenvalues --    0.05018   0.11256   0.16382   0.19373   0.22729
 Alpha virt. eigenvalues --    0.23867   0.24604   0.26340   0.26914   0.28307
 Alpha virt. eigenvalues --    0.29273   0.30985   0.31314   0.31460   0.31986

 Mulliken charges:
               1
     1  C   -0.172320
     2  C   -0.218543
     3  C   -0.171030
     4  C    0.156920
     5  C   -0.172243
     6  C   -0.223208
     7  H    0.225923
     8  H    0.223487
     9  H    0.275661
    10  H    0.279464
    11  H    0.229912
    12  N    0.488236
    13  O   -0.460477
    14  O   -0.460452
    15  C   -0.300690
    16  C   -0.299845
    17  C   -0.475682
    18  H    0.139740
    19  H    0.153492
    20  H    0.151460
    21  H    0.155406
    22  H    0.157358
    23  H    0.152088
    24  H    0.162386
    25  C   -0.298186
    26  C   -0.307072
    27  C   -0.476864
    28  H    0.149030
    29  H    0.153595
    30  H    0.146536
    31  H    0.155687
    32  H    0.156935
    33  H    0.154653
    34  H    0.168643
 Sum of Mulliken charges =  -0.00000

 Dipole moment (field-independent basis, Debye):
    X=              2.6597    Y=             -4.0511    Z=              1.7885  Tot=              5.1657
 Quadrupole moment (field-independent basis, Debye-Ang):
   XX=           -105.0419   YY=            -92.2813   ZZ=            -95.5994
   XY=             13.7843   XZ=             -7.3579   YZ=             -1.3344

 Normal termination of Gaussian 16 at Thu May  6 01:32:06 2021.
