 Gaussian 16, Revision A.03,
 Gaussian 16:  EM64L-G16RevA.03 25-Dec-2016

 -------------
 #p 6-31g* mp2
 -------------

 ------------------------------------------------------
 Input file generated by CHIRIPA (05-May-2021 14:55:22)
 ------------------------------------------------------
 Symbolic Z-matrix:
 Charge =  0 Multiplicity = 1

                         Standard orientation:
 ---------------------------------------------------------------------
 Center     Atomic      Atomic             Coordinates (Angstroms)
 Number     Number       Type             X           Y           Z
 ---------------------------------------------------------------------
      1          6           0       -1.704828   -0.930254    2.244937
      2          6           0       -0.907105   -0.441548    1.205070
      3          6           0       -1.484766   -0.029903    0.000328
      4          6           0       -2.869592   -0.121074   -0.130950
      5          6           0       -3.691190   -0.603529    0.886647
      6          6           0       -3.091880   -1.009545    2.082693
      7          1           0       -1.247679   -1.247844    3.177433
      8          1           0        0.170363   -0.378844    1.328262
      9          1           0       -0.890848    0.352369   -0.820981
     10          1           0       -4.762463   -0.654174    0.734246
     11          1           0       -3.713881   -1.388669    2.888562
     12          7           0       -3.492595    0.311737   -1.401754
     13          8           0       -4.714993    0.221401   -1.492421
     14          8           0       -2.746711    0.733115   -2.283079
     15          6           0        2.984894    0.739106    0.074393
     16          6           0        3.496967    2.143886    0.394331
     17          6           0        2.371333    3.118419    0.742216
     18          1           0        2.275566    0.796092   -0.762596
     19          1           0        2.421010    0.356764    0.936510
     20          1           0        4.060893    2.522915   -0.467609
     21          1           0        4.205305    2.083524    1.230531
     22          1           0        1.813240    2.766351    1.615819
     23          1           0        1.668007    3.208240   -0.091969
     24          1           0        2.759760    4.116544    0.967447
     25          6           0        4.098405   -0.246545   -0.275338
     26          6           0        3.586331   -1.651326   -0.595275
     27          6           0        4.711967   -2.625859   -0.943160
     28          1           0        4.662289    0.135796   -1.137454
     29          1           0        4.807733   -0.303532    0.561651
     30          1           0        2.877994   -1.590964   -1.431475
     31          1           0        3.022407   -2.030356    0.266665
     32          1           0        5.415292   -2.715680   -0.108975
     33          1           0        5.270059   -2.273791   -1.816763
     34          1           0        4.323538   -3.623985   -1.168392
 ---------------------------------------------------------------------

 SCF Done:  E(RHF) =  -669.535650292     A.U. after   15 cycles
 E2 =    -0.2091644523D+01 EUMP2 =    -0.67162729481520D+03

 The electronic state is 1-A.
 Alpha  occ. eigenvalues --  -20.60710 -20.60705 -15.85762 -11.31103 -11.27674
 Alpha  occ. eigenvalues --  -11.27652 -11.27408 -11.26692 -11.26622 -11.22360
 Alpha  occ. eigenvalues --  -11.22251 -11.22248 -11.22061 -11.21637 -11.21553
 Alpha  occ. eigenvalues --   -1.59786  -1.39340  -1.19271  -1.09169  -1.08673
 Alpha  occ. eigenvalues --   -1.04665  -1.04155  -0.96611  -0.95513  -0.87621
 Alpha  occ. eigenvalues --   -0.86072  -0.82346  -0.80227  -0.79039  -0.77380
 Alpha  occ. eigenvalues --   -0.71982  -0.71108  -0.70388  -0.65822  -0.64922
 Alpha  occ. eigenvalues --   -0.64658  -0.62029  -0.61538  -0.59975  -0.58226
 Alpha  occ. eigenvalues --   -0.55901  -0.55183  -0.53260  -0.53073  -0.53002
 Alpha  occ. eigenvalues --   -0.52733  -0.50542  -0.48744  -0.48738  -0.48531
 Alpha  occ. eigenvalues --   -0.47260  -0.46514  -0.46462  -0.44751  -0.44451
 Alpha  occ. eigenvalues --   -0.37259  -0.36266
 Alpha virt. eigenvalues --    0.05134   0.11369   0.16614   0.19459   0.22787
 Alpha virt. eigenvalues --    0.23658   0.24197   0.25165   0.27412   0.28539
 Alpha virt. eigenvalues --    0.29694   0.30675   0.31187   0.31429   0.31834

 Mulliken charges:
               1
     1  C   -0.172680
     2  C   -0.224513
     3  C   -0.174649
     4  C    0.158883
     5  C   -0.171235
     6  C   -0.218468
     7  H    0.225370
     8  H    0.233805
     9  H    0.276135
    10  H    0.275216
    11  H    0.222947
    12  N    0.488178
    13  O   -0.460725
    14  O   -0.460882
    15  C   -0.305102
    16  C   -0.299412
    17  C   -0.477424
    18  H    0.150389
    19  H    0.142268
    20  H    0.156514
    21  H    0.153310
    22  H    0.151947
    23  H    0.158301
    24  H    0.164294
    25  C   -0.297822
    26  C   -0.300772
    27  C   -0.476083
    28  H    0.154148
    29  H    0.151127
    30  H    0.154355
    31  H    0.146829
    32  H    0.155563
    33  H    0.157813
    34  H    0.162374
 Sum of Mulliken charges =  -0.00000

 Dipole moment (field-independent basis, Debye):
    X=              2.4257    Y=             -1.4654    Z=              4.3974  Tot=              5.2315
 Quadrupole moment (field-independent basis, Debye-Ang):
   XX=           -103.0973   YY=            -95.1193   ZZ=            -94.9714
   XY=              6.0595   XZ=            -15.1354   YZ=             -1.3142

 Normal termination of Gaussian 16 at Wed May  5 17:30:49 2021.
