 Gaussian 16, Revision A.03,
 Gaussian 16:  EM64L-G16RevA.03 25-Dec-2016

 -------------
 #p 6-31g* mp2
 -------------

 ------------------------------------------------------
 Input file generated by CHIRIPA (05-May-2021 14:57:20)
 ------------------------------------------------------
 Symbolic Z-matrix:
 Charge =  0 Multiplicity = 1

                         Standard orientation:
 ---------------------------------------------------------------------
 Center     Atomic      Atomic             Coordinates (Angstroms)
 Number     Number       Type             X           Y           Z
 ---------------------------------------------------------------------
      1          6           0        2.994095    2.216023    0.636113
      2          6           0        4.085245    2.169964   -0.237838
      3          6           0        4.664194    0.946227   -0.586882
      4          6           0        4.124191   -0.217237   -0.040953
      5          6           0        3.037723   -0.204083    0.832376
      6          6           0        2.474732    1.030942    1.167494
      7          1           0        2.550551    3.171035    0.901850
      8          1           0        4.490674    3.088717   -0.652042
      9          1           0        5.509518    0.881685   -1.261181
     10          1           0        2.655546   -1.136764    1.229193
     11          1           0        1.627392    1.063684    1.846456
     12          7           0        4.728652   -1.518728   -0.403099
     13          8           0        4.234355   -2.529537    0.091443
     14          8           0        5.685279   -1.503382   -1.174633
     15          6           0       -1.658589    0.758481    0.425015
     16          6           0       -2.197679   -0.313167    1.144371
     17          6           0       -3.507469   -0.740456    0.906845
     18          6           0       -4.253303   -0.070327   -0.061633
     19          6           0       -3.744446    1.000577   -0.794790
     20          6           0       -2.432330    1.410784   -0.540567
     21          1           0       -0.640209    1.083775    0.616016
     22          1           0       -1.599099   -0.821624    1.894851
     23          1           0       -3.949742   -1.567272    1.449236
     24          1           0       -4.365565    1.487723   -1.536624
     25          1           0       -2.016279    2.243336   -1.100749
     26          7           0       -5.641150   -0.513636   -0.321930
     27          8           0       -6.277609    0.093389   -1.180462
     28          8           0       -6.066210   -1.459734    0.337512
 ---------------------------------------------------------------------

 SCF Done:  E(RHF) =  -868.336668062     A.U. after   16 cycles
 E2 =    -0.2599975378D+01 EUMP2 =    -0.87093664343997D+03

 The electronic state is 1-A.
 Alpha  occ. eigenvalues --  -20.61461 -20.61453 -20.61043 -20.61038 -15.86523
 Alpha  occ. eigenvalues --  -15.86101 -11.32078 -11.31567 -11.28756 -11.28656
 Alpha  occ. eigenvalues --  -11.28513 -11.28151 -11.28145 -11.27979 -11.27861
 Alpha  occ. eigenvalues --  -11.27674 -11.27239 -11.27209  -1.60531  -1.60116
 Alpha  occ. eigenvalues --   -1.40080  -1.39667  -1.20296  -1.19762  -1.09657
 Alpha  occ. eigenvalues --   -1.09156  -1.05739  -1.05180  -0.96450  -0.95971
 Alpha  occ. eigenvalues --   -0.87131  -0.86587  -0.83290  -0.82794  -0.78298
 Alpha  occ. eigenvalues --   -0.77809  -0.72737  -0.72318  -0.71858  -0.71440
 Alpha  occ. eigenvalues --   -0.71398  -0.70938  -0.65952  -0.65771  -0.65424
 Alpha  occ. eigenvalues --   -0.65199  -0.63082  -0.62524  -0.56249  -0.55768
 Alpha  occ. eigenvalues --   -0.54019  -0.53808  -0.53501  -0.53286  -0.49511
 Alpha  occ. eigenvalues --   -0.49479  -0.49087  -0.49065  -0.45443  -0.45049
 Alpha  occ. eigenvalues --   -0.38288  -0.37776  -0.37332  -0.36775
 Alpha virt. eigenvalues --    0.04263   0.04729   0.10125   0.10869   0.15622
 Alpha virt. eigenvalues --    0.16181   0.18754   0.21861   0.25151   0.26653
 Alpha virt. eigenvalues --    0.27585   0.28814   0.30089   0.30880   0.32042

 Mulliken charges:
               1
     1  C   -0.172339
     2  C   -0.218362
     3  C   -0.168530
     4  C    0.159066
     5  C   -0.169318
     6  C   -0.223801
     7  H    0.226502
     8  H    0.226686
     9  H    0.279040
    10  H    0.276132
    11  H    0.217023
    12  N    0.488125
    13  O   -0.458855
    14  O   -0.457515
    15  C   -0.172907
    16  C   -0.219090
    17  C   -0.169647
    18  C    0.158895
    19  C   -0.169942
    20  C   -0.219254
    21  H    0.221040
    22  H    0.220257
    23  H    0.277415
    24  H    0.276785
    25  H    0.223084
    26  N    0.487987
    27  O   -0.459448
    28  O   -0.459026
 Sum of Mulliken charges =  -0.00000

 Dipole moment (field-independent basis, Debye):
    X=              2.9302    Y=              6.0939    Z=              2.0577  Tot=              7.0680
 Quadrupole moment (field-independent basis, Debye-Ang):
   XX=           -160.9330   YY=           -104.0812   ZZ=           -101.9782
   XY=             14.0520   XZ=             -0.8892   YZ=             -5.2564

 Normal termination of Gaussian 16 at Wed May  5 19:14:05 2021.
