 Gaussian 16, Revision A.03,
 Gaussian 16:  EM64L-G16RevA.03 25-Dec-2016

 -------------
 #p 6-31g* mp2
 -------------

 ------------------------------------------------------
 Input file generated by CHIRIPA (05-May-2021 14:55:20)
 ------------------------------------------------------
 Symbolic Z-matrix:
 Charge =  0 Multiplicity = 1

                         Standard orientation:
 ---------------------------------------------------------------------
 Center     Atomic      Atomic             Coordinates (Angstroms)
 Number     Number       Type             X           Y           Z
 ---------------------------------------------------------------------
      1          6           0        1.512085    2.584274    0.136847
      2          6           0        0.996731    1.797687   -0.898630
      3          6           0        1.530695    0.532896   -1.162705
      4          6           0        2.584364    0.083952   -0.368023
      5          6           0        3.119526    0.844054    0.670792
      6          6           0        2.569973    2.105791    0.916878
      7          1           0        1.091234    3.565608    0.334999
      8          1           0        0.175192    2.166714   -1.506032
      9          1           0        1.150875   -0.096873   -1.958032
     10          1           0        3.938799    0.449115    1.259209
     11          1           0        2.972210    2.714483    1.721703
     12          7           0        3.157900   -1.253409   -0.638065
     13          8           0        4.085912   -1.626072    0.076465
     14          8           0        2.668565   -1.903646   -1.559141
     15          6           0       -3.574223   -0.100338   -0.177355
     16          6           0       -5.090896   -0.224665   -0.028265
     17          6           0       -5.851762    0.358466   -1.219413
     18          1           0       -3.309855    0.958895   -0.300161
     19          1           0       -3.260410   -0.609705   -1.099018
     20          1           0       -5.401585    0.283597    0.893558
     21          1           0       -5.351666   -1.283707    0.094393
     22          1           0       -5.570433   -0.154547   -2.144763
     23          1           0       -5.620636    1.421661   -1.341055
     24          1           0       -6.934228    0.259014   -1.091986
     25          6           0       -2.799764   -0.678837    1.005558
     26          6           0       -1.283090   -0.554509    0.856468
     27          6           0       -0.522224   -1.137640    2.047616
     28          1           0       -3.113577   -0.169469    1.927220
     29          1           0       -3.064132   -1.738069    1.128364
     30          1           0       -1.022320    0.504533    0.733810
     31          1           0       -0.972401   -1.062771   -0.065356
     32          1           0       -0.753350   -2.200836    2.169259
     33          1           0       -0.803554   -0.624626    2.972965
     34          1           0        0.560242   -1.038188    1.920189
 ---------------------------------------------------------------------

 SCF Done:  E(RHF) =  -669.534349401     A.U. after   15 cycles
 E2 =    -0.2094357504D+01 EUMP2 =    -0.67162870690463D+03

 The electronic state is 1-A.
 Alpha  occ. eigenvalues --  -20.60814 -20.60809 -15.85868 -11.31241 -11.27802
 Alpha  occ. eigenvalues --  -11.27780 -11.27545 -11.26826 -11.26789 -11.21852
 Alpha  occ. eigenvalues --  -11.21693 -11.21611 -11.21498 -11.21340 -11.21036
 Alpha  occ. eigenvalues --   -1.59890  -1.39442  -1.19422  -1.08815  -1.08625
 Alpha  occ. eigenvalues --   -1.04823  -1.03675  -0.96137  -0.95642  -0.87150
 Alpha  occ. eigenvalues --   -0.86219  -0.82473  -0.79763  -0.78468  -0.77510
 Alpha  occ. eigenvalues --   -0.72084  -0.71218  -0.70521  -0.65267  -0.65066
 Alpha  occ. eigenvalues --   -0.64811  -0.62163  -0.61078  -0.59554  -0.57816
 Alpha  occ. eigenvalues --   -0.55431  -0.55316  -0.53261  -0.52907  -0.52663
 Alpha  occ. eigenvalues --   -0.52507  -0.50077  -0.48845  -0.48839  -0.48093
 Alpha  occ. eigenvalues --   -0.46796  -0.46001  -0.45922  -0.44840  -0.43959
 Alpha  occ. eigenvalues --   -0.37366  -0.36288
 Alpha virt. eigenvalues --    0.05013   0.11109   0.16493   0.21043   0.22749
 Alpha virt. eigenvalues --    0.24018   0.26134   0.26267   0.27467   0.28212
 Alpha virt. eigenvalues --    0.28617   0.30555   0.31178   0.31492   0.31744

 Mulliken charges:
               1
     1  C   -0.171739
     2  C   -0.217674
     3  C   -0.165937
     4  C    0.159832
     5  C   -0.173181
     6  C   -0.216985
     7  H    0.225723
     8  H    0.224424
     9  H    0.275542
    10  H    0.275963
    11  H    0.223785
    12  N    0.487965
    13  O   -0.460148
    14  O   -0.460599
    15  C   -0.297503
    16  C   -0.299537
    17  C   -0.475769
    18  H    0.142956
    19  H    0.149234
    20  H    0.151924
    21  H    0.154215
    22  H    0.155673
    23  H    0.152890
    24  H    0.161480
    25  C   -0.298109
    26  C   -0.302722
    27  C   -0.476751
    28  H    0.148307
    29  H    0.151889
    30  H    0.152431
    31  H    0.150731
    32  H    0.158280
    33  H    0.152461
    34  H    0.160947
 Sum of Mulliken charges =  -0.00000

 Dipole moment (field-independent basis, Debye):
    X=             -1.9660    Y=              4.6958    Z=              0.9300  Tot=              5.1750
 Quadrupole moment (field-independent basis, Debye-Ang):
   XX=           -104.0860   YY=            -93.7594   ZZ=            -93.4828
   XY=             13.0028   XZ=              5.4887   YZ=             -0.3753

 Normal termination of Gaussian 16 at Thu May  6 06:09:00 2021.
