 Gaussian 16, Revision A.03,
 Gaussian 16:  EM64L-G16RevA.03 25-Dec-2016

 -------------
 #p 6-31g* mp2
 -------------

 ------------------------------------------------------
 Input file generated by CHIRIPA (05-May-2021 14:57:22)
 ------------------------------------------------------
 Symbolic Z-matrix:
 Charge =  0 Multiplicity = 1

                         Standard orientation:
 ---------------------------------------------------------------------
 Center     Atomic      Atomic             Coordinates (Angstroms)
 Number     Number       Type             X           Y           Z
 ---------------------------------------------------------------------
      1          6           0       -4.550390    2.382176   -0.074342
      2          6           0       -3.306906    2.062723   -0.629515
      3          6           0       -2.826275    0.750580   -0.586839
      4          6           0       -3.618864   -0.221546    0.021489
      5          6           0       -4.861899    0.065374    0.583478
      6          6           0       -5.322557    1.384241    0.529319
      7          1           0       -4.915998    3.404092   -0.111953
      8          1           0       -2.705079    2.835685   -1.098963
      9          1           0       -1.867247    0.475601   -1.008822
     10          1           0       -5.439160   -0.726730    1.044735
     11          1           0       -6.288644    1.629432    0.961293
     12          7           0       -3.120614   -1.614212    0.072747
     13          8           0       -3.838026   -2.452438    0.614351
     14          8           0       -2.022109   -1.841188   -0.429652
     15          6           0        5.904250    1.136061    0.437180
     16          6           0        4.735959    1.893931    0.305834
     17          6           0        3.509642    1.270689    0.056309
     18          6           0        3.487978   -0.118584   -0.056567
     19          6           0        4.634717   -0.901166    0.069311
     20          6           0        5.849995   -0.256614    0.318709
     21          1           0        6.852594    1.628488    0.630968
     22          1           0        4.775099    2.975659    0.397363
     23          1           0        2.589964    1.833144   -0.049773
     24          1           0        4.564135   -1.977813   -0.026959
     25          1           0        6.755709   -0.847728    0.420253
     26          7           0        2.195574   -0.789664   -0.320660
     27          8           0        2.203139   -2.015027   -0.415859
     28          8           0        1.199495   -0.077583   -0.427458
 ---------------------------------------------------------------------

 SCF Done:  E(RHF) =  -868.336626313     A.U. after   16 cycles
 E2 =    -0.2599879432D+01 EUMP2 =    -0.87093650574453D+03

 The electronic state is 1-A.
 Alpha  occ. eigenvalues --  -20.60521 -20.60465 -20.59507 -20.59392 -15.85567
 Alpha  occ. eigenvalues --  -15.84505 -11.31079 -11.30120 -11.27699 -11.27631
 Alpha  occ. eigenvalues --  -11.27426 -11.26815 -11.26730 -11.26685 -11.26628
 Alpha  occ. eigenvalues --  -11.26606 -11.25888 -11.25817  -1.59544  -1.58538
 Alpha  occ. eigenvalues --   -1.39106  -1.38072  -1.19259  -1.18352  -1.08621
 Alpha  occ. eigenvalues --   -1.07720  -1.04689  -1.03787  -0.95432  -0.94493
 Alpha  occ. eigenvalues --   -0.86079  -0.85176  -0.82274  -0.81314  -0.77299
 Alpha  occ. eigenvalues --   -0.76294  -0.71780  -0.70884  -0.70706  -0.70371
 Alpha  occ. eigenvalues --   -0.69880  -0.69461  -0.64916  -0.64692  -0.63999
 Alpha  occ. eigenvalues --   -0.63807  -0.62040  -0.61100  -0.55178  -0.54327
 Alpha  occ. eigenvalues --   -0.53005  -0.52786  -0.52126  -0.51879  -0.48523
 Alpha  occ. eigenvalues --   -0.48481  -0.47530  -0.47422  -0.44486  -0.43419
 Alpha  occ. eigenvalues --   -0.37245  -0.36391  -0.36299  -0.35407
 Alpha virt. eigenvalues --    0.05250   0.06224   0.11353   0.12239   0.16716
 Alpha virt. eigenvalues --    0.17636   0.21440   0.22306   0.27352   0.28053
 Alpha virt. eigenvalues --    0.28400   0.29295   0.30994   0.31790   0.32559

 Mulliken charges:
               1
     1  C   -0.171707
     2  C   -0.221180
     3  C   -0.174134
     4  C    0.155577
     5  C   -0.171653
     6  C   -0.219753
     7  H    0.220836
     8  H    0.219515
     9  H    0.295411
    10  H    0.273115
    11  H    0.219292
    12  N    0.485427
    13  O   -0.468838
    14  O   -0.444005
    15  C   -0.171250
    16  C   -0.218268
    17  C   -0.171005
    18  C    0.158954
    19  C   -0.170551
    20  C   -0.218390
    21  H    0.225009
    22  H    0.221720
    23  H    0.271142
    24  H    0.277395
    25  H    0.223679
    26  N    0.491351
    27  O   -0.449989
    28  O   -0.467698
 Sum of Mulliken charges =  -0.00000

 Dipole moment (field-independent basis, Debye):
    X=              3.1975    Y=              6.9885    Z=              0.6509  Tot=              7.7128
 Quadrupole moment (field-independent basis, Debye-Ang):
   XX=            -58.5626   YY=           -104.2550   ZZ=           -105.4257
   XY=            -10.8084   XZ=              1.6368   YZ=             -0.7432

 Normal termination of Gaussian 16 at Thu May  6 17:53:03 2021.
