 Gaussian 16, Revision A.03,
 Gaussian 16:  EM64L-G16RevA.03 25-Dec-2016

 -------------
 #p 6-31g* mp2
 -------------

 ------------------------------------------------------
 Input file generated by CHIRIPA (05-May-2021 14:57:21)
 ------------------------------------------------------
 Symbolic Z-matrix:
 Charge =  0 Multiplicity = 1

                         Standard orientation:
 ---------------------------------------------------------------------
 Center     Atomic      Atomic             Coordinates (Angstroms)
 Number     Number       Type             X           Y           Z
 ---------------------------------------------------------------------
      1          6           0        1.168813    1.753880   -0.635749
      2          6           0        2.097149    1.998743    0.381480
      3          6           0        3.104584    1.070808    0.661761
      4          6           0        3.154431   -0.096726   -0.098285
      5          6           0        2.244120   -0.369387   -1.118226
      6          6           0        1.245127    0.572679   -1.381042
      7          1           0        0.389492    2.480212   -0.846695
      8          1           0        2.040304    2.915217    0.961902
      9          1           0        3.836164    1.235049    1.443576
     10          1           0        2.326306   -1.292063   -1.679772
     11          1           0        0.525521    0.379862   -2.171633
     12          7           0        4.216489   -1.086569    0.189191
     13          8           0        4.238858   -2.107494   -0.494805
     14          8           0        5.006451   -0.822741    1.093067
     15          6           0       -2.217065    2.338733    0.138162
     16          6           0       -2.298080    1.633849    1.343606
     17          6           0       -2.719181    0.300821    1.359688
     18          6           0       -3.053090   -0.298933    0.146390
     19          6           0       -2.982734    0.376773   -1.070886
     20          6           0       -2.559047    1.709056   -1.063118
     21          1           0       -1.888939    3.373972    0.134933
     22          1           0       -2.033122    2.120310    2.278056
     23          1           0       -2.791043   -0.268338    2.278553
     24          1           0       -3.253501   -0.135063   -1.986378
     25          1           0       -2.497088    2.254020   -2.000786
     26          7           0       -3.500259   -1.709756    0.150792
     27          8           0       -3.788826   -2.215422   -0.931645
     28          8           0       -3.553717   -2.283178    1.236593
 ---------------------------------------------------------------------

 SCF Done:  E(RHF) =  -868.335151436     A.U. after   16 cycles
 E2 =    -0.2602952757D+01 EUMP2 =    -0.87093810419303D+03

 The electronic state is 1-A.
 Alpha  occ. eigenvalues --  -20.61424 -20.61409 -20.60879 -20.60867 -15.86482
 Alpha  occ. eigenvalues --  -15.85935 -11.32084 -11.31371 -11.28729 -11.28641
 Alpha  occ. eigenvalues --  -11.28549 -11.28007 -11.27951 -11.27826 -11.27752
 Alpha  occ. eigenvalues --  -11.27719 -11.27058 -11.26974  -1.60489  -1.59950
 Alpha  occ. eigenvalues --   -1.40037  -1.39502  -1.20303  -1.19577  -1.09695
 Alpha  occ. eigenvalues --   -1.08958  -1.05731  -1.04998  -0.96483  -0.95776
 Alpha  occ. eigenvalues --   -0.87137  -0.86400  -0.83292  -0.82615  -0.78262
 Alpha  occ. eigenvalues --   -0.77639  -0.72698  -0.72152  -0.71816  -0.71574
 Alpha  occ. eigenvalues --   -0.71276  -0.70672  -0.65961  -0.65743  -0.65237
 Alpha  occ. eigenvalues --   -0.65031  -0.63058  -0.62350  -0.56372  -0.55647
 Alpha  occ. eigenvalues --   -0.54061  -0.53825  -0.53176  -0.53087  -0.49474
 Alpha  occ. eigenvalues --   -0.49435  -0.48920  -0.48900  -0.45390  -0.44891
 Alpha  occ. eigenvalues --   -0.38535  -0.37366  -0.37279  -0.36571
 Alpha virt. eigenvalues --    0.04144   0.04987   0.10159   0.11071   0.15480
 Alpha virt. eigenvalues --    0.16477   0.19256   0.21994   0.25781   0.25945
 Alpha virt. eigenvalues --    0.27564   0.29382   0.29821   0.31039   0.32369

 Mulliken charges:
               1
     1  C   -0.160525
     2  C   -0.221985
     3  C   -0.170270
     4  C    0.158249
     5  C   -0.169921
     6  C   -0.218695
     7  H    0.215158
     8  H    0.218263
     9  H    0.275601
    10  H    0.277997
    11  H    0.221003
    12  N    0.488113
    13  O   -0.458486
    14  O   -0.460723
    15  C   -0.178399
    16  C   -0.214087
    17  C   -0.167669
    18  C    0.160990
    19  C   -0.172070
    20  C   -0.224198
    21  H    0.222733
    22  H    0.225892
    23  H    0.280033
    24  H    0.277437
    25  H    0.222923
    26  N    0.487889
    27  O   -0.459085
    28  O   -0.456168
 Sum of Mulliken charges =  -0.00000

 Dipole moment (field-independent basis, Debye):
    X=             -2.3553    Y=              8.1812    Z=             -0.8834  Tot=              8.5592
 Quadrupole moment (field-independent basis, Debye-Ang):
   XX=           -138.3587   YY=           -108.2492   ZZ=            -97.2719
   XY=             -3.0605   XZ=             -0.8411   YZ=              2.9684

 Normal termination of Gaussian 16 at Thu May  6 03:21:02 2021.
