 Gaussian 16, Revision A.03,
 Gaussian 16:  EM64L-G16RevA.03 25-Dec-2016

 -------------
 #p 6-31g* mp2
 -------------

 ------------------------------------------------------
 Input file generated by CHIRIPA (05-May-2021 14:53:13)
 ------------------------------------------------------
 Symbolic Z-matrix:
 Charge =  0 Multiplicity = 1

                         Standard orientation:
 ---------------------------------------------------------------------
 Center     Atomic      Atomic             Coordinates (Angstroms)
 Number     Number       Type             X           Y           Z
 ---------------------------------------------------------------------
      1          6           0        4.334316   -0.542027    0.289405
      2          6           0        5.323470   -1.261576   -0.628096
      3          6           0        5.803409   -2.593703   -0.051131
      4          1           0        4.807559   -0.371031    1.266004
      5          1           0        3.470549   -1.196507    0.470947
      6          1           0        6.184471   -0.605391   -0.808971
      7          1           0        4.847883   -1.430708   -1.602687
      8          1           0        4.957798   -3.269417    0.113047
      9          1           0        6.301980   -2.439411    0.911273
     10          1           0        6.509649   -3.091128   -0.723183
     11          6           0        3.845424    0.791256   -0.273686
     12          6           0        2.856269    1.510805    0.643815
     13          6           0        2.376330    2.842932    0.066850
     14          1           0        4.709190    1.445736   -0.455228
     15          1           0        3.372180    0.620259   -1.250285
     16          1           0        3.331856    1.679937    1.618406
     17          1           0        1.995269    0.854620    0.824690
     18          1           0        1.877759    2.688640   -0.895554
     19          1           0        3.221941    3.518646   -0.097328
     20          1           0        1.670090    3.340357    0.738902
     21          6           0       -5.032343   -1.826700    0.009158
     22          6           0       -5.328993   -0.492922   -0.290104
     23          6           0       -4.319055    0.473745   -0.301504
     24          6           0       -3.017604    0.069832   -0.007620
     25          6           0       -2.690392   -1.251160    0.294378
     26          6           0       -3.716310   -2.200902    0.299930
     27          1           0       -5.823094   -2.571056    0.015742
     28          1           0       -6.350141   -0.199436   -0.516308
     29          1           0       -4.520783    1.513267   -0.529798
     30          1           0       -1.662964   -1.513426    0.515796
     31          1           0       -3.483001   -3.236003    0.532695
     32          7           0       -1.939969    1.084239   -0.016592
     33          8           0       -0.801407    0.702815    0.245760
     34          8           0       -2.254287    2.241548   -0.285808
 ---------------------------------------------------------------------

 SCF Done:  E(RHF) =  -669.536089325     A.U. after   15 cycles
 E2 =    -0.2091116830D+01 EUMP2 =    -0.67162720615477D+03

 The electronic state is 1-A.
 Alpha  occ. eigenvalues --  -20.60974 -20.60969 -15.86014 -11.31325 -11.27889
 Alpha  occ. eigenvalues --  -11.27883 -11.27622 -11.26892 -11.26883 -11.20983
 Alpha  occ. eigenvalues --  -11.20621 -11.20557 -11.20242 -11.19973 -11.19348
 Alpha  occ. eigenvalues --   -1.60034  -1.39592  -1.19492  -1.08897  -1.07420
 Alpha  occ. eigenvalues --   -1.04888  -1.02424  -0.95742  -0.94901  -0.86288
 Alpha  occ. eigenvalues --   -0.85931  -0.82578  -0.78572  -0.77633  -0.77146
 Alpha  occ. eigenvalues --   -0.72240  -0.71350  -0.70601  -0.65151  -0.64891
 Alpha  occ. eigenvalues --   -0.64050  -0.62236  -0.59802  -0.58357  -0.56480
 Alpha  occ. eigenvalues --   -0.55391  -0.54201  -0.53220  -0.52979  -0.51592
 Alpha  occ. eigenvalues --   -0.51337  -0.49013  -0.48980  -0.48832  -0.46864
 Alpha  occ. eigenvalues --   -0.45620  -0.45009  -0.44711  -0.44528  -0.42697
 Alpha  occ. eigenvalues --   -0.37471  -0.36489
 Alpha virt. eigenvalues --    0.04902   0.11167   0.16404   0.21278   0.23768
 Alpha virt. eigenvalues --    0.25443   0.27203   0.27527   0.28109   0.28611
 Alpha virt. eigenvalues --    0.29051   0.30860   0.32220   0.32494   0.32772

 Mulliken charges:
               1
     1  C   -0.296917
     2  C   -0.298760
     3  C   -0.474806
     4  H    0.147471
     5  H    0.147599
     6  H    0.151051
     7  H    0.150674
     8  H    0.152723
     9  H    0.154344
    10  H    0.158000
    11  C   -0.297516
    12  C   -0.305860
    13  C   -0.469167
    14  H    0.145062
    15  H    0.149134
    16  H    0.143118
    17  H    0.172507
    18  H    0.159612
    19  H    0.143586
    20  H    0.164680
    21  C   -0.170580
    22  C   -0.218577
    23  C   -0.170480
    24  C    0.157345
    25  C   -0.170647
    26  C   -0.218501
    27  H    0.226114
    28  H    0.223934
    29  H    0.275985
    30  H    0.275249
    31  H    0.223922
    32  N    0.494566
    33  O   -0.466297
    34  O   -0.458569
 Sum of Mulliken charges =  -0.00000

 Dipole moment (field-independent basis, Debye):
    X=             -4.2009    Y=             -3.5443    Z=              0.0307  Tot=              5.4964
 Quadrupole moment (field-independent basis, Debye-Ang):
   XX=            -70.9463   YY=            -94.1418   ZZ=            -95.3107
   XY=              8.7642   XZ=              1.1210   YZ=             -0.5311

 Normal termination of Gaussian 16 at Thu May  6 13:45:18 2021.
