 Gaussian 16, Revision A.03,
 Gaussian 16:  EM64L-G16RevA.03 25-Dec-2016

 -------------
 #p 6-31g* mp2
 -------------

 ------------------------------------------------------
 Input file generated by CHIRIPA (05-May-2021 14:55:19)
 ------------------------------------------------------
 Symbolic Z-matrix:
 Charge =  0 Multiplicity = 1

                         Standard orientation:
 ---------------------------------------------------------------------
 Center     Atomic      Atomic             Coordinates (Angstroms)
 Number     Number       Type             X           Y           Z
 ---------------------------------------------------------------------
      1          6           0       -1.289956    2.762311   -0.395811
      2          6           0       -2.287267    2.224911   -1.216233
      3          6           0       -2.875409    0.995064   -0.906210
      4          6           0       -2.440187    0.326585    0.237034
      5          6           0       -1.448763    0.835916    1.074261
      6          6           0       -0.874619    2.067324    0.744807
      7          1           0       -0.838510    3.718292   -0.644192
      8          1           0       -2.611804    2.762432   -2.102682
      9          1           0       -3.649455    0.556002   -1.523863
     10          1           0       -1.146116    0.276744    1.951273
     11          1           0       -0.100299    2.482263    1.383790
     12          7           0       -3.055417   -0.976226    0.575527
     13          8           0       -2.654368   -1.545448    1.588336
     14          8           0       -3.927034   -1.403477   -0.178381
     15          6           0        3.705125   -0.607321    0.032423
     16          6           0        4.178332    0.846637    0.040373
     17          6           0        5.603516    1.001570    0.572015
     18          1           0        3.763321   -1.010779    1.052609
     19          1           0        4.393143   -1.206194   -0.580259
     20          1           0        3.488844    1.442849    0.651729
     21          1           0        4.118822    1.246738   -0.979916
     22          1           0        6.307897    0.431198   -0.042089
     23          1           0        5.674340    0.628422    1.598828
     24          1           0        5.921525    2.048814    0.568928
     25          6           0        2.282175   -0.778414   -0.496413
     26          6           0        1.808969   -2.232374   -0.504364
     27          6           0        0.383785   -2.387307   -1.036004
     28          1           0        1.594158   -0.179542    0.116269
     29          1           0        2.223980   -0.374958   -1.516600
     30          1           0        1.868479   -2.632475    0.515927
     31          1           0        2.498456   -2.828585   -1.115719
     32          1           0        0.312961   -2.014158   -2.062817
     33          1           0       -0.320595   -1.816934   -0.421900
     34          1           0        0.065775   -3.434551   -1.032917
 ---------------------------------------------------------------------

 SCF Done:  E(RHF) =  -669.535501251     A.U. after   15 cycles
 E2 =    -0.2093318399D+01 EUMP2 =    -0.67162881964965D+03

 The electronic state is 1-A.
 Alpha  occ. eigenvalues --  -20.60841 -20.60835 -15.85874 -11.31240 -11.27831
 Alpha  occ. eigenvalues --  -11.27810 -11.27555 -11.26849 -11.26822 -11.21949
 Alpha  occ. eigenvalues --  -11.21551 -11.21470 -11.21402 -11.21368 -11.20753
 Alpha  occ. eigenvalues --   -1.59905  -1.39460  -1.19427  -1.08819  -1.08536
 Alpha  occ. eigenvalues --   -1.04831  -1.03589  -0.96023  -0.95651  -0.87042
 Alpha  occ. eigenvalues --   -0.86225  -0.82484  -0.79680  -0.78341  -0.77529
 Alpha  occ. eigenvalues --   -0.72100  -0.71244  -0.70527  -0.65178  -0.65079
 Alpha  occ. eigenvalues --   -0.64829  -0.62178  -0.60990  -0.59409  -0.57633
 Alpha  occ. eigenvalues --   -0.55341  -0.55298  -0.53177  -0.52919  -0.52692
 Alpha  occ. eigenvalues --   -0.52451  -0.49988  -0.48861  -0.48856  -0.47984
 Alpha  occ. eigenvalues --   -0.46739  -0.45875  -0.45811  -0.44815  -0.43839
 Alpha  occ. eigenvalues --   -0.37371  -0.36391
 Alpha virt. eigenvalues --    0.04974   0.11162   0.16401   0.20936   0.22833
 Alpha virt. eigenvalues --    0.24133   0.25792   0.26977   0.27655   0.28183
 Alpha virt. eigenvalues --    0.28548   0.30125   0.31535   0.31695   0.31939

 Mulliken charges:
               1
     1  C   -0.170392
     2  C   -0.218339
     3  C   -0.170598
     4  C    0.157081
     5  C   -0.172773
     6  C   -0.216826
     7  H    0.226169
     8  H    0.223778
     9  H    0.276061
    10  H    0.275632
    11  H    0.224006
    12  N    0.491161
    13  O   -0.459984
    14  O   -0.458600
    15  C   -0.298467
    16  C   -0.297709
    17  C   -0.475614
    18  H    0.150010
    19  H    0.150895
    20  H    0.144630
    21  H    0.151384
    22  H    0.156920
    23  H    0.155833
    24  H    0.158977
    25  C   -0.299592
    26  C   -0.300319
    27  C   -0.475829
    28  H    0.146316
    29  H    0.148281
    30  H    0.154097
    31  H    0.151386
    32  H    0.151825
    33  H    0.154220
    34  H    0.166382
 Sum of Mulliken charges =  -0.00000

 Dipole moment (field-independent basis, Debye):
    X=              2.0618    Y=              4.5474    Z=             -1.2188  Tot=              5.1396
 Quadrupole moment (field-independent basis, Debye-Ang):
   XX=           -105.0275   YY=            -92.1656   ZZ=            -91.5745
   XY=            -11.2340   XZ=              5.5221   YZ=              0.3131

 Normal termination of Gaussian 16 at Thu May  6 12:25:43 2021.
