 Gaussian 16, Revision A.03,
 Gaussian 16:  EM64L-G16RevA.03 25-Dec-2016

 -------------
 #p 6-31g* mp2
 -------------

 ------------------------------------------------------
 Input file generated by CHIRIPA (05-May-2021 14:55:22)
 ------------------------------------------------------
 Symbolic Z-matrix:
 Charge =  0 Multiplicity = 1

                         Standard orientation:
 ---------------------------------------------------------------------
 Center     Atomic      Atomic             Coordinates (Angstroms)
 Number     Number       Type             X           Y           Z
 ---------------------------------------------------------------------
      1          6           0       -3.531146   -2.338947   -0.529589
      2          6           0       -2.253528   -1.769947   -0.508313
      3          6           0       -2.091592   -0.395583   -0.309696
      4          6           0       -3.234217    0.383619   -0.134933
      5          6           0       -4.520423   -0.153692   -0.151009
      6          6           0       -4.658528   -1.530429   -0.351183
      7          1           0       -3.647685   -3.407508   -0.684484
      8          1           0       -1.376195   -2.395416   -0.646589
      9          1           0       -1.114225    0.071034   -0.288705
     10          1           0       -5.376100    0.495480   -0.010257
     11          1           0       -5.651971   -1.969585   -0.367233
     12          7           0       -3.075397    1.839853    0.076159
     13          8           0       -4.098001    2.504656    0.227667
     14          8           0       -1.931316    2.288872    0.086107
     15          6           0        4.617145    0.249128   -0.228832
     16          6           0        6.099571   -0.116532   -0.147026
     17          6           0        6.974689    0.758424   -1.045031
     18          1           0        4.280826    0.159294   -1.270832
     19          1           0        4.490978    1.304339    0.050467
     20          1           0        6.222737   -1.171114   -0.425060
     21          1           0        6.432352   -0.026001    0.894933
     22          1           0        6.881385    1.812621   -0.764740
     23          1           0        6.670579    0.661003   -2.092231
     24          1           0        8.030529    0.479875   -0.971053
     25          6           0        3.729459   -0.616782    0.663324
     26          6           0        2.247033   -0.251121    0.581518
     27          6           0        1.371915   -1.126077    1.479523
     28          1           0        3.855625   -1.671992    0.384025
     29          1           0        4.065777   -0.526947    1.705324
     30          1           0        1.914253   -0.341652   -0.460441
     31          1           0        2.123868    0.803461    0.859551
     32          1           0        1.676025   -1.028655    2.526724
     33          1           0        1.465218   -2.180274    1.199231
     34          1           0        0.316075   -0.847527    1.405546
 ---------------------------------------------------------------------

 SCF Done:  E(RHF) =  -669.535295387     A.U. after   15 cycles
 E2 =    -0.2091776830D+01 EUMP2 =    -0.67162707221740D+03

 The electronic state is 1-A.
 Alpha  occ. eigenvalues --  -20.60759 -20.60754 -15.85812 -11.31178 -11.27751
 Alpha  occ. eigenvalues --  -11.27715 -11.27488 -11.26772 -11.26749 -11.21931
 Alpha  occ. eigenvalues --  -11.21685 -11.21618 -11.21550 -11.21474 -11.21104
 Alpha  occ. eigenvalues --   -1.59835  -1.39388  -1.19354  -1.08747  -1.08628
 Alpha  occ. eigenvalues --   -1.04762  -1.03761  -0.96223  -0.95580  -0.87234
 Alpha  occ. eigenvalues --   -0.86152  -0.82413  -0.79819  -0.78417  -0.77463
 Alpha  occ. eigenvalues --   -0.72032  -0.71158  -0.70474  -0.65258  -0.65006
 Alpha  occ. eigenvalues --   -0.64763  -0.62194  -0.61144  -0.59559  -0.57816
 Alpha  occ. eigenvalues --   -0.55500  -0.55246  -0.53209  -0.52920  -0.52807
 Alpha  occ. eigenvalues --   -0.52522  -0.50144  -0.48790  -0.48785  -0.48135
 Alpha  occ. eigenvalues --   -0.46845  -0.45966  -0.45870  -0.44794  -0.44007
 Alpha  occ. eigenvalues --   -0.37335  -0.36334
 Alpha virt. eigenvalues --    0.05029   0.11259   0.16490   0.20103   0.22877
 Alpha virt. eigenvalues --    0.23871   0.26238   0.26588   0.27115   0.28018
 Alpha virt. eigenvalues --    0.29695   0.30146   0.31377   0.31603   0.31728

 Mulliken charges:
               1
     1  C   -0.170931
     2  C   -0.218975
     3  C   -0.175805
     4  C    0.158060
     5  C   -0.170879
     6  C   -0.218424
     7  H    0.225629
     8  H    0.225324
     9  H    0.281563
    10  H    0.275572
    11  H    0.223473
    12  N    0.487849
    13  O   -0.460438
    14  O   -0.460409
    15  C   -0.298881
    16  C   -0.299864
    17  C   -0.475894
    18  H    0.149428
    19  H    0.152978
    20  H    0.150887
    21  H    0.152478
    22  H    0.156681
    23  H    0.155188
    24  H    0.160355
    25  C   -0.298382
    26  C   -0.302689
    27  C   -0.482446
    28  H    0.147583
    29  H    0.151611
    30  H    0.146085
    31  H    0.162705
    32  H    0.161292
    33  H    0.150279
    34  H    0.158997
 Sum of Mulliken charges =  -0.00000

 Dipole moment (field-independent basis, Debye):
    X=             -0.4787    Y=             -5.0560    Z=             -0.7036  Tot=              5.1271
 Quadrupole moment (field-independent basis, Debye-Ang):
   XX=            -86.2867   YY=            -99.2123   ZZ=            -95.0955
   XY=             15.9851   XZ=              2.8577   YZ=              1.3949

 Normal termination of Gaussian 16 at Wed May  5 18:59:56 2021.
