 Gaussian 16, Revision A.03,
 Gaussian 16:  EM64L-G16RevA.03 25-Dec-2016

 -------------
 #p 6-31g* mp2
 -------------

 ------------------------------------------------------
 Input file generated by CHIRIPA (05-May-2021 14:51:12)
 ------------------------------------------------------
 Symbolic Z-matrix:
 Charge =  0 Multiplicity = 1

                         Standard orientation:
 ---------------------------------------------------------------------
 Center     Atomic      Atomic             Coordinates (Angstroms)
 Number     Number       Type             X           Y           Z
 ---------------------------------------------------------------------
      1          6           0       -2.517074   -0.115860    0.160183
      2          6           0       -1.687830   -0.387579    1.415774
      3          6           0       -0.198816   -0.105348    1.213344
      4          1           0       -2.134410   -0.732300   -0.664751
      5          1           0       -2.379248    0.931484   -0.142257
      6          1           0       -1.828266   -1.433727    1.716552
      7          1           0       -2.072634    0.229438    2.237864
      8          1           0       -0.039423    0.941614    0.935738
      9          1           0        0.206334   -0.731001    0.411464
     10          1           0        0.375207   -0.306226    2.123293
     11          6           0       -4.007670   -0.393375    0.346824
     12          6           0       -4.836914   -0.121656   -0.908767
     13          6           0       -6.325928   -0.403887   -0.706337
     14          1           0       -4.145496   -1.440719    0.649264
     15          1           0       -4.390333    0.223065    1.171758
     16          1           0       -4.452110   -0.738673   -1.730857
     17          1           0       -4.696478    0.924492   -1.209545
     18          1           0       -6.731078    0.221766    0.095543
     19          1           0       -6.485321   -1.450849   -0.428731
     20          1           0       -6.899951   -0.203009   -1.616286
     21          6           0        3.664483   -0.307668    0.071418
     22          6           0        3.780190   -1.555158   -0.805145
     23          6           0        4.587460   -2.671221   -0.141433
     24          1           0        4.671971    0.059186    0.310862
     25          1           0        3.196295   -0.581632    1.027001
     26          1           0        4.246761   -1.278656   -1.759333
     27          1           0        2.772308   -1.918973   -1.042688
     28          1           0        4.121410   -2.975417    0.801363
     29          1           0        5.604241   -2.331462    0.080646
     30          1           0        4.657601   -3.553428   -0.785368
     31          6           0        2.860260    0.816902   -0.578425
     32          6           0        2.744554    2.064394    0.298139
     33          6           0        1.937285    3.180456   -0.365575
     34          1           0        3.328449    1.090867   -1.534008
     35          1           0        1.852773    0.450049   -0.817868
     36          1           0        3.752437    2.428209    0.535681
     37          1           0        2.277983    1.787891    1.252326
     38          1           0        0.920503    2.840697   -0.587652
     39          1           0        2.403333    3.484652   -1.308370
     40          1           0        1.867144    4.062663    0.278360
 ---------------------------------------------------------------------

 SCF Done:  E(RHF) =  -470.731638197     A.U. after   11 cycles
 E2 =    -0.1584746996D+01 EUMP2 =    -0.47231638519241D+03

 The electronic state is 1-A.
 Alpha  occ. eigenvalues --  -11.21670 -11.21637 -11.21551 -11.21471 -11.21458
 Alpha  occ. eigenvalues --  -11.21406 -11.21266 -11.21160 -11.21157 -11.21098
 Alpha  occ. eigenvalues --  -11.21036 -11.21031  -1.08506  -1.08315  -1.03621
 Alpha  occ. eigenvalues --   -1.03439  -0.96069  -0.95899  -0.87115  -0.86899
 Alpha  occ. eigenvalues --   -0.79686  -0.79518  -0.78318  -0.78129  -0.65130
 Alpha  occ. eigenvalues --   -0.64986  -0.61202  -0.60731  -0.59441  -0.59259
 Alpha  occ. eigenvalues --   -0.57659  -0.57502  -0.55578  -0.54987  -0.52757
 Alpha  occ. eigenvalues --   -0.52599  -0.52498  -0.52317  -0.49989  -0.49851
 Alpha  occ. eigenvalues --   -0.48083  -0.47770  -0.46741  -0.46490  -0.45970
 Alpha  occ. eigenvalues --   -0.45776  -0.45607  -0.45378  -0.43827  -0.43686
 Alpha virt. eigenvalues --    0.20803   0.22906   0.23414   0.24598   0.25872
 Alpha virt. eigenvalues --    0.26192   0.26510   0.27687   0.28034   0.29777
 Alpha virt. eigenvalues --    0.30649   0.31564   0.31680   0.31844   0.32357

 Mulliken charges:
               1
     1  C   -0.298668
     2  C   -0.300586
     3  C   -0.482277
     4  H    0.149432
     5  H    0.149321
     6  H    0.151995
     7  H    0.152209
     8  H    0.162432
     9  H    0.157737
    10  H    0.160264
    11  C   -0.298269
    12  C   -0.299729
    13  C   -0.475757
    14  H    0.149707
    15  H    0.149874
    16  H    0.152018
    17  H    0.152102
    18  H    0.155260
    19  H    0.155225
    20  H    0.160426
    21  C   -0.300097
    22  C   -0.299982
    23  C   -0.475587
    24  H    0.149141
    25  H    0.151677
    26  H    0.151894
    27  H    0.150931
    28  H    0.155061
    29  H    0.155179
    30  H    0.159868
    31  C   -0.300376
    32  C   -0.303442
    33  C   -0.477936
    34  H    0.148433
    35  H    0.154728
    36  H    0.151954
    37  H    0.155398
    38  H    0.155047
    39  H    0.155588
    40  H    0.159804
 Sum of Mulliken charges =  -0.00000

 Dipole moment (field-independent basis, Debye):
    X=             -0.0554    Y=             -0.0079    Z=              0.0250  Tot=              0.0613
 Quadrupole moment (field-independent basis, Debye-Ang):
   XX=            -85.7292   YY=            -84.6646   ZZ=            -84.6644
   XY=              0.4752   XZ=             -0.5382   YZ=              0.4767

 Normal termination of Gaussian 16 at Wed May  5 21:32:04 2021.
