 Gaussian 16, Revision A.03,
 Gaussian 16:  EM64L-G16RevA.03 25-Dec-2016

 -------------
 #p 6-31g* mp2
 -------------

 ------------------------------------------------------
 Input file generated by CHIRIPA (05-May-2021 14:55:19)
 ------------------------------------------------------
 Symbolic Z-matrix:
 Charge =  0 Multiplicity = 1

                         Standard orientation:
 ---------------------------------------------------------------------
 Center     Atomic      Atomic             Coordinates (Angstroms)
 Number     Number       Type             X           Y           Z
 ---------------------------------------------------------------------
      1          6           0        0.839839    1.659302   -0.750871
      2          6           0        2.169927    2.083337   -0.663802
      3          6           0        3.180868    1.182788   -0.315153
      4          6           0        2.824511   -0.140363   -0.059081
      5          6           0        1.508454   -0.593274   -0.137528
      6          6           0        0.513922    0.324702   -0.487919
      7          1           0        0.060889    2.365639   -1.022386
      8          1           0        2.425964    3.119200   -0.867466
      9          1           0        4.218644    1.484208   -0.240422
     10          1           0        1.284056   -1.632251    0.071257
     11          1           0       -0.518196   -0.007424   -0.554770
     12          7           0        3.886064   -1.102959    0.310940
     13          8           0        3.546081   -2.263271    0.531675
     14          8           0        5.037990   -0.678902    0.373221
     15          6           0       -3.360383    0.703469   -0.078962
     16          6           0       -2.787359    1.653071    0.973598
     17          6           0       -2.731661    3.103616    0.493379
     18          1           0       -2.750851    0.766178   -0.990820
     19          1           0       -4.370003    1.038578   -0.354213
     20          1           0       -1.779659    1.315471    1.247793
     21          1           0       -3.398211    1.587952    1.883122
     22          1           0       -3.733574    3.463659    0.238151
     23          1           0       -2.105825    3.189631   -0.400786
     24          1           0       -2.318840    3.765183    1.261342
     25          6           0       -3.422478   -0.750277    0.386329
     26          6           0       -3.995501   -1.699880   -0.666231
     27          6           0       -4.051199   -3.150426   -0.186013
     28          1           0       -2.412857   -1.085387    0.661580
     29          1           0       -4.032009   -0.812987    1.298187
     30          1           0       -3.384649   -1.634761   -1.575755
     31          1           0       -5.003201   -1.362280   -0.940428
     32          1           0       -4.677035   -3.236440    0.708153
     33          1           0       -3.049286   -3.510469    0.069214
     34          1           0       -4.464020   -3.811991   -0.953977
 ---------------------------------------------------------------------

 SCF Done:  E(RHF) =  -669.534114771     A.U. after   15 cycles
 E2 =    -0.2094150129D+01 EUMP2 =    -0.67162826489988D+03

 The electronic state is 1-A.
 Alpha  occ. eigenvalues --  -20.60754 -20.60749 -15.85807 -11.31175 -11.27745
 Alpha  occ. eigenvalues --  -11.27739 -11.27455 -11.26749 -11.26693 -11.22656
 Alpha  occ. eigenvalues --  -11.22581 -11.22472 -11.22413 -11.22270 -11.21709
 Alpha  occ. eigenvalues --   -1.59830  -1.39383  -1.19348  -1.09537  -1.08732
 Alpha  occ. eigenvalues --   -1.04758  -1.04506  -0.96988  -0.95575  -0.87992
 Alpha  occ. eigenvalues --   -0.86154  -0.82412  -0.80571  -0.79306  -0.77469
 Alpha  occ. eigenvalues --   -0.72028  -0.71153  -0.70498  -0.66533  -0.64996
 Alpha  occ. eigenvalues --   -0.64513  -0.62142  -0.61801  -0.60334  -0.58566
 Alpha  occ. eigenvalues --   -0.56500  -0.55103  -0.53619  -0.53379  -0.53072
 Alpha  occ. eigenvalues --   -0.52792  -0.50921  -0.48866  -0.48781  -0.48779
 Alpha  occ. eigenvalues --   -0.47631  -0.46826  -0.46779  -0.44789  -0.44787
 Alpha  occ. eigenvalues --   -0.37302  -0.36339
 Alpha virt. eigenvalues --    0.05067   0.11156   0.16514   0.18460   0.22061
 Alpha virt. eigenvalues --    0.23794   0.25414   0.25453   0.26480   0.28777
 Alpha virt. eigenvalues --    0.29122   0.30673   0.31042   0.31645   0.32374

 Mulliken charges:
               1
     1  C   -0.176156
     2  C   -0.219951
     3  C   -0.170833
     4  C    0.158692
     5  C   -0.174369
     6  C   -0.227975
     7  H    0.232442
     8  H    0.223883
     9  H    0.275573
    10  H    0.275395
    11  H    0.238070
    12  N    0.488003
    13  O   -0.460453
    14  O   -0.460474
    15  C   -0.305573
    16  C   -0.307175
    17  C   -0.477242
    18  H    0.140285
    19  H    0.157621
    20  H    0.156002
    21  H    0.158723
    22  H    0.160822
    23  H    0.144662
    24  H    0.165517
    25  C   -0.302351
    26  C   -0.300694
    27  C   -0.476114
    28  H    0.144574
    29  H    0.156677
    30  H    0.150068
    31  H    0.155284
    32  H    0.157678
    33  H    0.155694
    34  H    0.163693
 Sum of Mulliken charges =  -0.00000

 Dipole moment (field-independent basis, Debye):
    X=             -3.9882    Y=              3.3637    Z=             -1.1957  Tot=              5.3526
 Quadrupole moment (field-independent basis, Debye-Ang):
   XX=           -111.8323   YY=            -94.1680   ZZ=            -95.2723
   XY=             12.9290   XZ=             -4.4396   YZ=              0.1237

 Normal termination of Gaussian 16 at Thu May  6 14:03:18 2021.
