 Gaussian 16, Revision A.03,
 Gaussian 16:  EM64L-G16RevA.03 25-Dec-2016

 -------------
 #p 6-31g* mp2
 -------------

 ------------------------------------------------------
 Input file generated by CHIRIPA (05-May-2021 14:51:08)
 ------------------------------------------------------
 Symbolic Z-matrix:
 Charge =  0 Multiplicity = 1

                         Standard orientation:
 ---------------------------------------------------------------------
 Center     Atomic      Atomic             Coordinates (Angstroms)
 Number     Number       Type             X           Y           Z
 ---------------------------------------------------------------------
      1          6           0        3.602238    0.819098    0.181833
      2          6           0        2.600556    1.491755   -0.757397
      3          6           0        1.767487    2.567958   -0.060564
      4          1           0        3.060478    0.374786    1.028017
      5          1           0        4.268753    1.583762    0.604257
      6          1           0        1.937012    0.725869   -1.178993
      7          1           0        3.144746    1.934352   -1.601543
      8          1           0        2.413893    3.352786    0.345397
      9          1           0        1.199297    2.137437    0.770347
     10          1           0        1.058065    3.035773   -0.750295
     11          6           0        4.442482   -0.259106   -0.500218
     12          6           0        5.444164   -0.931762    0.439012
     13          6           0        6.277234   -2.007965   -0.257821
     14          1           0        3.775968   -1.023770   -0.922642
     15          1           0        4.984242    0.185206   -1.346402
     16          1           0        4.899975   -1.374359    1.283158
     17          1           0        6.107709   -0.165876    0.860608
     18          1           0        6.845423   -1.577445   -1.088732
     19          1           0        5.630827   -2.792794   -0.663781
     20          1           0        6.986655   -2.475780    0.431911
     21          6           0       -3.300630   -0.516235    0.077161
     22          6           0       -2.309303    0.246376    0.956751
     23          6           0       -0.869590   -0.237658    0.781445
     24          1           0       -3.241239   -1.587641    0.312760
     25          1           0       -3.002897   -0.410651   -0.975266
     26          1           0       -2.609608    0.140533    2.007098
     27          1           0       -2.371199    1.316114    0.719165
     28          1           0       -0.546232   -0.116486   -0.257476
     29          1           0       -0.785996   -1.298747    1.037774
     30          1           0       -0.177717    0.321015    1.419455
     31          6           0       -4.744090   -0.043757    0.241224
     32          6           0       -5.735418   -0.806369   -0.638366
     33          6           0       -7.175130   -0.322334   -0.463061
     34          1           0       -5.041823   -0.149342    1.293651
     35          1           0       -4.803482    1.027649    0.005626
     36          1           0       -5.673522   -1.876107   -0.400781
     37          1           0       -5.435113   -0.700526   -1.688714
     38          1           0       -7.258725    0.738754   -0.719390
     39          1           0       -7.498489   -0.443506    0.575861
     40          1           0       -7.867003   -0.881007   -1.101070
 ---------------------------------------------------------------------

 SCF Done:  E(RHF) =  -470.732908710     A.U. after   11 cycles
 E2 =    -0.1582970166D+01 EUMP2 =    -0.47231587887595D+03

 The electronic state is 1-A.
 Alpha  occ. eigenvalues --  -11.21634 -11.21616 -11.21565 -11.21535 -11.21428
 Alpha  occ. eigenvalues --  -11.21368 -11.21355 -11.21295 -11.21118 -11.21082
 Alpha  occ. eigenvalues --  -11.21042 -11.20976  -1.08457  -1.08376  -1.03577
 Alpha  occ. eigenvalues --   -1.03460  -0.96046  -0.95897  -0.87055  -0.86924
 Alpha  occ. eigenvalues --   -0.79624  -0.79542  -0.78266  -0.78194  -0.65118
 Alpha  occ. eigenvalues --   -0.64986  -0.61108  -0.60781  -0.59400  -0.59272
 Alpha  occ. eigenvalues --   -0.57689  -0.57488  -0.55441  -0.55071  -0.52736
 Alpha  occ. eigenvalues --   -0.52622  -0.52471  -0.52292  -0.49971  -0.49822
 Alpha  occ. eigenvalues --   -0.47961  -0.47848  -0.46669  -0.46535  -0.45817
 Alpha  occ. eigenvalues --   -0.45751  -0.45719  -0.45625  -0.43793  -0.43725
 Alpha virt. eigenvalues --    0.21019   0.23025   0.23606   0.25145   0.25990
 Alpha virt. eigenvalues --    0.26253   0.26770   0.27648   0.27923   0.29197
 Alpha virt. eigenvalues --    0.29745   0.30865   0.31592   0.32028   0.32293

 Mulliken charges:
               1
     1  C   -0.298856
     2  C   -0.301085
     3  C   -0.478729
     4  H    0.150281
     5  H    0.149213
     6  H    0.153844
     7  H    0.151486
     8  H    0.154346
     9  H    0.159866
    10  H    0.159053
    11  C   -0.298308
    12  C   -0.299650
    13  C   -0.475686
    14  H    0.149791
    15  H    0.149412
    16  H    0.152025
    17  H    0.151768
    18  H    0.155075
    19  H    0.155186
    20  H    0.160110
    21  C   -0.298545
    22  C   -0.300222
    23  C   -0.479998
    24  H    0.149650
    25  H    0.149589
    26  H    0.151969
    27  H    0.152994
    28  H    0.157781
    29  H    0.154818
    30  H    0.162512
    31  C   -0.298322
    32  C   -0.299680
    33  C   -0.475724
    34  H    0.149587
    35  H    0.149816
    36  H    0.151930
    37  H    0.151956
    38  H    0.155242
    39  H    0.155209
    40  H    0.160296
 Sum of Mulliken charges =  -0.00000

 Dipole moment (field-independent basis, Debye):
    X=             -0.0353    Y=             -0.0117    Z=              0.0070  Tot=              0.0378
 Quadrupole moment (field-independent basis, Debye-Ang):
   XX=            -86.0074   YY=            -84.6169   ZZ=            -84.3036
   XY=              1.3387   XZ=             -0.0038   YZ=             -0.9736

 Normal termination of Gaussian 16 at Thu May  6 08:25:51 2021.
