 Gaussian 16, Revision A.03,
 Gaussian 16:  EM64L-G16RevA.03 25-Dec-2016

 -------------
 #p 6-31g* mp2
 -------------

 ------------------------------------------------------
 Input file generated by CHIRIPA (05-May-2021 14:51:10)
 ------------------------------------------------------
 Symbolic Z-matrix:
 Charge =  0 Multiplicity = 1

                         Standard orientation:
 ---------------------------------------------------------------------
 Center     Atomic      Atomic             Coordinates (Angstroms)
 Number     Number       Type             X           Y           Z
 ---------------------------------------------------------------------
      1          6           0       -3.153784   -0.116694   -0.108245
      2          6           0       -4.058587   -0.595491   -1.244057
      3          6           0       -4.485706   -2.054901   -1.084418
      4          1           0       -2.262977   -0.758029   -0.062441
      5          1           0       -3.679595   -0.243294    0.848254
      6          1           0       -3.531753   -0.466737   -2.198251
      7          1           0       -4.947251    0.047177   -1.287286
      8          1           0       -5.034072   -2.195510   -0.147335
      9          1           0       -3.610531   -2.712345   -1.063476
     10          1           0       -5.131918   -2.376379   -1.907170
     11          6           0       -2.718411    1.340362   -0.253731
     12          6           0       -1.813608    1.819159    0.882082
     13          6           0       -1.386489    3.278569    0.722442
     14          1           0       -2.192600    1.466962   -1.210230
     15          1           0       -3.609217    1.981697   -0.299535
     16          1           0       -0.924943    1.176491    0.925310
     17          1           0       -2.340441    1.690406    1.836275
     18          1           0       -2.261663    3.936013    0.701500
     19          1           0       -0.838123    3.419179   -0.214641
     20          1           0       -0.740277    3.600048    1.545195
     21          6           0        2.434183   -1.177591    0.287917
     22          6           0        1.572630   -0.995652    1.537961
     23          6           0        0.573433   -2.135506    1.738290
     24          1           0        1.780878   -1.253314   -0.592084
     25          1           0        2.974454   -2.131755    0.359145
     26          1           0        1.035206   -0.041465    1.465030
     27          1           0        2.228070   -0.920161    2.415066
     28          1           0        1.095626   -3.092692    1.836833
     29          1           0       -0.104016   -2.209003    0.881399
     30          1           0       -0.032052   -1.985212    2.637545
     31          6           0        3.438011   -0.046078    0.074060
     32          6           0        4.299565   -0.228016   -1.175984
     33          6           0        5.298762    0.911838   -1.376314
     34          1           0        2.897741    0.908087    0.002831
     35          1           0        4.091316    0.029646    0.954061
     36          1           0        3.644124   -0.303507   -2.053090
     37          1           0        4.836988   -1.182204   -1.103054
     38          1           0        5.976211    0.985335   -0.519424
     39          1           0        4.776569    1.869024   -1.474857
     40          1           0        5.904247    0.761544   -2.275569
 ---------------------------------------------------------------------

 SCF Done:  E(RHF) =  -470.733241093     A.U. after   11 cycles
 E2 =    -0.1583449659D+01 EUMP2 =    -0.47231669075259D+03

 The electronic state is 1-A.
 Alpha  occ. eigenvalues --  -11.21626 -11.21617 -11.21617 -11.21616 -11.21437
 Alpha  occ. eigenvalues --  -11.21426 -11.21377 -11.21365 -11.21105 -11.21094
 Alpha  occ. eigenvalues --  -11.21088 -11.21077  -1.08476  -1.08438  -1.03573
 Alpha  occ. eigenvalues --   -1.03536  -0.96008  -0.95995  -0.87033  -0.87001
 Alpha  occ. eigenvalues --   -0.79690  -0.79549  -0.78305  -0.78236  -0.65246
 Alpha  occ. eigenvalues --   -0.64955  -0.61079  -0.60842  -0.59406  -0.59329
 Alpha  occ. eigenvalues --   -0.57646  -0.57577  -0.55340  -0.55250  -0.52702
 Alpha  occ. eigenvalues --   -0.52683  -0.52446  -0.52408  -0.50063  -0.49847
 Alpha  occ. eigenvalues --   -0.48053  -0.47884  -0.46907  -0.46406  -0.45976
 Alpha  occ. eigenvalues --   -0.45768  -0.45743  -0.45464  -0.43810  -0.43801
 Alpha virt. eigenvalues --    0.20014   0.23184   0.23842   0.23944   0.25950
 Alpha virt. eigenvalues --    0.26837   0.27030   0.27524   0.28159   0.29364
 Alpha virt. eigenvalues --    0.30272   0.31551   0.31796   0.31864   0.32133

 Mulliken charges:
               1
     1  C   -0.302219
     2  C   -0.299601
     3  C   -0.475634
     4  H    0.153194
     5  H    0.149878
     6  H    0.151650
     7  H    0.152085
     8  H    0.155409
     9  H    0.155058
    10  H    0.160286
    11  C   -0.297507
    12  C   -0.308940
    13  C   -0.475361
    14  H    0.148935
    15  H    0.149907
    16  H    0.160207
    17  H    0.152244
    18  H    0.155532
    19  H    0.154630
    20  H    0.160391
    21  C   -0.297862
    22  C   -0.307892
    23  C   -0.477725
    24  H    0.148754
    25  H    0.149822
    26  H    0.158794
    27  H    0.152549
    28  H    0.155333
    29  H    0.156663
    30  H    0.161239
    31  C   -0.298385
    32  C   -0.299651
    33  C   -0.475742
    34  H    0.149412
    35  H    0.149901
    36  H    0.151768
    37  H    0.152028
    38  H    0.155274
    39  H    0.155263
    40  H    0.160313
 Sum of Mulliken charges =  -0.00000

 Dipole moment (field-independent basis, Debye):
    X=             -0.0007    Y=             -0.0035    Z=              0.0205  Tot=              0.0208
 Quadrupole moment (field-independent basis, Debye-Ang):
   XX=            -84.3073   YY=            -86.0941   ZZ=            -84.2580
   XY=             -1.5963   XZ=              0.1429   YZ=              0.0501

 Normal termination of Gaussian 16 at Wed May  5 16:41:32 2021.
