 Gaussian 16, Revision A.03,
 Gaussian 16:  EM64L-G16RevA.03 25-Dec-2016

 -------------
 #p 6-31g* mp2
 -------------

 ------------------------------------------------------
 Input file generated by CHIRIPA (05-May-2021 14:51:08)
 ------------------------------------------------------
 Symbolic Z-matrix:
 Charge =  0 Multiplicity = 1

                         Standard orientation:
 ---------------------------------------------------------------------
 Center     Atomic      Atomic             Coordinates (Angstroms)
 Number     Number       Type             X           Y           Z
 ---------------------------------------------------------------------
      1          6           0       -2.439241    1.355399    0.375262
      2          6           0       -1.305794    2.367791    0.206903
      3          6           0       -1.443924    3.570567    1.140735
      4          1           0       -3.399735    1.855917    0.191201
      5          1           0       -2.461401    1.010356    1.418262
      6          1           0       -1.284902    2.709783   -0.835796
      7          1           0       -0.347874    1.864759    0.391198
      8          1           0       -1.442427    3.248148    2.186988
      9          1           0       -2.384779    4.097973    0.953022
     10          1           0       -0.623236    4.281583    1.003668
     11          6           0       -2.315120    0.147337   -0.551512
     12          6           0       -3.448567   -0.865055   -0.383154
     13          6           0       -3.310437   -2.067831   -1.316986
     14          1           0       -2.292961    0.492380   -1.594513
     15          1           0       -1.354626   -0.353181   -0.367452
     16          1           0       -4.406487   -0.362022   -0.567449
     17          1           0       -3.469460   -1.207047    0.659545
     18          1           0       -2.369583   -2.595237   -1.129273
     19          1           0       -3.311934   -1.745412   -2.363239
     20          1           0       -4.131125   -2.778847   -1.179919
     21          6           0        1.884311   -1.326975   -0.007731
     22          6           0        1.591303   -2.095396    1.281323
     23          6           0        0.603608   -3.243882    1.073399
     24          1           0        0.942722   -0.933578   -0.414664
     25          1           0        2.282774   -2.023054   -0.758796
     26          1           0        1.194809   -1.397814    2.030180
     27          1           0        2.533724   -2.486847    1.685336
     28          1           0        0.995447   -3.962009    0.345830
     29          1           0       -0.351076   -2.866789    0.692634
     30          1           0        0.408444   -3.779643    2.007600
     31          6           0        2.870050   -0.175761    0.183982
     32          6           0        3.163058    0.592660   -1.105072
     33          6           0        4.150753    1.741146   -0.897148
     34          1           0        2.471587    0.520317    0.935046
     35          1           0        3.811639   -0.569158    0.590915
     36          1           0        2.220638    0.984111   -1.509085
     37          1           0        3.559553   -0.104922   -1.853930
     38          1           0        5.105436    1.364052   -0.516383
     39          1           0        3.758915    2.459272   -0.169579
     40          1           0        4.345916    2.276907   -1.831349
 ---------------------------------------------------------------------

 SCF Done:  E(RHF) =  -470.733201738     A.U. after   11 cycles
 E2 =    -0.1584426890D+01 EUMP2 =    -0.47231762862784D+03

 The electronic state is 1-A.
 Alpha  occ. eigenvalues --  -11.21687 -11.21658 -11.21644 -11.21596 -11.21467
 Alpha  occ. eigenvalues --  -11.21427 -11.21406 -11.21367 -11.21141 -11.21134
 Alpha  occ. eigenvalues --  -11.21088 -11.21067  -1.08518  -1.08442  -1.03597
 Alpha  occ. eigenvalues --   -1.03550  -0.96043  -0.96000  -0.87064  -0.87011
 Alpha  occ. eigenvalues --   -0.79673  -0.79600  -0.78416  -0.78180  -0.65386
 Alpha  occ. eigenvalues --   -0.64861  -0.61123  -0.60832  -0.59419  -0.59354
 Alpha  occ. eigenvalues --   -0.57698  -0.57574  -0.55433  -0.55199  -0.52725
 Alpha  occ. eigenvalues --   -0.52701  -0.52528  -0.52365  -0.50088  -0.49834
 Alpha  occ. eigenvalues --   -0.48091  -0.47853  -0.46841  -0.46600  -0.46300
 Alpha  occ. eigenvalues --   -0.45801  -0.45764  -0.45132  -0.43840  -0.43811
 Alpha virt. eigenvalues --    0.18991   0.21407   0.23958   0.24960   0.25348
 Alpha virt. eigenvalues --    0.26608   0.27066   0.27299   0.28425   0.30038
 Alpha virt. eigenvalues --    0.31322   0.31400   0.31742   0.31897   0.31994

 Mulliken charges:
               1
     1  C   -0.297571
     2  C   -0.302581
     3  C   -0.475730
     4  H    0.150204
     5  H    0.149473
     6  H    0.152246
     7  H    0.153267
     8  H    0.155277
     9  H    0.155645
    10  H    0.160425
    11  C   -0.309340
    12  C   -0.298975
    13  C   -0.479478
    14  H    0.149723
    15  H    0.158940
    16  H    0.152324
    17  H    0.152015
    18  H    0.158392
    19  H    0.155398
    20  H    0.160705
    21  C   -0.307885
    22  C   -0.299108
    23  C   -0.481174
    24  H    0.157831
    25  H    0.150024
    26  H    0.151224
    27  H    0.152527
    28  H    0.155862
    29  H    0.158874
    30  H    0.160788
    31  C   -0.298479
    32  C   -0.300806
    33  C   -0.475671
    34  H    0.149650
    35  H    0.149856
    36  H    0.153612
    37  H    0.151954
    38  H    0.155070
    39  H    0.155175
    40  H    0.160316
 Sum of Mulliken charges =  -0.00000

 Dipole moment (field-independent basis, Debye):
    X=             -0.0110    Y=              0.0008    Z=             -0.0124  Tot=              0.0166
 Quadrupole moment (field-independent basis, Debye-Ang):
   XX=            -84.3218   YY=            -85.6901   ZZ=            -84.5949
   XY=             -1.4509   XZ=              0.2144   YZ=             -0.7833

 Normal termination of Gaussian 16 at Wed May  5 16:36:40 2021.
