 Gaussian 16, Revision A.03,
 Gaussian 16:  EM64L-G16RevA.03 25-Dec-2016

 -------------
 #p 6-31g* mp2
 -------------

 ------------------------------------------------------
 Input file generated by CHIRIPA (05-May-2021 14:51:11)
 ------------------------------------------------------
 Symbolic Z-matrix:
 Charge =  0 Multiplicity = 1

                         Standard orientation:
 ---------------------------------------------------------------------
 Center     Atomic      Atomic             Coordinates (Angstroms)
 Number     Number       Type             X           Y           Z
 ---------------------------------------------------------------------
      1          6           0        3.838670   -0.413216   -0.298816
      2          6           0        5.350691   -0.496648   -0.087118
      3          6           0        6.102317   -0.915782   -1.350914
      4          1           0        3.468285   -1.389374   -0.640685
      5          1           0        3.627382    0.301505   -1.106236
      6          1           0        5.558990   -1.209964    0.720600
      7          1           0        5.717491    0.479770    0.254471
      8          1           0        5.923857   -0.200526   -2.160335
      9          1           0        5.764455   -1.899861   -1.691557
     10          1           0        7.181576   -0.969064   -1.177074
     11          6           0        3.073458    0.004610    0.955616
     12          6           0        1.561437    0.088042    0.743917
     13          6           0        0.809811    0.507176    2.007713
     14          1           0        3.284747   -0.710111    1.763036
     15          1           0        3.443843    0.980769    1.297485
     16          1           0        1.194637   -0.888376    0.402329
     17          1           0        1.353138    0.801358   -0.063800
     18          1           0        1.147673    1.491255    2.348357
     19          1           0        0.988272   -0.208079    2.817134
     20          1           0       -0.269448    0.560458    1.833874
     21          6           0       -2.764574    0.512108   -0.431015
     22          6           0       -2.780127    2.040717   -0.464135
     23          6           0       -1.389386    2.641726   -0.670099
     24          1           0       -2.095544    0.175901    0.372919
     25          1           0       -2.337228    0.136265   -1.370968
     26          1           0       -3.208593    2.413539    0.475033
     27          1           0       -3.449347    2.373325   -1.267958
     28          1           0       -0.957315    2.297979   -1.615485
     29          1           0       -0.715193    2.338422    0.137410
     30          1           0       -1.423708    3.735464   -0.690593
     31          6           0       -4.147554   -0.103502   -0.225785
     32          6           0       -4.132001   -1.632111   -0.192665
     33          6           0       -5.522742   -2.233120    0.013300
     34          1           0       -4.574900    0.272341    0.714168
     35          1           0       -4.816584    0.232704   -1.029718
     36          1           0       -3.462781   -1.964719    0.611159
     37          1           0       -3.703534   -2.004934   -1.131832
     38          1           0       -6.196935   -1.929816   -0.794210
     39          1           0       -5.954813   -1.889373    0.958686
     40          1           0       -5.488420   -3.326858    0.033794
 ---------------------------------------------------------------------

 SCF Done:  E(RHF) =  -470.732433413     A.U. after   11 cycles
 E2 =    -0.1583914779D+01 EUMP2 =    -0.47231634819224D+03

 The electronic state is 1-A.
 Alpha  occ. eigenvalues --  -11.21601 -11.21592 -11.21590 -11.21565 -11.21399
 Alpha  occ. eigenvalues --  -11.21391 -11.21338 -11.21332 -11.21098 -11.21070
 Alpha  occ. eigenvalues --  -11.21062 -11.21005  -1.08451  -1.08399  -1.03585
 Alpha  occ. eigenvalues --   -1.03472  -0.96022  -0.95944  -0.87012  -0.86988
 Alpha  occ. eigenvalues --   -0.79614  -0.79566  -0.78290  -0.78186  -0.65116
 Alpha  occ. eigenvalues --   -0.65033  -0.61097  -0.60844  -0.59512  -0.59179
 Alpha  occ. eigenvalues --   -0.57665  -0.57501  -0.55426  -0.55112  -0.52730
 Alpha  occ. eigenvalues --   -0.52648  -0.52431  -0.52382  -0.49985  -0.49853
 Alpha  occ. eigenvalues --   -0.47944  -0.47877  -0.46623  -0.46576  -0.45838
 Alpha  occ. eigenvalues --   -0.45738  -0.45680  -0.45616  -0.43780  -0.43751
 Alpha virt. eigenvalues --    0.20983   0.23053   0.23567   0.25094   0.25889
 Alpha virt. eigenvalues --    0.26571   0.26954   0.27554   0.27762   0.29321
 Alpha virt. eigenvalues --    0.30980   0.31428   0.31634   0.31724   0.32130

 Mulliken charges:
               1
     1  C   -0.298305
     2  C   -0.299653
     3  C   -0.475711
     4  H    0.149634
     5  H    0.149719
     6  H    0.151873
     7  H    0.151960
     8  H    0.155203
     9  H    0.155140
    10  H    0.160216
    11  C   -0.298024
    12  C   -0.303111
    13  C   -0.483806
    14  H    0.149315
    15  H    0.149633
    16  H    0.152275
    17  H    0.156544
    18  H    0.155327
    19  H    0.156149
    20  H    0.164477
    21  C   -0.305687
    22  C   -0.299253
    23  C   -0.483788
    24  H    0.155972
    25  H    0.149955
    26  H    0.151536
    27  H    0.151964
    28  H    0.154653
    29  H    0.165569
    30  H    0.159727
    31  C   -0.297736
    32  C   -0.299691
    33  C   -0.475702
    34  H    0.149412
    35  H    0.149758
    36  H    0.151860
    37  H    0.151960
    38  H    0.155199
    39  H    0.155222
    40  H    0.160215
 Sum of Mulliken charges =  -0.00000

 Dipole moment (field-independent basis, Debye):
    X=              0.0089    Y=             -0.0017    Z=             -0.0019  Tot=              0.0092
 Quadrupole moment (field-independent basis, Debye-Ang):
   XX=            -86.1952   YY=            -84.2788   ZZ=            -84.4245
   XY=             -0.2056   XZ=              0.7829   YZ=             -0.3742

 Normal termination of Gaussian 16 at Thu May  6 05:25:20 2021.
