 Gaussian 16, Revision A.03,
 Gaussian 16:  EM64L-G16RevA.03 25-Dec-2016

 -------------
 #p 6-31g* mp2
 -------------

 ------------------------------------------------------
 Input file generated by CHIRIPA (05-May-2021 14:55:24)
 ------------------------------------------------------
 Symbolic Z-matrix:
 Charge =  0 Multiplicity = 1

                         Standard orientation:
 ---------------------------------------------------------------------
 Center     Atomic      Atomic             Coordinates (Angstroms)
 Number     Number       Type             X           Y           Z
 ---------------------------------------------------------------------
      1          6           0       -5.712130    1.441893    0.029803
      2          6           0       -5.757185    0.048176   -0.079942
      3          6           0       -4.576732   -0.700347   -0.108085
      4          6           0       -3.363172   -0.019542   -0.024013
      5          6           0       -3.285466    1.367949    0.086081
      6          6           0       -4.478588    2.096178    0.112319
      7          1           0       -6.634055    2.015482    0.050925
      8          1           0       -6.713741   -0.462625   -0.144197
      9          1           0       -4.582656   -1.780290   -0.192381
     10          1           0       -2.316869    1.848952    0.148322
     11          1           0       -4.440563    3.178455    0.197618
     12          7           0       -2.106773   -0.801228   -0.052798
     13          8           0       -1.050336   -0.177639    0.022798
     14          8           0       -2.202235   -2.022700   -0.150411
     15          6           0        3.817622   -0.259321    0.081514
     16          6           0        3.436440   -1.740071    0.073659
     17          6           0        1.928102   -1.962826    0.188072
     18          1           0        3.446287    0.203448    1.006123
     19          1           0        3.307100    0.247961   -0.748804
     20          1           0        3.948617   -2.244683    0.902911
     21          1           0        3.808893   -2.199411   -0.850950
     22          1           0        1.403791   -1.485183   -0.645926
     23          1           0        1.544308   -1.530711    1.117900
     24          1           0        1.677918   -3.028290    0.180501
     25          6           0        5.322198   -0.020461   -0.032185
     26          6           0        5.703380    1.460290   -0.024330
     27          6           0        7.211718    1.683046   -0.138743
     28          1           0        5.832719   -0.527741    0.798134
     29          1           0        5.693533   -0.483228   -0.956793
     30          1           0        5.330927    1.919631    0.900280
     31          1           0        5.191204    1.964902   -0.853581
     32          1           0        7.595513    1.250930   -1.068571
     33          1           0        7.736029    1.205401    0.695256
     34          1           0        7.461902    2.748508   -0.131172
 ---------------------------------------------------------------------

 SCF Done:  E(RHF) =  -669.535587624     A.U. after   15 cycles
 E2 =    -0.2091244542D+01 EUMP2 =    -0.67162683216584D+03

 The electronic state is 1-A.
 Alpha  occ. eigenvalues --  -20.60905 -20.60897 -15.85933 -11.31280 -11.27845
 Alpha  occ. eigenvalues --  -11.27841 -11.27585 -11.26856 -11.26846 -11.20924
 Alpha  occ. eigenvalues --  -11.20529 -11.20507 -11.20219 -11.20124 -11.18908
 Alpha  occ. eigenvalues --   -1.59962  -1.39519  -1.19450  -1.08850  -1.07389
 Alpha  occ. eigenvalues --   -1.04849  -1.02370  -0.95691  -0.94771  -0.86249
 Alpha  occ. eigenvalues --   -0.85773  -0.82520  -0.78484  -0.77570  -0.77121
 Alpha  occ. eigenvalues --   -0.72146  -0.71281  -0.70557  -0.65104  -0.64851
 Alpha  occ. eigenvalues --   -0.64039  -0.62195  -0.59781  -0.58271  -0.56381
 Alpha  occ. eigenvalues --   -0.55352  -0.54066  -0.53179  -0.52941  -0.51466
 Alpha  occ. eigenvalues --   -0.51243  -0.48970  -0.48902  -0.48647  -0.46656
 Alpha  occ. eigenvalues --   -0.45561  -0.44932  -0.44615  -0.44537  -0.42632
 Alpha  occ. eigenvalues --   -0.37430  -0.36451
 Alpha virt. eigenvalues --    0.04949   0.11204   0.16442   0.21342   0.23796
 Alpha virt. eigenvalues --    0.25516   0.27255   0.27646   0.28209   0.28461
 Alpha virt. eigenvalues --    0.29349   0.30911   0.32448   0.32588   0.32686

 Mulliken charges:
               1
     1  C   -0.170661
     2  C   -0.218575
     3  C   -0.170780
     4  C    0.157982
     5  C   -0.170989
     6  C   -0.218541
     7  H    0.225918
     8  H    0.223759
     9  H    0.275860
    10  H    0.275786
    11  H    0.223768
    12  N    0.488333
    13  O   -0.458252
    14  O   -0.458706
    15  C   -0.295942
    16  C   -0.302167
    17  C   -0.468647
    18  H    0.148494
    19  H    0.149827
    20  H    0.145169
    21  H    0.146101
    22  H    0.169406
    23  H    0.156518
    24  H    0.154719
    25  C   -0.297243
    26  C   -0.298603
    27  C   -0.475017
    28  H    0.147429
    29  H    0.147719
    30  H    0.150517
    31  H    0.150672
    32  H    0.154288
    33  H    0.154243
    34  H    0.157614
 Sum of Mulliken charges =  -0.00000

 Dipole moment (field-independent basis, Debye):
    X=             -4.8531    Y=              2.7644    Z=              0.0800  Tot=              5.5858
 Quadrupole moment (field-independent basis, Debye-Ang):
   XX=            -66.8723   YY=            -91.8645   ZZ=            -94.6727
   XY=             -7.0064   XZ=              0.1215   YZ=              0.3839

 Normal termination of Gaussian 16 at Thu May  6 14:19:38 2021.
