 Gaussian 16, Revision A.03,
 Gaussian 16:  EM64L-G16RevA.03 25-Dec-2016

 -------------
 #p 6-31g* mp2
 -------------

 ------------------------------------------------------
 Input file generated by CHIRIPA (05-May-2021 14:57:21)
 ------------------------------------------------------
 Symbolic Z-matrix:
 Charge =  0 Multiplicity = 1

                         Standard orientation:
 ---------------------------------------------------------------------
 Center     Atomic      Atomic             Coordinates (Angstroms)
 Number     Number       Type             X           Y           Z
 ---------------------------------------------------------------------
      1          6           0       -4.094220   -1.990789    0.202389
      2          6           0       -3.042575   -1.619737    1.046713
      3          6           0       -2.497034   -0.334323    0.978564
      4          6           0       -3.029799    0.558746    0.050190
      5          6           0       -4.077271    0.218972   -0.804587
      6          6           0       -4.607307   -1.071871   -0.718942
      7          1           0       -4.511988   -2.991438    0.262124
      8          1           0       -2.642111   -2.331303    1.763196
      9          1           0       -1.682614   -0.020672    1.620250
     10          1           0       -4.455459    0.950196   -1.508649
     11          1           0       -5.424000   -1.357268   -1.375909
     12          7           0       -2.460466    1.922430   -0.031217
     13          8           0       -2.947575    2.690735   -0.857697
     14          8           0       -1.537894    2.197158    0.732997
     15          6           0        4.848661    1.501880    0.076976
     16          6           0        5.237954    0.199246   -0.251836
     17          6           0        4.290741   -0.825846   -0.332603
     18          6           0        2.956862   -0.511480   -0.077198
     19          6           0        2.537774    0.776458    0.252757
     20          6           0        3.502187    1.785828    0.327781
     21          1           0        5.591160    2.292089    0.137486
     22          1           0        6.282936   -0.024182   -0.447126
     23          1           0        4.564566   -1.843044   -0.585081
     24          1           0        1.488632    0.968521    0.442052
     25          1           0        3.196969    2.796554    0.583357
     26          7           0        1.944986   -1.588377   -0.159662
     27          8           0        0.776128   -1.285534    0.069892
     28          8           0        2.339895   -2.714899   -0.452290
 ---------------------------------------------------------------------

 SCF Done:  E(RHF) =  -868.341075108     A.U. after   16 cycles
 E2 =    -0.2599049517D+01 EUMP2 =    -0.87094012462509D+03

 The electronic state is 1-A.
 Alpha  occ. eigenvalues --  -20.60831 -20.60798 -20.60529 -20.60477 -15.85854
 Alpha  occ. eigenvalues --  -15.85523 -11.30910 -11.30412 -11.27512 -11.27330
 Alpha  occ. eigenvalues --  -11.27182 -11.27021 -11.26896 -11.26671 -11.26474
 Alpha  occ. eigenvalues --  -11.26333 -11.25959 -11.25810  -1.59890  -1.59561
 Alpha  occ. eigenvalues --   -1.39453  -1.39132  -1.19070  -1.18566  -1.08534
 Alpha  occ. eigenvalues --   -1.08063  -1.04411  -1.03900  -0.95412  -0.94968
 Alpha  occ. eigenvalues --   -0.85833  -0.85342  -0.82252  -0.81825  -0.77330
 Alpha  occ. eigenvalues --   -0.76896  -0.72110  -0.71767  -0.71200  -0.70846
 Alpha  occ. eigenvalues --   -0.70176  -0.69708  -0.64726  -0.64411  -0.64237
 Alpha  occ. eigenvalues --   -0.63929  -0.61738  -0.61266  -0.54956  -0.54478
 Alpha  occ. eigenvalues --   -0.52786  -0.52490  -0.52234  -0.52015  -0.48844
 Alpha  occ. eigenvalues --   -0.48815  -0.48530  -0.48473  -0.44927  -0.44635
 Alpha  occ. eigenvalues --   -0.37067  -0.36542  -0.36008  -0.35428
 Alpha virt. eigenvalues --    0.05168   0.05567   0.11639   0.12191   0.16709
 Alpha virt. eigenvalues --    0.17124   0.21610   0.22317   0.27137   0.28022
 Alpha virt. eigenvalues --    0.28457   0.29456   0.31041   0.31750   0.32348

 Mulliken charges:
               1
     1  C   -0.169637
     2  C   -0.213462
     3  C   -0.153505
     4  C    0.154785
     5  C   -0.171618
     6  C   -0.219305
     7  H    0.224146
     8  H    0.225852
     9  H    0.274880
    10  H    0.271815
    11  H    0.220271
    12  N    0.490129
    13  O   -0.460991
    14  O   -0.471305
    15  C   -0.170352
    16  C   -0.219324
    17  C   -0.171403
    18  C    0.156229
    19  C   -0.176013
    20  C   -0.220551
    21  H    0.225466
    22  H    0.222015
    23  H    0.273324
    24  H    0.288198
    25  H    0.229943
    26  N    0.491504
    27  O   -0.469460
    28  O   -0.461632
 Sum of Mulliken charges =  -0.00000

 Dipole moment (field-independent basis, Debye):
    X=              1.6077    Y=             -1.0534    Z=              0.6481  Tot=              2.0284
 Quadrupole moment (field-independent basis, Debye-Ang):
   XX=            -68.3575   YY=           -112.6756   ZZ=           -103.1567
   XY=             20.4310   XZ=              1.2346   YZ=             -0.6965

 Normal termination of Gaussian 16 at Thu May  6 03:18:07 2021.
