 Gaussian 16, Revision A.03,
 Gaussian 16:  EM64L-G16RevA.03 25-Dec-2016

 -------------
 #p 6-31g* mp2
 -------------

 ------------------------------------------------------
 Input file generated by CHIRIPA (05-May-2021 14:55:23)
 ------------------------------------------------------
 Symbolic Z-matrix:
 Charge =  0 Multiplicity = 1

                         Standard orientation:
 ---------------------------------------------------------------------
 Center     Atomic      Atomic             Coordinates (Angstroms)
 Number     Number       Type             X           Y           Z
 ---------------------------------------------------------------------
      1          6           0       -1.591159    2.634109    0.285987
      2          6           0       -1.694434    1.750348    1.365256
      3          6           0       -2.317851    0.508768    1.209121
      4          6           0       -2.829179    0.181870   -0.045858
      5          6           0       -2.741854    1.040768   -1.140371
      6          6           0       -2.114276    2.277128   -0.961184
      7          1           0       -1.105257    3.596570    0.416230
      8          1           0       -1.289086    2.024923    2.334970
      9          1           0       -2.411542   -0.194483    2.027704
     10          1           0       -3.155541    0.739018   -2.094954
     11          1           0       -2.035512    2.961469   -1.801135
     12          7           0       -3.491365   -1.129772   -0.223353
     13          8           0       -3.933727   -1.394096   -1.339188
     14          8           0       -3.555487   -1.868676    0.756721
     15          6           0        4.019730    0.019802    0.138509
     16          6           0        5.363868   -0.329914   -0.501004
     17          6           0        6.430111    0.738597   -0.257690
     18          1           0        3.672073    0.983674   -0.257763
     19          1           0        4.160912    0.158808    1.219313
     20          1           0        5.219936   -0.469576   -1.580076
     21          1           0        5.708274   -1.293158   -0.103309
     22          1           0        6.602863    0.873203    0.814989
     23          1           0        6.111751    1.701462   -0.670169
     24          1           0        7.382928    0.468347   -0.723484
     25          6           0        2.943579   -1.038796   -0.096001
     26          6           0        1.599440   -0.689080    0.543512
     27          6           0        0.533198   -1.757592    0.300197
     28          1           0        2.802396   -1.177802   -1.176807
     29          1           0        3.291236   -2.002668    0.300270
     30          1           0        1.255035    0.274163    0.145816
     31          1           0        1.743373   -0.549417    1.622583
     32          1           0        0.851559   -2.720457    0.712676
     33          1           0        0.360446   -1.892197   -0.772481
     34          1           0       -0.419619   -1.487342    0.765992
 ---------------------------------------------------------------------

 SCF Done:  E(RHF) =  -669.534888412     A.U. after   15 cycles
 E2 =    -0.2093555088D+01 EUMP2 =    -0.67162844349942D+03

 The electronic state is 1-A.
 Alpha  occ. eigenvalues --  -20.60838 -20.60819 -15.85863 -11.31224 -11.27810
 Alpha  occ. eigenvalues --  -11.27803 -11.27566 -11.26840 -11.26829 -11.21751
 Alpha  occ. eigenvalues --  -11.21639 -11.21558 -11.21436 -11.21253 -11.20862
 Alpha  occ. eigenvalues --   -1.59890  -1.39447  -1.19425  -1.08813  -1.08534
 Alpha  occ. eigenvalues --   -1.04836  -1.03596  -0.96042  -0.95643  -0.87060
 Alpha  occ. eigenvalues --   -0.86224  -0.82478  -0.79668  -0.78354  -0.77525
 Alpha  occ. eigenvalues --   -0.72089  -0.71216  -0.70539  -0.65168  -0.65077
 Alpha  occ. eigenvalues --   -0.64831  -0.62189  -0.60999  -0.59455  -0.57707
 Alpha  occ. eigenvalues --   -0.55336  -0.55327  -0.53348  -0.52924  -0.52582
 Alpha  occ. eigenvalues --   -0.52317  -0.49973  -0.48853  -0.48844  -0.47990
 Alpha  occ. eigenvalues --   -0.46710  -0.45890  -0.45824  -0.44861  -0.43841
 Alpha  occ. eigenvalues --   -0.37347  -0.36383
 Alpha virt. eigenvalues --    0.04988   0.11143   0.16488   0.21276   0.22757
 Alpha virt. eigenvalues --    0.24227   0.26496   0.26984   0.27431   0.27810
 Alpha virt. eigenvalues --    0.28437   0.30497   0.31352   0.31644   0.31765

 Mulliken charges:
               1
     1  C   -0.171700
     2  C   -0.215497
     3  C   -0.176623
     4  C    0.164452
     5  C   -0.171262
     6  C   -0.218567
     7  H    0.226050
     8  H    0.224280
     9  H    0.275889
    10  H    0.275744
    11  H    0.223623
    12  N    0.489288
    13  O   -0.459653
    14  O   -0.460323
    15  C   -0.297563
    16  C   -0.299664
    17  C   -0.475577
    18  H    0.146577
    19  H    0.148286
    20  H    0.152373
    21  H    0.153105
    22  H    0.154831
    23  H    0.153757
    24  H    0.160980
    25  C   -0.298223
    26  C   -0.300766
    27  C   -0.479120
    28  H    0.150257
    29  H    0.151044
    30  H    0.150832
    31  H    0.146957
    32  H    0.157390
    33  H    0.156209
    34  H    0.162612
 Sum of Mulliken charges =  -0.00000

 Dipole moment (field-independent basis, Debye):
    X=              2.2441    Y=              4.6101    Z=              0.6002  Tot=              5.1623
 Quadrupole moment (field-independent basis, Debye-Ang):
   XX=           -109.4005   YY=            -93.5740   ZZ=            -89.5126
   XY=            -13.7769   XZ=             -0.7963   YZ=             -1.7415

 Normal termination of Gaussian 16 at Thu May  6 07:52:34 2021.
