 Gaussian 16, Revision A.03,
 Gaussian 16:  EM64L-G16RevA.03 25-Dec-2016

 -------------
 #p 6-31g* mp2
 -------------

 ------------------------------------------------------
 Input file generated by CHIRIPA (05-May-2021 14:51:10)
 ------------------------------------------------------
 Symbolic Z-matrix:
 Charge =  0 Multiplicity = 1

                         Standard orientation:
 ---------------------------------------------------------------------
 Center     Atomic      Atomic             Coordinates (Angstroms)
 Number     Number       Type             X           Y           Z
 ---------------------------------------------------------------------
      1          6           0        3.489013    0.124888    0.053074
      2          6           0        4.028025   -0.671539   -1.135688
      3          6           0        5.083896   -1.699697   -0.728474
      4          1           0        4.323884    0.633427    0.554395
      5          1           0        3.060461   -0.570935    0.787627
      6          1           0        4.454191    0.025681   -1.868412
      7          1           0        3.191748   -1.178087   -1.634353
      8          1           0        4.667207   -2.417891   -0.014914
      9          1           0        5.936822   -1.207284   -0.250303
     10          1           0        5.455552   -2.257677   -1.593569
     11          6           0        2.432593    1.156756   -0.338018
     12          6           0        1.893581    1.953183    0.850744
     13          6           0        0.837711    2.981341    0.443530
     14          1           0        2.861146    1.852579   -1.072572
     15          1           0        1.597722    0.648218   -0.839340
     16          1           0        2.729858    2.459731    1.349408
     17          1           0        1.467416    1.255964    1.583468
     18          1           0       -0.015216    2.488928   -0.034641
     19          1           0        1.254399    3.699536   -0.270030
     20          1           0        0.466054    3.539321    1.308625
     21          6           0       -3.710686   -0.718127    0.019460
     22          6           0       -4.324483    0.456940   -0.742417
     23          6           0       -5.825250    0.287665   -0.980831
     24          1           0       -3.892041   -1.645293   -0.541270
     25          1           0       -4.225723   -0.830116    0.983612
     26          1           0       -3.807517    0.567545   -1.704254
     27          1           0       -4.141478    1.381442   -0.179905
     28          1           0       -6.359018    0.199737   -0.029012
     29          1           0       -6.023160   -0.618784   -1.562023
     30          1           0       -6.243516    1.138921   -1.526979
     31          6           0       -2.210921   -0.563517    0.265484
     32          6           0       -1.597123   -1.738583    1.027363
     33          6           0       -0.096357   -1.569309    1.265776
     34          1           0       -1.695884   -0.451528   -0.698668
     35          1           0       -2.029565    0.363649    0.826214
     36          1           0       -1.780127   -2.663086    0.464849
     37          1           0       -2.114089   -1.849190    1.989198
     38          1           0        0.101553   -0.662861    1.846967
     39          1           0        0.437412   -1.481382    0.313956
     40          1           0        0.321909   -2.420565    1.811923
 ---------------------------------------------------------------------

 SCF Done:  E(RHF) =  -470.732840956     A.U. after   11 cycles
 E2 =    -0.1584326471D+01 EUMP2 =    -0.47231716742660D+03

 The electronic state is 1-A.
 Alpha  occ. eigenvalues --  -11.21689 -11.21636 -11.21558 -11.21496 -11.21481
 Alpha  occ. eigenvalues --  -11.21414 -11.21310 -11.21248 -11.21165 -11.21096
 Alpha  occ. eigenvalues --  -11.21030 -11.21000  -1.08507  -1.08347  -1.03604
 Alpha  occ. eigenvalues --   -1.03458  -0.96062  -0.95904  -0.87082  -0.86922
 Alpha  occ. eigenvalues --   -0.79673  -0.79529  -0.78316  -0.78167  -0.65132
 Alpha  occ. eigenvalues --   -0.65011  -0.61084  -0.60812  -0.59403  -0.59284
 Alpha  occ. eigenvalues --   -0.57663  -0.57517  -0.55427  -0.55135  -0.52745
 Alpha  occ. eigenvalues --   -0.52626  -0.52468  -0.52334  -0.50074  -0.49787
 Alpha  occ. eigenvalues --   -0.48068  -0.47786  -0.46826  -0.46429  -0.45982
 Alpha  occ. eigenvalues --   -0.45817  -0.45549  -0.45479  -0.43850  -0.43711
 Alpha virt. eigenvalues --    0.20117   0.22733   0.23515   0.24788   0.25376
 Alpha virt. eigenvalues --    0.25889   0.26387   0.27769   0.28743   0.29622
 Alpha virt. eigenvalues --    0.30465   0.31142   0.31575   0.32055   0.32291

 Mulliken charges:
               1
     1  C   -0.301968
     2  C   -0.299706
     3  C   -0.475641
     4  H    0.149313
     5  H    0.154568
     6  H    0.151781
     7  H    0.150913
     8  H    0.155375
     9  H    0.155123
    10  H    0.159920
    11  C   -0.298956
    12  C   -0.303640
    13  C   -0.478279
    14  H    0.149165
    15  H    0.150531
    16  H    0.151459
    17  H    0.156308
    18  H    0.157840
    19  H    0.154981
    20  H    0.159167
    21  C   -0.298250
    22  C   -0.299896
    23  C   -0.475752
    24  H    0.149867
    25  H    0.149823
    26  H    0.151986
    27  H    0.152341
    28  H    0.155257
    29  H    0.155209
    30  H    0.160511
    31  C   -0.300873
    32  C   -0.300307
    33  C   -0.482697
    34  H    0.149261
    35  H    0.151870
    36  H    0.152259
    37  H    0.152339
    38  H    0.159935
    39  H    0.158386
    40  H    0.160476
 Sum of Mulliken charges =  -0.00000

 Dipole moment (field-independent basis, Debye):
    X=             -0.0463    Y=             -0.0312    Z=              0.0234  Tot=              0.0605
 Quadrupole moment (field-independent basis, Debye-Ang):
   XX=            -86.0054   YY=            -84.7894   ZZ=            -84.0535
   XY=              1.0157   XZ=             -0.6117   YZ=              0.4049

 Normal termination of Gaussian 16 at Thu May  6 05:22:33 2021.
