 Gaussian 16, Revision A.03,
 Gaussian 16:  EM64L-G16RevA.03 25-Dec-2016

 -------------
 #p 6-31g* mp2
 -------------

 ------------------------------------------------------
 Input file generated by CHIRIPA (05-May-2021 14:55:24)
 ------------------------------------------------------
 Symbolic Z-matrix:
 Charge =  0 Multiplicity = 1

                         Standard orientation:
 ---------------------------------------------------------------------
 Center     Atomic      Atomic             Coordinates (Angstroms)
 Number     Number       Type             X           Y           Z
 ---------------------------------------------------------------------
      1          6           0       -3.227703    2.315907   -0.940531
      2          6           0       -3.788223    1.086656   -1.302857
      3          6           0       -3.440975   -0.081526   -0.617790
      4          6           0       -2.525934    0.016475    0.429295
      5          6           0       -1.950239    1.226382    0.813992
      6          6           0       -2.312114    2.381731    0.114877
      7          1           0       -3.503136    3.218395   -1.478164
      8          1           0       -4.499542    1.032538   -2.122089
      9          1           0       -3.859702   -1.046254   -0.877376
     10          1           0       -1.243905    1.248733    1.634974
     11          1           0       -1.875213    3.335012    0.398456
     12          7           0       -2.150575   -1.213434    1.161981
     13          8           0       -1.342106   -1.100419    2.080808
     14          8           0       -2.671945   -2.267163    0.803560
     15          6           0        2.571217   -0.405726   -0.530718
     16          6           0        2.297054   -1.749869   -1.206070
     17          6           0        0.809826   -1.985787   -1.471189
     18          1           0        2.016475   -0.358536    0.416373
     19          1           0        2.178071    0.401759   -1.163804
     20          1           0        2.691830   -2.554498   -0.572555
     21          1           0        2.852666   -1.793941   -2.151569
     22          1           0        0.405744   -1.203704   -2.122084
     23          1           0        0.243995   -1.968582   -0.534099
     24          1           0        0.636565   -2.952395   -1.954419
     25          6           0        4.053546   -0.155373   -0.259144
     26          6           0        4.327708    1.188769    0.416208
     27          6           0        5.814936    1.424688    0.681328
     28          1           0        4.446691   -0.962859    0.373943
     29          1           0        4.608288   -0.202563   -1.206234
     30          1           0        3.772097    1.232842    1.361708
     31          1           0        3.932932    1.993398   -0.217306
     32          1           0        6.380768    1.407482   -0.255763
     33          1           0        6.219018    0.642605    1.332223
     34          1           0        5.988198    2.391295    1.164558
 ---------------------------------------------------------------------

 SCF Done:  E(RHF) =  -669.536062215     A.U. after   15 cycles
 E2 =    -0.2091594133D+01 EUMP2 =    -0.67162765634768D+03

 The electronic state is 1-A.
 Alpha  occ. eigenvalues --  -20.60848 -20.60836 -15.85877 -11.31199 -11.27768
 Alpha  occ. eigenvalues --  -11.27764 -11.27512 -11.26778 -11.26769 -11.21482
 Alpha  occ. eigenvalues --  -11.21195 -11.21149 -11.21041 -11.20968 -11.20591
 Alpha  occ. eigenvalues --   -1.59918  -1.39469  -1.19371  -1.08779  -1.08155
 Alpha  occ. eigenvalues --   -1.04769  -1.03249  -0.95695  -0.95621  -0.86715
 Alpha  occ. eigenvalues --   -0.86170  -0.82455  -0.79330  -0.77974  -0.77506
 Alpha  occ. eigenvalues --   -0.72102  -0.71252  -0.70486  -0.65028  -0.64779
 Alpha  occ. eigenvalues --   -0.64772  -0.62118  -0.60633  -0.59072  -0.57312
 Alpha  occ. eigenvalues --   -0.55280  -0.54970  -0.53099  -0.52864  -0.52388
 Alpha  occ. eigenvalues --   -0.52129  -0.49635  -0.48862  -0.48856  -0.47645
 Alpha  occ. eigenvalues --   -0.46354  -0.45516  -0.45426  -0.44870  -0.43501
 Alpha  occ. eigenvalues --   -0.37348  -0.36366
 Alpha virt. eigenvalues --    0.05010   0.11273   0.16498   0.21365   0.23124
 Alpha virt. eigenvalues --    0.24526   0.26652   0.27274   0.27593   0.28159
 Alpha virt. eigenvalues --    0.28508   0.30837   0.31654   0.32058   0.32301

 Mulliken charges:
               1
     1  C   -0.170713
     2  C   -0.218818
     3  C   -0.170405
     4  C    0.158133
     5  C   -0.170365
     6  C   -0.218668
     7  H    0.225596
     8  H    0.223481
     9  H    0.275894
    10  H    0.275527
    11  H    0.223577
    12  N    0.488361
    13  O   -0.461289
    14  O   -0.458570
    15  C   -0.300793
    16  C   -0.298563
    17  C   -0.480060
    18  H    0.155670
    19  H    0.144685
    20  H    0.155483
    21  H    0.149054
    22  H    0.149178
    23  H    0.163690
    24  H    0.162018
    25  C   -0.297947
    26  C   -0.299486
    27  C   -0.475469
    28  H    0.151704
    29  H    0.148341
    30  H    0.152257
    31  H    0.148569
    32  H    0.154689
    33  H    0.156502
    34  H    0.158734
 Sum of Mulliken charges =  -0.00000

 Dipole moment (field-independent basis, Debye):
    X=             -1.4006    Y=              4.2537    Z=             -2.5239  Tot=              5.1406
 Quadrupole moment (field-independent basis, Debye-Ang):
   XX=            -87.9120   YY=            -93.4017   ZZ=            -95.2011
   XY=             -9.7275   XZ=              8.0132   YZ=              3.0447

 Normal termination of Gaussian 16 at Wed May  5 17:37:32 2021.
