 Gaussian 16, Revision A.03,
 Gaussian 16:  EM64L-G16RevA.03 25-Dec-2016

 -------------
 #p 6-31g* mp2
 -------------

 ------------------------------------------------------
 Input file generated by CHIRIPA (05-May-2021 14:57:27)
 ------------------------------------------------------
 Symbolic Z-matrix:
 Charge =  0 Multiplicity = 1

                         Standard orientation:
 ---------------------------------------------------------------------
 Center     Atomic      Atomic             Coordinates (Angstroms)
 Number     Number       Type             X           Y           Z
 ---------------------------------------------------------------------
      1          6           0       -4.117948   -1.906269    0.807183
      2          6           0       -3.557011   -1.838972   -0.472403
      3          6           0       -2.982509   -0.651022   -0.934214
      4          6           0       -2.986248    0.455387   -0.086195
      5          6           0       -3.537227    0.419802    1.193822
      6          6           0       -4.106286   -0.778655    1.634753
      7          1           0       -4.562121   -2.833179    1.157819
      8          1           0       -3.564648   -2.713114   -1.117278
      9          1           0       -2.541284   -0.571159   -1.920298
     10          1           0       -3.514648    1.307817    1.813772
     11          1           0       -4.541187   -0.828009    2.628972
     12          7           0       -2.380929    1.718578   -0.564042
     13          8           0       -2.396859    2.679287    0.202392
     14          8           0       -1.902013    1.724039   -1.695963
     15          6           0        5.440807    0.445512    0.591409
     16          6           0        4.387498    1.354409    0.736225
     17          6           0        3.078778    0.981499    0.415697
     18          6           0        2.858359   -0.314166   -0.049015
     19          6           0        3.886697   -1.242484   -0.204047
     20          6           0        5.187491   -0.847753    0.122561
     21          1           0        6.454372    0.743673    0.842765
     22          1           0        4.581270    2.359437    1.100115
     23          1           0        2.244726    1.665051    0.518326
     24          1           0        3.662385   -2.237375   -0.569141
     25          1           0        6.003553   -1.555718    0.009102
     26          7           0        1.477071   -0.720499   -0.391562
     27          8           0        1.309183   -1.867867   -0.798991
     28          8           0        0.588462    0.116079   -0.246136
 ---------------------------------------------------------------------

 SCF Done:  E(RHF) =  -868.339040250     A.U. after   16 cycles
 E2 =    -0.2600287458D+01 EUMP2 =    -0.87093932770809D+03

 The electronic state is 1-A.
 Alpha  occ. eigenvalues --  -20.60744 -20.60667 -20.59427 -20.59351 -15.85741
 Alpha  occ. eigenvalues --  -15.84437 -11.30998 -11.29748 -11.27597 -11.27500
 Alpha  occ. eigenvalues --  -11.27313 -11.26591 -11.26529 -11.26436 -11.26287
 Alpha  occ. eigenvalues --  -11.26204 -11.25491 -11.25373  -1.59768  -1.58434
 Alpha  occ. eigenvalues --   -1.39324  -1.38001  -1.19169  -1.17952  -1.08592
 Alpha  occ. eigenvalues --   -1.07374  -1.04554  -1.03385  -0.95444  -0.94220
 Alpha  occ. eigenvalues --   -0.85959  -0.84793  -0.82283  -0.81079  -0.77328
 Alpha  occ. eigenvalues --   -0.76101  -0.72065  -0.71072  -0.70706  -0.70288
 Alpha  occ. eigenvalues --   -0.69600  -0.69143  -0.64824  -0.64562  -0.63648
 Alpha  occ. eigenvalues --   -0.63444  -0.61894  -0.60755  -0.55079  -0.53962
 Alpha  occ. eigenvalues --   -0.52895  -0.52646  -0.51695  -0.51519  -0.48740
 Alpha  occ. eigenvalues --   -0.48724  -0.47463  -0.47423  -0.44773  -0.43378
 Alpha  occ. eigenvalues --   -0.37157  -0.36154  -0.35928  -0.34958
 Alpha virt. eigenvalues --    0.05191   0.06512   0.11501   0.12695   0.16707
 Alpha virt. eigenvalues --    0.17948   0.21640   0.22606   0.27565   0.28500
 Alpha virt. eigenvalues --    0.28544   0.29516   0.31190   0.32078   0.32835

 Mulliken charges:
               1
     1  C   -0.171542
     2  C   -0.218274
     3  C   -0.155917
     4  C    0.167778
     5  C   -0.172545
     6  C   -0.219888
     7  H    0.220092
     8  H    0.220618
     9  H    0.276633
    10  H    0.270002
    11  H    0.217043
    12  N    0.493774
    13  O   -0.471444
    14  O   -0.457451
    15  C   -0.170582
    16  C   -0.219092
    17  C   -0.170473
    18  C    0.157563
    19  C   -0.171107
    20  C   -0.218945
    21  H    0.225163
    22  H    0.224879
    23  H    0.282384
    24  H    0.273730
    25  H    0.222289
    26  N    0.491519
    27  O   -0.465904
    28  O   -0.460303
 Sum of Mulliken charges =  -0.00000

 Dipole moment (field-independent basis, Debye):
    X=              3.0275    Y=             -2.9489    Z=              2.7031  Tot=              5.0168
 Quadrupole moment (field-independent basis, Debye-Ang):
   XX=            -66.2045   YY=           -105.8952   ZZ=           -102.3223
   XY=             13.1407   XZ=             -2.5741   YZ=              4.3165

 Normal termination of Gaussian 16 at Fri May  7 12:44:48 2021.
