 Gaussian 16, Revision A.03,
 Gaussian 16:  EM64L-G16RevA.03 25-Dec-2016

 -------------
 #p 6-31g* mp2
 -------------

 ------------------------------------------------------
 Input file generated by CHIRIPA (05-May-2021 14:53:16)
 ------------------------------------------------------
 Symbolic Z-matrix:
 Charge =  0 Multiplicity = 1

                         Standard orientation:
 ---------------------------------------------------------------------
 Center     Atomic      Atomic             Coordinates (Angstroms)
 Number     Number       Type             X           Y           Z
 ---------------------------------------------------------------------
      1          6           0        3.911938   -0.562204   -0.626906
      2          6           0        3.079728   -1.791500   -0.260513
      3          6           0        3.267300   -2.946953   -1.244148
      4          1           0        3.640467   -0.231855   -1.638893
      5          1           0        4.973231   -0.844418   -0.664405
      6          1           0        2.020451   -1.506734   -0.222362
      7          1           0        3.353075   -2.118845    0.750794
      8          1           0        4.316162   -3.259138   -1.276241
      9          1           0        2.975966   -2.643549   -2.254926
     10          1           0        2.663297   -3.815369   -0.963266
     11          6           0        3.735121    0.601330    0.347083
     12          6           0        4.567330    1.830626   -0.019310
     13          6           0        4.379758    2.986080    0.964325
     14          1           0        2.673827    0.883544    0.384582
     15          1           0        4.006592    0.270981    1.359070
     16          1           0        4.293983    2.157971   -1.030617
     17          1           0        5.626608    1.545860   -0.057462
     18          1           0        4.671092    2.682675    1.975102
     19          1           0        3.330896    3.298264    0.996418
     20          1           0        4.983761    3.854495    0.683442
     21          6           0       -1.840741   -1.259449    1.981139
     22          6           0       -1.220279   -1.146589    0.732616
     23          6           0       -1.846178   -0.459517   -0.311765
     24          6           0       -3.097962    0.104998   -0.071656
     25          6           0       -3.741807    0.009726    1.161095
     26          6           0       -3.097309   -0.681950    2.191024
     27          1           0       -1.347303   -1.794971    2.786827
     28          1           0       -0.244427   -1.594078    0.566750
     29          1           0       -1.388485   -0.356991   -1.288198
     30          1           0       -4.714748    0.466390    1.296231
     31          1           0       -3.581541   -0.768010    3.159610
     32          7           0       -3.770417    0.834807   -1.169645
     33          8           0       -4.873102    1.323208   -0.932606
     34          8           0       -3.182070    0.904611   -2.246499
 ---------------------------------------------------------------------

 SCF Done:  E(RHF) =  -669.535575532     A.U. after   15 cycles
 E2 =    -0.2091048439D+01 EUMP2 =    -0.67162662397157D+03

 The electronic state is 1-A.
 Alpha  occ. eigenvalues --  -20.60757 -20.60752 -15.85811 -11.31171 -11.27741
 Alpha  occ. eigenvalues --  -11.27736 -11.27475 -11.26754 -11.26718 -11.22531
 Alpha  occ. eigenvalues --  -11.22014 -11.21972 -11.21888 -11.21794 -11.21357
 Alpha  occ. eigenvalues --   -1.59833  -1.39387  -1.19342  -1.09031  -1.08736
 Alpha  occ. eigenvalues --   -1.04746  -1.04110  -0.96524  -0.95573  -0.87542
 Alpha  occ. eigenvalues --   -0.86143  -0.82409  -0.80210  -0.78830  -0.77454
 Alpha  occ. eigenvalues --   -0.72029  -0.71156  -0.70450  -0.65686  -0.64993
 Alpha  occ. eigenvalues --   -0.64745  -0.62134  -0.61473  -0.59915  -0.58143
 Alpha  occ. eigenvalues --   -0.55796  -0.55243  -0.53238  -0.53073  -0.52963
 Alpha  occ. eigenvalues --   -0.52831  -0.50461  -0.48798  -0.48784  -0.48488
 Alpha  occ. eigenvalues --   -0.47241  -0.46358  -0.46269  -0.44793  -0.44355
 Alpha  occ. eigenvalues --   -0.37320  -0.36347
 Alpha virt. eigenvalues --    0.05076   0.11291   0.16542   0.19761   0.22638
 Alpha virt. eigenvalues --    0.23724   0.25087   0.26464   0.27439   0.28332
 Alpha virt. eigenvalues --    0.28672   0.30159   0.31089   0.31367   0.32171

 Mulliken charges:
               1
     1  C   -0.298117
     2  C   -0.305588
     3  C   -0.476043
     4  H    0.152585
     5  H    0.152532
     6  H    0.144091
     7  H    0.152464
     8  H    0.159203
     9  H    0.158260
    10  H    0.159040
    11  C   -0.299021
    12  C   -0.300262
    13  C   -0.476262
    14  H    0.148688
    15  H    0.148923
    16  H    0.154293
    17  H    0.152716
    18  H    0.154545
    19  H    0.156546
    20  H    0.162212
    21  C   -0.172189
    22  C   -0.225919
    23  C   -0.173564
    24  C    0.158635
    25  C   -0.171121
    26  C   -0.218459
    27  H    0.226329
    28  H    0.234747
    29  H    0.274862
    30  H    0.275541
    31  H    0.223330
    32  N    0.488136
    33  O   -0.460511
    34  O   -0.460618
 Sum of Mulliken charges =  -0.00000

 Dipole moment (field-independent basis, Debye):
    X=              2.5456    Y=             -2.5417    Z=              3.8425  Tot=              5.2636
 Quadrupole moment (field-independent basis, Debye-Ang):
   XX=           -105.4231   YY=            -96.4526   ZZ=            -93.8900
   XY=              7.1548   XZ=            -14.7440   YZ=              0.4783

 Normal termination of Gaussian 16 at Thu May  6 20:26:47 2021.
