 Gaussian 16, Revision A.03,
 Gaussian 16:  EM64L-G16RevA.03 25-Dec-2016

 -------------
 #p 6-31g* mp2
 -------------

 ------------------------------------------------------
 Input file generated by CHIRIPA (05-May-2021 14:51:13)
 ------------------------------------------------------
 Symbolic Z-matrix:
 Charge =  0 Multiplicity = 1

                         Standard orientation:
 ---------------------------------------------------------------------
 Center     Atomic      Atomic             Coordinates (Angstroms)
 Number     Number       Type             X           Y           Z
 ---------------------------------------------------------------------
      1          6           0        4.834841   -0.551283    0.070293
      2          6           0        5.605136    0.769535    0.078786
      3          6           0        7.107136    0.576566    0.289862
      4          1           0        5.008714   -1.075925    1.019747
      5          1           0        5.237385   -1.197383   -0.722113
      6          1           0        5.200340    1.413492    0.870035
      7          1           0        5.429256    1.291183   -0.870723
      8          1           0        7.531227   -0.044855   -0.505489
      9          1           0        7.301011    0.078149    1.245159
     10          1           0        7.638380    1.533454    0.292489
     11          6           0        3.332018   -0.374813   -0.139732
     12          6           0        2.561724   -1.695631   -0.148225
     13          6           0        1.059724   -1.502662   -0.359301
     14          1           0        2.929474    0.271287    0.652674
     15          1           0        3.158146    0.149829   -1.089187
     16          1           0        2.737604   -2.217279    0.801283
     17          1           0        2.966519   -2.339588   -0.939475
     18          1           0        0.865849   -1.004245   -1.314599
     19          1           0        0.635633   -0.881241    0.436050
     20          1           0        0.528480   -2.459550   -0.361928
     21          6           0       -4.822598    0.409757   -0.150272
     22          6           0       -5.508835   -0.821291    0.442677
     23          6           0       -6.987203   -0.913981    0.063693
     24          1           0       -5.347049    1.313326    0.189521
     25          1           0       -4.920690    0.384237   -1.244403
     26          1           0       -5.408277   -0.794167    1.535274
     27          1           0       -4.982573   -1.722024    0.101587
     28          1           0       -7.103623   -0.965962   -1.023664
     29          1           0       -7.531746   -0.032833    0.418168
     30          1           0       -7.458147   -1.801307    0.498119
     31          6           0       -3.344261    0.516339    0.219712
     32          6           0       -2.658025    1.747387   -0.373238
     33          6           0       -1.179656    1.840077    0.005746
     34          1           0       -3.246168    0.541859    1.313842
     35          1           0       -2.819811   -0.387230   -0.120081
     36          1           0       -3.184286    2.648121   -0.032148
     37          1           0       -2.758582    1.720263   -1.465834
     38          1           0       -0.635114    0.958929   -0.348729
     39          1           0       -1.063237    1.892058    1.093103
     40          1           0       -0.708713    2.727403   -0.428679
 ---------------------------------------------------------------------

 SCF Done:  E(RHF) =  -470.732866113     A.U. after   11 cycles
 E2 =    -0.1582743343D+01 EUMP2 =    -0.47231560945599D+03

 The electronic state is 1-A.
 Alpha  occ. eigenvalues --  -11.21615 -11.21591 -11.21564 -11.21517 -11.21397
 Alpha  occ. eigenvalues --  -11.21347 -11.21337 -11.21284 -11.21090 -11.21063
 Alpha  occ. eigenvalues --  -11.21042 -11.20899  -1.08430  -1.08367  -1.03549
 Alpha  occ. eigenvalues --   -1.03453  -0.96018  -0.95888  -0.87058  -0.86888
 Alpha  occ. eigenvalues --   -0.79674  -0.79469  -0.78255  -0.78163  -0.65059
 Alpha  occ. eigenvalues --   -0.65000  -0.60945  -0.60868  -0.59362  -0.59282
 Alpha  occ. eigenvalues --   -0.57738  -0.57423  -0.55293  -0.55195  -0.52691
 Alpha  occ. eigenvalues --   -0.52636  -0.52598  -0.52149  -0.49953  -0.49837
 Alpha  occ. eigenvalues --   -0.48111  -0.47646  -0.46641  -0.46525  -0.45852
 Alpha  occ. eigenvalues --   -0.45719  -0.45668  -0.45520  -0.43789  -0.43719
 Alpha virt. eigenvalues --    0.22357   0.22954   0.23628   0.24771   0.26221
 Alpha virt. eigenvalues --    0.26534   0.27035   0.27507   0.27949   0.29188
 Alpha virt. eigenvalues --    0.30889   0.31280   0.31775   0.31901   0.32265

 Mulliken charges:
               1
     1  C   -0.298272
     2  C   -0.299650
     3  C   -0.475713
     4  H    0.149609
     5  H    0.149423
     6  H    0.152119
     7  H    0.151974
     8  H    0.155125
     9  H    0.155153
    10  H    0.160255
    11  C   -0.298567
    12  C   -0.299559
    13  C   -0.480754
    14  H    0.150424
    15  H    0.149687
    16  H    0.152052
    17  H    0.151796
    18  H    0.155208
    19  H    0.160852
    20  H    0.160154
    21  C   -0.298188
    22  C   -0.299601
    23  C   -0.475666
    24  H    0.149501
    25  H    0.149395
    26  H    0.151778
    27  H    0.151977
    28  H    0.155121
    29  H    0.155099
    30  H    0.160100
    31  C   -0.298974
    32  C   -0.298902
    33  C   -0.484206
    34  H    0.148958
    35  H    0.150854
    36  H    0.151290
    37  H    0.151348
    38  H    0.166348
    39  H    0.153172
    40  H    0.159287
 Sum of Mulliken charges =  -0.00000

 Dipole moment (field-independent basis, Debye):
    X=              0.0418    Y=             -0.0303    Z=             -0.0014  Tot=              0.0516
 Quadrupole moment (field-independent basis, Debye-Ang):
   XX=            -87.2593   YY=            -84.6596   ZZ=            -83.1018
   XY=             -0.3214   XZ=             -0.6779   YZ=              0.4711

 Normal termination of Gaussian 16 at Wed May  5 15:20:06 2021.
