 Gaussian 16, Revision A.03,
 Gaussian 16:  EM64L-G16RevA.03 25-Dec-2016

 -------------
 #p 6-31g* mp2
 -------------

 ------------------------------------------------------
 Input file generated by CHIRIPA (05-May-2021 14:55:24)
 ------------------------------------------------------
 Symbolic Z-matrix:
 Charge =  0 Multiplicity = 1

                         Standard orientation:
 ---------------------------------------------------------------------
 Center     Atomic      Atomic             Coordinates (Angstroms)
 Number     Number       Type             X           Y           Z
 ---------------------------------------------------------------------
      1          6           0        1.451894   -2.453778    1.039244
      2          6           0        2.689380   -1.955851    1.460216
      3          6           0        3.247402   -0.829999    0.847339
      4          6           0        2.537477   -0.224133   -0.188143
      5          6           0        1.302612   -0.696425   -0.630115
      6          6           0        0.763673   -1.823587   -0.002741
      7          1           0        1.025822   -3.328876    1.520973
      8          1           0        3.226103   -2.443230    2.269188
      9          1           0        4.203722   -0.423515    1.153347
     10          1           0        0.791197   -0.189133   -1.439143
     11          1           0       -0.197553   -2.208083   -0.331758
     12          7           0        3.118129    0.968449   -0.844643
     13          8           0        2.472746    1.484110   -1.754704
     14          8           0        4.207632    1.364953   -0.436714
     15          6           0       -2.550707    1.041443    0.112157
     16          6           0       -2.802305    2.231712    1.038409
     17          6           0       -1.643508    3.229161    1.047281
     18          1           0       -1.628548    0.531592    0.422994
     19          1           0       -2.375326    1.410243   -0.907953
     20          1           0       -2.978530    1.860692    2.056203
     21          1           0       -3.724075    2.738676    0.725448
     22          1           0       -1.470076    3.627142    0.042227
     23          1           0       -0.720295    2.744171    1.380543
     24          1           0       -1.844413    4.072021    1.715924
     25          6           0       -3.700247    0.035510    0.092501
     26          6           0       -3.448649   -1.154759   -0.833751
     27          6           0       -4.607446   -2.152208   -0.842623
     28          1           0       -3.875628   -0.333289    1.112610
     29          1           0       -4.622405    0.545361   -0.218337
     30          1           0       -2.526878   -1.661722   -0.520791
     31          1           0       -3.272424   -0.783739   -1.851546
     32          1           0       -5.530659   -1.667217   -1.175885
     33          1           0       -4.780877   -2.550188    0.162431
     34          1           0       -4.406541   -2.995068   -1.511267
 ---------------------------------------------------------------------

 SCF Done:  E(RHF) =  -669.535601564     A.U. after   15 cycles
 E2 =    -0.2092312526D+01 EUMP2 =    -0.67162791409005D+03

 The electronic state is 1-A.
 Alpha  occ. eigenvalues --  -20.60757 -20.60752 -15.85812 -11.31191 -11.27776
 Alpha  occ. eigenvalues --  -11.27757 -11.27516 -11.26788 -11.26759 -11.22394
 Alpha  occ. eigenvalues --  -11.21876 -11.21756 -11.21713 -11.21677 -11.20995
 Alpha  occ. eigenvalues --   -1.59832  -1.39385  -1.19374  -1.08864  -1.08762
 Alpha  occ. eigenvalues --   -1.04776  -1.03914  -0.96325  -0.95594  -0.87344
 Alpha  occ. eigenvalues --   -0.86172  -0.82429  -0.80028  -0.78664  -0.77457
 Alpha  occ. eigenvalues --   -0.72030  -0.71156  -0.70475  -0.65542  -0.65020
 Alpha  occ. eigenvalues --   -0.64758  -0.62134  -0.61297  -0.59734  -0.57941
 Alpha  occ. eigenvalues --   -0.55599  -0.55280  -0.53127  -0.53050  -0.52899
 Alpha  occ. eigenvalues --   -0.52688  -0.50266  -0.48797  -0.48782  -0.48302
 Alpha  occ. eigenvalues --   -0.47065  -0.46182  -0.46080  -0.44786  -0.44164
 Alpha  occ. eigenvalues --   -0.37357  -0.36348
 Alpha virt. eigenvalues --    0.05034   0.11236   0.16396   0.19982   0.22862
 Alpha virt. eigenvalues --    0.23825   0.25121   0.26164   0.27612   0.28195
 Alpha virt. eigenvalues --    0.29523   0.29864   0.31353   0.31510   0.32159

 Mulliken charges:
               1
     1  C   -0.172488
     2  C   -0.218611
     3  C   -0.170937
     4  C    0.157730
     5  C   -0.172058
     6  C   -0.224718
     7  H    0.225949
     8  H    0.223465
     9  H    0.275729
    10  H    0.277480
    11  H    0.233005
    12  N    0.488204
    13  O   -0.460001
    14  O   -0.460605
    15  C   -0.304144
    16  C   -0.299858
    17  C   -0.476220
    18  H    0.149542
    19  H    0.151648
    20  H    0.150867
    21  H    0.152634
    22  H    0.160172
    23  H    0.156095
    24  H    0.160821
    25  C   -0.297416
    26  C   -0.304730
    27  C   -0.475409
    28  H    0.149518
    29  H    0.152914
    30  H    0.142211
    31  H    0.154675
    32  H    0.159306
    33  H    0.155372
    34  H    0.159856
 Sum of Mulliken charges =  -0.00000

 Dipole moment (field-independent basis, Debye):
    X=             -2.1048    Y=             -4.0995    Z=              2.3010  Tot=              5.1508
 Quadrupole moment (field-independent basis, Debye-Ang):
   XX=           -102.2099   YY=            -93.7436   ZZ=            -93.7125
   XY=            -11.5044   XZ=              9.4645   YZ=             -0.5206

 Normal termination of Gaussian 16 at Wed May  5 22:23:38 2021.
