 Gaussian 16, Revision A.03,
 Gaussian 16:  EM64L-G16RevA.03 25-Dec-2016

 -------------
 #p 6-31g* mp2
 -------------

 ------------------------------------------------------
 Input file generated by CHIRIPA (05-May-2021 14:55:23)
 ------------------------------------------------------
 Symbolic Z-matrix:
 Charge =  0 Multiplicity = 1

                         Standard orientation:
 ---------------------------------------------------------------------
 Center     Atomic      Atomic             Coordinates (Angstroms)
 Number     Number       Type             X           Y           Z
 ---------------------------------------------------------------------
      1          6           0       -2.128512    2.270466    0.615131
      2          6           0       -1.846576    1.211884    1.484865
      3          6           0       -2.395077   -0.054770    1.262864
      4          6           0       -3.225106   -0.228201    0.156400
      5          6           0       -3.524871    0.806613   -0.728242
      6          6           0       -2.965285    2.064814   -0.486704
      7          1           0       -1.698118    3.251149    0.795175
      8          1           0       -1.197067    1.368685    2.341367
      9          1           0       -2.193457   -0.891827    1.920209
     10          1           0       -4.175908    0.619642   -1.573588
     11          1           0       -3.185985    2.885084   -1.163825
     12          7           0       -3.811648   -1.564677   -0.088964
     13          8           0       -4.539887   -1.691582   -1.070900
     14          8           0       -3.532033   -2.459994    0.705303
     15          6           0        4.616626    0.017374    0.204729
     16          6           0        5.787325   -0.803223   -0.337554
     17          6           0        7.004721   -0.779058    0.587194
     18          1           0        4.943522    1.055277    0.355862
     19          1           0        4.334464   -0.368668    1.194048
     20          1           0        6.066294   -0.416633   -1.326159
     21          1           0        5.457549   -1.839250   -0.487595
     22          1           0        6.748861   -1.184221    1.571562
     23          1           0        7.361065    0.246479    0.728233
     24          1           0        7.829798   -1.371963    0.180290
     25          6           0        3.392174    0.002937   -0.708637
     26          6           0        2.221475    0.823534   -0.166355
     27          6           0        1.004079    0.799369   -1.091102
     28          1           0        3.674335    0.388978   -1.697957
     29          1           0        3.065278   -1.034965   -0.859770
     30          1           0        2.551250    1.859561   -0.016314
     31          1           0        1.942505    0.436944    0.822251
     32          1           0        0.647735   -0.226169   -1.232141
     33          1           0        1.259939    1.204532   -2.075470
     34          1           0        0.179002    1.392274   -0.684198
 ---------------------------------------------------------------------

 SCF Done:  E(RHF) =  -669.534679554     A.U. after   15 cycles
 E2 =    -0.2092773401D+01 EUMP2 =    -0.67162745295498D+03

 The electronic state is 1-A.
 Alpha  occ. eigenvalues --  -20.60812 -20.60807 -15.85866 -11.31258 -11.27825
 Alpha  occ. eigenvalues --  -11.27818 -11.27549 -11.26843 -11.26826 -11.21919
 Alpha  occ. eigenvalues --  -11.21757 -11.21616 -11.21556 -11.21217 -11.21116
 Alpha  occ. eigenvalues --   -1.59887  -1.39439  -1.19436  -1.08840  -1.08638
 Alpha  occ. eigenvalues --   -1.04833  -1.03724  -0.96158  -0.95657  -0.87172
 Alpha  occ. eigenvalues --   -0.86233  -0.82483  -0.79799  -0.78462  -0.77522
 Alpha  occ. eigenvalues --   -0.72084  -0.71209  -0.70545  -0.65274  -0.65085
 Alpha  occ. eigenvalues --   -0.64833  -0.62176  -0.61126  -0.59601  -0.57826
 Alpha  occ. eigenvalues --   -0.55448  -0.55340  -0.53644  -0.52924  -0.52655
 Alpha  occ. eigenvalues --   -0.52236  -0.50087  -0.48845  -0.48837  -0.48108
 Alpha  occ. eigenvalues --   -0.46841  -0.45998  -0.45930  -0.44840  -0.43982
 Alpha  occ. eigenvalues --   -0.37324  -0.36424
 Alpha virt. eigenvalues --    0.04981   0.11186   0.16418   0.21176   0.22704
 Alpha virt. eigenvalues --    0.24209   0.26290   0.26947   0.27588   0.27771
 Alpha virt. eigenvalues --    0.28399   0.30645   0.31279   0.31787   0.32346

 Mulliken charges:
               1
     1  C   -0.177362
     2  C   -0.214506
     3  C   -0.170263
     4  C    0.159622
     5  C   -0.170422
     6  C   -0.215209
     7  H    0.226696
     8  H    0.224475
     9  H    0.275755
    10  H    0.276084
    11  H    0.224195
    12  N    0.487946
    13  O   -0.460076
    14  O   -0.460351
    15  C   -0.298153
    16  C   -0.299913
    17  C   -0.475784
    18  H    0.148423
    19  H    0.148679
    20  H    0.152219
    21  H    0.153325
    22  H    0.155176
    23  H    0.154627
    24  H    0.161116
    25  C   -0.298233
    26  C   -0.298812
    27  C   -0.482277
    28  H    0.150134
    29  H    0.152135
    30  H    0.147953
    31  H    0.146968
    32  H    0.157535
    33  H    0.152634
    34  H    0.165663
 Sum of Mulliken charges =  -0.00000

 Dipole moment (field-independent basis, Debye):
    X=              1.9682    Y=              4.6898    Z=              0.8612  Tot=              5.1584
 Quadrupole moment (field-independent basis, Debye-Ang):
   XX=           -108.3601   YY=            -96.1603   ZZ=            -91.5606
   XY=            -16.5885   XZ=             -1.0262   YZ=             -1.4283

 Normal termination of Gaussian 16 at Thu May  6 03:06:34 2021.
