 Gaussian 16, Revision A.03,
 Gaussian 16:  EM64L-G16RevA.03 25-Dec-2016

 -------------
 #p 6-31g* mp2
 -------------

 ------------------------------------------------------
 Input file generated by CHIRIPA (05-May-2021 14:55:23)
 ------------------------------------------------------
 Symbolic Z-matrix:
 Charge =  0 Multiplicity = 1

                         Standard orientation:
 ---------------------------------------------------------------------
 Center     Atomic      Atomic             Coordinates (Angstroms)
 Number     Number       Type             X           Y           Z
 ---------------------------------------------------------------------
      1          6           0        0.826228    0.793084    1.215240
      2          6           0        0.739044   -0.105455    0.146807
      3          6           0        1.896571   -0.627365   -0.438249
      4          6           0        3.130412   -0.227349    0.072548
      5          6           0        3.250051    0.666103    1.135901
      6          6           0        2.079244    1.175321    1.705512
      7          1           0       -0.078124    1.193587    1.663726
      8          1           0       -0.232717   -0.404080   -0.236010
      9          1           0        1.857996   -1.324558   -1.266411
     10          1           0        4.232949    0.945092    1.495753
     11          1           0        2.149983    1.872974    2.535164
     12          7           0        4.362863   -0.773154   -0.538649
     13          8           0        5.437890   -0.404956   -0.070266
     14          8           0        4.230493   -1.558818   -1.474516
     15          6           0       -3.324114    0.784409   -0.036514
     16          6           0       -3.012563    1.691592   -1.227287
     17          6           0       -2.165959    2.904686   -0.840683
     18          1           0       -3.846923    1.367724    0.733784
     19          1           0       -2.380932    0.445836    0.414231
     20          1           0       -3.956048    2.027241   -1.676498
     21          1           0       -2.490603    1.106003   -1.994920
     22          1           0       -1.209985    2.586554   -0.412309
     23          1           0       -2.683756    3.513026   -0.092077
     24          1           0       -1.955064    3.539565   -1.706888
     25          6           0       -4.169746   -0.432682   -0.407084
     26          6           0       -4.481298   -1.339864    0.783689
     27          6           0       -5.327900   -2.552957    0.397084
     28          1           0       -5.112928   -0.094109   -0.857830
     29          1           0       -3.646937   -1.015996   -1.177383
     30          1           0       -5.003256   -0.754275    1.551322
     31          1           0       -3.537811   -1.675512    1.232899
     32          1           0       -4.810104   -3.161297   -0.351521
     33          1           0       -6.283876   -2.234826   -0.031289
     34          1           0       -5.538795   -3.187836    1.263289
 ---------------------------------------------------------------------

 SCF Done:  E(RHF) =  -669.535136686     A.U. after   15 cycles
 E2 =    -0.2092753521D+01 EUMP2 =    -0.67162789020735D+03

 The electronic state is 1-A.
 Alpha  occ. eigenvalues --  -20.60775 -20.60769 -15.85828 -11.31206 -11.27771
 Alpha  occ. eigenvalues --  -11.27768 -11.27495 -11.26785 -11.26772 -11.22608
 Alpha  occ. eigenvalues --  -11.22547 -11.22425 -11.22314 -11.21949 -11.21711
 Alpha  occ. eigenvalues --   -1.59850  -1.39403  -1.19378  -1.09430  -1.08770
 Alpha  occ. eigenvalues --   -1.04783  -1.04405  -0.96860  -0.95605  -0.87871
 Alpha  occ. eigenvalues --   -0.86187  -0.82434  -0.80476  -0.79258  -0.77481
 Alpha  occ. eigenvalues --   -0.72047  -0.71172  -0.70495  -0.66189  -0.65025
 Alpha  occ. eigenvalues --   -0.64718  -0.62176  -0.61731  -0.60221  -0.58472
 Alpha  occ. eigenvalues --   -0.56187  -0.55272  -0.53496  -0.53329  -0.53067
 Alpha  occ. eigenvalues --   -0.52868  -0.50796  -0.48810  -0.48803  -0.48770
 Alpha  occ. eigenvalues --   -0.47517  -0.46758  -0.46710  -0.44806  -0.44693
 Alpha  occ. eigenvalues --   -0.37338  -0.36380
 Alpha virt. eigenvalues --    0.05023   0.11189   0.16455   0.18718   0.22445
 Alpha virt. eigenvalues --    0.23828   0.25144   0.25602   0.26754   0.28267
 Alpha virt. eigenvalues --    0.29383   0.30691   0.30980   0.31308   0.31587

 Mulliken charges:
               1
     1  C   -0.173493
     2  C   -0.222604
     3  C   -0.171068
     4  C    0.158815
     5  C   -0.170965
     6  C   -0.219142
     7  H    0.228833
     8  H    0.228654
     9  H    0.275710
    10  H    0.275754
    11  H    0.223896
    12  N    0.487972
    13  O   -0.460244
    14  O   -0.460356
    15  C   -0.303951
    16  C   -0.300681
    17  C   -0.480782
    18  H    0.153574
    19  H    0.138902
    20  H    0.157192
    21  H    0.151900
    22  H    0.153528
    23  H    0.155583
    24  H    0.165975
    25  C   -0.299118
    26  C   -0.300066
    27  C   -0.476222
    28  H    0.154365
    29  H    0.149024
    30  H    0.153515
    31  H    0.149326
    32  H    0.156294
    33  H    0.157108
    34  H    0.162772
 Sum of Mulliken charges =  -0.00000

 Dipole moment (field-independent basis, Debye):
    X=             -4.5258    Y=              1.9373    Z=              2.1120  Tot=              5.3569
 Quadrupole moment (field-independent basis, Debye-Ang):
   XX=           -119.4495   YY=            -95.0982   ZZ=            -92.6890
   XY=              7.7644   XZ=              8.4815   YZ=              1.5395

 Normal termination of Gaussian 16 at Thu May  6 04:41:38 2021.
