 Gaussian 16, Revision A.03,
 Gaussian 16:  EM64L-G16RevA.03 25-Dec-2016

 -------------
 #p 6-31g* mp2
 -------------

 ------------------------------------------------------
 Input file generated by CHIRIPA (05-May-2021 14:53:13)
 ------------------------------------------------------
 Symbolic Z-matrix:
 Charge =  0 Multiplicity = 1

                         Standard orientation:
 ---------------------------------------------------------------------
 Center     Atomic      Atomic             Coordinates (Angstroms)
 Number     Number       Type             X           Y           Z
 ---------------------------------------------------------------------
      1          6           0        4.964489   -0.174641    0.081798
      2          6           0        5.053718   -1.683468    0.313026
      3          6           0        6.489378   -2.165309    0.523987
      4          1           0        5.574611    0.092716   -0.791825
      5          1           0        5.404878    0.347820    0.942313
      6          1           0        4.612042   -2.202905   -0.547046
      7          1           0        4.443159   -1.947290    1.186084
      8          1           0        6.936876   -1.673591    1.393791
      9          1           0        7.106718   -1.930659   -0.349186
     10          1           0        6.529967   -3.246742    0.687440
     11          6           0        3.535610    0.322221   -0.130718
     12          6           0        3.446381    1.831047   -0.361946
     13          6           0        2.010722    2.312889   -0.572908
     14          1           0        3.095222   -0.200241   -0.991234
     15          1           0        2.925488    0.054864    0.742904
     16          1           0        4.056940    2.094869   -1.235005
     17          1           0        3.888057    2.350484    0.498125
     18          1           0        1.393381    2.078238    0.300265
     19          1           0        1.563223    1.821171   -1.442712
     20          1           0        1.970132    3.394321   -0.736361
     21          6           0       -1.672992    1.844136    0.207115
     22          6           0       -1.503083    0.865649   -0.777879
     23          6           0       -2.409647   -0.192569   -0.891294
     24          6           0       -3.479612   -0.241506    0.000934
     25          6           0       -3.675974    0.718083    0.992862
     26          6           0       -2.756985    1.767366    1.087789
     27          1           0       -0.963925    2.662715    0.288037
     28          1           0       -0.662168    0.922722   -1.463191
     29          1           0       -2.302002   -0.963584   -1.644531
     30          1           0       -4.524027    0.634339    1.661600
     31          1           0       -2.891443    2.525857    1.853725
     32          7           0       -4.445928   -1.357064   -0.109347
     33          8           0       -5.380304   -1.377508    0.688876
     34          8           0       -4.250654   -2.189873   -0.991921
 ---------------------------------------------------------------------

 SCF Done:  E(RHF) =  -669.534691702     A.U. after   15 cycles
 E2 =    -0.2092001909D+01 EUMP2 =    -0.67162669361014D+03

 The electronic state is 1-A.
 Alpha  occ. eigenvalues --  -20.60694 -20.60689 -15.85746 -11.31089 -11.27656
 Alpha  occ. eigenvalues --  -11.27637 -11.27328 -11.26663 -11.26599 -11.22566
 Alpha  occ. eigenvalues --  -11.22444 -11.22137 -11.22035 -11.21932 -11.21413
 Alpha  occ. eigenvalues --   -1.59770  -1.39324  -1.19253  -1.09140  -1.08648
 Alpha  occ. eigenvalues --   -1.04656  -1.04283  -0.96781  -0.95486  -0.87820
 Alpha  occ. eigenvalues --   -0.86042  -0.82326  -0.80385  -0.78894  -0.77376
 Alpha  occ. eigenvalues --   -0.71964  -0.71093  -0.70365  -0.65767  -0.64901
 Alpha  occ. eigenvalues --   -0.64682  -0.62049  -0.61671  -0.60156  -0.58328
 Alpha  occ. eigenvalues --   -0.56173  -0.55094  -0.53457  -0.53294  -0.52950
 Alpha  occ. eigenvalues --   -0.52665  -0.50691  -0.48753  -0.48721  -0.48621
 Alpha  occ. eigenvalues --   -0.47366  -0.46445  -0.46333  -0.44735  -0.44511
 Alpha  occ. eigenvalues --   -0.37212  -0.36256
 Alpha virt. eigenvalues --    0.05131   0.11364   0.16575   0.20374   0.22345
 Alpha virt. eigenvalues --    0.23819   0.25123   0.26044   0.26910   0.27521
 Alpha virt. eigenvalues --    0.29283   0.29515   0.30799   0.31648   0.32006

 Mulliken charges:
               1
     1  C   -0.298938
     2  C   -0.300306
     3  C   -0.476161
     4  H    0.150686
     5  H    0.150610
     6  H    0.152734
     7  H    0.153238
     8  H    0.155637
     9  H    0.155637
    10  H    0.162227
    11  C   -0.299282
    12  C   -0.299512
    13  C   -0.484792
    14  H    0.148390
    15  H    0.151746
    16  H    0.155442
    17  H    0.155169
    18  H    0.154623
    19  H    0.151559
    20  H    0.162530
    21  C   -0.175743
    22  C   -0.219899
    23  C   -0.172196
    24  C    0.158607
    25  C   -0.171309
    26  C   -0.219184
    27  H    0.230786
    28  H    0.227998
    29  H    0.275255
    30  H    0.275066
    31  H    0.222862
    32  N    0.488029
    33  O   -0.460788
    34  O   -0.460720
 Sum of Mulliken charges =  -0.00000

 Dipole moment (field-independent basis, Debye):
    X=              3.6666    Y=              3.9189    Z=              0.4177  Tot=              5.3830
 Quadrupole moment (field-independent basis, Debye-Ang):
   XX=           -117.9758   YY=            -96.7569   ZZ=            -91.1827
   XY=            -15.2649   XZ=             -3.8725   YZ=              1.8576

 Normal termination of Gaussian 16 at Thu May  6 10:30:20 2021.
