 Gaussian 16, Revision A.03,
 Gaussian 16:  EM64L-G16RevA.03 25-Dec-2016

 -------------
 #p 6-31g* mp2
 -------------

 ------------------------------------------------------
 Input file generated by CHIRIPA (05-May-2021 14:55:18)
 ------------------------------------------------------
 Symbolic Z-matrix:
 Charge =  0 Multiplicity = 1

                         Standard orientation:
 ---------------------------------------------------------------------
 Center     Atomic      Atomic             Coordinates (Angstroms)
 Number     Number       Type             X           Y           Z
 ---------------------------------------------------------------------
      1          6           0       -0.969126    0.370869   -0.284726
      2          6           0       -1.365479   -0.856185    0.257274
      3          6           0       -2.721592   -1.171571    0.383910
      4          6           0       -3.658793   -0.232289   -0.043516
      5          6           0       -3.295389    0.998655   -0.587580
      6          6           0       -1.933646    1.292747   -0.704683
      7          1           0        0.086522    0.607598   -0.379397
      8          1           0       -0.618619   -1.574050    0.584252
      9          1           0       -3.056223   -2.114104    0.799929
     10          1           0       -4.063065    1.693995   -0.904744
     11          1           0       -1.628745    2.246470   -1.125983
     12          7           0       -5.097429   -0.554903    0.085502
     13          8           0       -5.903543    0.289715   -0.298475
     14          8           0       -5.391677   -1.646276    0.568160
     15          6           0        5.095404   -0.037727    0.082955
     16          6           0        5.193542   -1.509431   -0.320080
     17          6           0        6.631516   -2.029046   -0.315264
     18          1           0        5.706913    0.565090   -0.602329
     19          1           0        5.529325    0.090734    1.084258
     20          1           0        4.758312   -1.635318   -1.319753
     21          1           0        4.581575   -2.108792    0.366126
     22          1           0        7.072713   -1.932414    0.682037
     23          1           0        7.250454   -1.456249   -1.013421
     24          1           0        6.678500   -3.083048   -0.606352
     25          6           0        3.664119    0.496268    0.082879
     26          6           0        3.565980    1.967973    0.485915
     27          6           0        2.128005    2.487588    0.481100
     28          1           0        3.230197    0.367807   -0.918422
     29          1           0        3.052609   -0.106547    0.768164
     30          1           0        4.177947    2.567334   -0.200291
     31          1           0        4.001209    2.093859    1.485587
     32          1           0        1.509068    1.914791    1.179256
     33          1           0        1.686810    2.390956   -0.516201
     34          1           0        2.081021    3.541590    0.772188
 ---------------------------------------------------------------------

 SCF Done:  E(RHF) =  -669.535069989     A.U. after   15 cycles
 E2 =    -0.2091759424D+01 EUMP2 =    -0.67162682941369D+03

 The electronic state is 1-A.
 Alpha  occ. eigenvalues --  -20.60674 -20.60669 -15.85728 -11.31062 -11.27638
 Alpha  occ. eigenvalues --  -11.27635 -11.27249 -11.26624 -11.26612 -11.22709
 Alpha  occ. eigenvalues --  -11.22536 -11.22441 -11.22367 -11.22245 -11.21681
 Alpha  occ. eigenvalues --   -1.59751  -1.39305  -1.19230  -1.09430  -1.08619
 Alpha  occ. eigenvalues --   -1.04634  -1.04508  -0.96988  -0.95460  -0.88004
 Alpha  occ. eigenvalues --   -0.86025  -0.82311  -0.80593  -0.79231  -0.77360
 Alpha  occ. eigenvalues --   -0.71945  -0.71074  -0.70335  -0.66048  -0.64875
 Alpha  occ. eigenvalues --   -0.64643  -0.61992  -0.61887  -0.60369  -0.58617
 Alpha  occ. eigenvalues --   -0.56280  -0.55188  -0.53638  -0.53323  -0.52939
 Alpha  occ. eigenvalues --   -0.52720  -0.50924  -0.48870  -0.48702  -0.48681
 Alpha  occ. eigenvalues --   -0.47613  -0.46752  -0.46664  -0.44751  -0.44718
 Alpha  occ. eigenvalues --   -0.37182  -0.36249
 Alpha virt. eigenvalues --    0.05162   0.11403   0.16603   0.19941   0.22317
 Alpha virt. eigenvalues --    0.23776   0.25018   0.26104   0.26447   0.27664
 Alpha virt. eigenvalues --    0.29508   0.30015   0.30446   0.31206   0.31519

 Mulliken charges:
               1
     1  C   -0.175812
     2  C   -0.221784
     3  C   -0.170682
     4  C    0.157914
     5  C   -0.170800
     6  C   -0.222110
     7  H    0.238096
     8  H    0.222956
     9  H    0.274946
    10  H    0.275060
    11  H    0.223019
    12  N    0.488076
    13  O   -0.460848
    14  O   -0.460884
    15  C   -0.298569
    16  C   -0.300389
    17  C   -0.476283
    18  H    0.152403
    19  H    0.152327
    20  H    0.152232
    21  H    0.151049
    22  H    0.156544
    23  H    0.156602
    24  H    0.162300
    25  C   -0.301514
    26  C   -0.299064
    27  C   -0.484236
    28  H    0.147199
    29  H    0.145908
    30  H    0.156084
    31  H    0.156908
    32  H    0.157279
    33  H    0.147811
    34  H    0.168260
 Sum of Mulliken charges =  -0.00000

 Dipole moment (field-independent basis, Debye):
    X=              5.4138    Y=              1.2073    Z=             -0.4072  Tot=              5.5617
 Quadrupole moment (field-independent basis, Debye-Ang):
   XX=           -132.0803   YY=            -91.3784   ZZ=            -93.6942
   XY=             -5.8983   XZ=              2.0574   YZ=             -2.1607

 Normal termination of Gaussian 16 at Thu May  6 17:22:01 2021.
