 Gaussian 16, Revision A.03,
 Gaussian 16:  EM64L-G16RevA.03 25-Dec-2016

 -------------
 #p 6-31g* mp2
 -------------

 ------------------------------------------------------
 Input file generated by CHIRIPA (05-May-2021 14:53:17)
 ------------------------------------------------------
 Symbolic Z-matrix:
 Charge =  0 Multiplicity = 1

                         Standard orientation:
 ---------------------------------------------------------------------
 Center     Atomic      Atomic             Coordinates (Angstroms)
 Number     Number       Type             X           Y           Z
 ---------------------------------------------------------------------
      1          6           0        2.951834    0.858387    0.635440
      2          6           0        2.232326    2.130056    0.184717
      3          6           0        1.209515    2.624797    1.207890
      4          1           0        2.208776    0.071290    0.823291
      5          1           0        3.453756    1.049604    1.594036
      6          1           0        1.733059    1.936903   -0.773427
      7          1           0        2.977198    2.914160   -0.002267
      8          1           0        1.696149    2.844991    2.163559
      9          1           0        0.444941    1.862182    1.388017
     10          1           0        0.706985    3.534778    0.865461
     11          6           0        3.977485    0.351470   -0.376885
     12          6           0        4.696992   -0.920200    0.073838
     13          6           0        5.719803   -1.414941   -0.949335
     14          1           0        3.475563    0.160252   -1.335480
     15          1           0        4.720543    1.138566   -0.564736
     16          1           0        3.952121   -1.704304    0.260822
     17          1           0        5.196260   -0.727047    1.031983
     18          1           0        6.484378   -0.652326   -1.129462
     19          1           0        5.233170   -1.635135   -1.905004
     20          1           0        6.222334   -2.324922   -0.606906
     21          6           0       -0.906211   -2.150214    0.455365
     22          6           0       -0.583365   -0.983125   -0.244773
     23          6           0       -1.572876   -0.046630   -0.558454
     24          6           0       -2.880836   -0.310415   -0.154785
     25          6           0       -3.233954   -1.463845    0.543925
     26          6           0       -2.228145   -2.386433    0.846789
     27          1           0       -0.131205   -2.872304    0.694839
     28          1           0        0.442423   -0.797045   -0.550024
     29          1           0       -1.350697    0.865158   -1.099467
     30          1           0       -4.265394   -1.621629    0.834880
     31          1           0       -2.481781   -3.291943    1.390632
     32          7           0       -3.937014    0.673649   -0.481140
     33          8           0       -5.081829    0.417861   -0.114249
     34          8           0       -3.600033    1.682113   -1.097647
 ---------------------------------------------------------------------

 SCF Done:  E(RHF) =  -669.535375613     A.U. after   15 cycles
 E2 =    -0.2092615476D+01 EUMP2 =    -0.67162799108888D+03

 The electronic state is 1-A.
 Alpha  occ. eigenvalues --  -20.60784 -20.60779 -15.85839 -11.31230 -11.27807
 Alpha  occ. eigenvalues --  -11.27804 -11.27552 -11.26820 -11.26802 -11.22393
 Alpha  occ. eigenvalues --  -11.22296 -11.22210 -11.22153 -11.21719 -11.21455
 Alpha  occ. eigenvalues --   -1.59859  -1.39412  -1.19410  -1.09210  -1.08796
 Alpha  occ. eigenvalues --   -1.04821  -1.04199  -0.96628  -0.95627  -0.87638
 Alpha  occ. eigenvalues --   -0.86211  -0.82460  -0.80267  -0.79023  -0.77505
 Alpha  occ. eigenvalues --   -0.72057  -0.71182  -0.70512  -0.65998  -0.65061
 Alpha  occ. eigenvalues --   -0.64740  -0.62228  -0.61518  -0.59990  -0.58235
 Alpha  occ. eigenvalues --   -0.55943  -0.55307  -0.53278  -0.53150  -0.53062
 Alpha  occ. eigenvalues --   -0.52864  -0.50560  -0.48819  -0.48810  -0.48564
 Alpha  occ. eigenvalues --   -0.47330  -0.46526  -0.46510  -0.44812  -0.44473
 Alpha  occ. eigenvalues --   -0.37384  -0.36391
 Alpha virt. eigenvalues --    0.05009   0.11134   0.16380   0.18592   0.22934
 Alpha virt. eigenvalues --    0.23461   0.25372   0.25966   0.26927   0.28585
 Alpha virt. eigenvalues --    0.29306   0.30885   0.31193   0.31337   0.32084

 Mulliken charges:
               1
     1  C   -0.302705
     2  C   -0.300711
     3  C   -0.480270
     4  H    0.142721
     5  H    0.154613
     6  H    0.145058
     7  H    0.156781
     8  H    0.156969
     9  H    0.157373
    10  H    0.166151
    11  C   -0.300024
    12  C   -0.298256
    13  C   -0.476051
    14  H    0.145951
    15  H    0.154491
    16  H    0.144801
    17  H    0.154928
    18  H    0.157934
    19  H    0.155122
    20  H    0.161726
    21  C   -0.172354
    22  C   -0.221860
    23  C   -0.172434
    24  C    0.158414
    25  C   -0.170628
    26  C   -0.218347
    27  H    0.225944
    28  H    0.230141
    29  H    0.277095
    30  H    0.275918
    31  H    0.223752
    32  N    0.488173
    33  O   -0.460353
    34  O   -0.460063
 Sum of Mulliken charges =  -0.00000

 Dipole moment (field-independent basis, Debye):
    X=              3.8088    Y=             -3.3854    Z=              1.1996  Tot=              5.2352
 Quadrupole moment (field-independent basis, Debye-Ang):
   XX=           -113.5228   YY=            -90.9215   ZZ=            -94.9707
   XY=             12.1952   XZ=             -4.7999   YZ=             -1.3196

 Normal termination of Gaussian 16 at Wed May  5 20:23:07 2021.
