 Gaussian 16, Revision A.03,
 Gaussian 16:  EM64L-G16RevA.03 25-Dec-2016

 -------------
 #p 6-31g* mp2
 -------------

 ------------------------------------------------------
 Input file generated by CHIRIPA (05-May-2021 14:57:24)
 ------------------------------------------------------
 Symbolic Z-matrix:
 Charge =  0 Multiplicity = 1

                         Standard orientation:
 ---------------------------------------------------------------------
 Center     Atomic      Atomic             Coordinates (Angstroms)
 Number     Number       Type             X           Y           Z
 ---------------------------------------------------------------------
      1          6           0        1.445026   -0.972874   -0.902258
      2          6           0        2.589660   -1.775422   -0.949711
      3          6           0        3.814954   -1.293087   -0.480079
      4          6           0        3.859729    0.002368    0.032836
      5          6           0        2.736859    0.826239    0.093580
      6          6           0        1.522142    0.323109   -0.381681
      7          1           0        0.497296   -1.355641   -1.269266
      8          1           0        2.532735   -2.782291   -1.353466
      9          1           0        4.716584   -1.892974   -0.504934
     10          1           0        2.824847    1.825810    0.501665
     11          1           0        0.634828    0.948623   -0.343583
     12          7           0        5.151294    0.524002    0.532994
     13          8           0        5.164363    1.668783    0.980142
     14          8           0        6.126098   -0.221801    0.468399
     15          6           0       -3.802231   -2.371533    0.610036
     16          6           0       -4.832695   -1.501983    0.982257
     17          6           0       -4.757246   -0.139762    0.676954
     18          6           0       -3.631843    0.320957   -0.004585
     19          6           0       -2.588831   -0.520295   -0.388920
     20          6           0       -2.685556   -1.878782   -0.073160
     21          1           0       -3.869104   -3.428288    0.851265
     22          1           0       -5.701106   -1.881865    1.512914
     23          1           0       -5.540584    0.555564    0.953218
     24          1           0       -1.735664   -0.112157   -0.917074
     25          1           0       -1.883774   -2.551763   -0.363477
     26          7           0       -3.540707    1.761102   -0.333331
     27          8           0       -2.538666    2.142130   -0.934470
     28          8           0       -4.473042    2.481592    0.016363
 ---------------------------------------------------------------------

 SCF Done:  E(RHF) =  -868.336860375     A.U. after   16 cycles
 E2 =    -0.2600812089D+01 EUMP2 =    -0.87093767246351D+03

 The electronic state is 1-A.
 Alpha  occ. eigenvalues --  -20.61731 -20.61689 -20.60849 -20.60838 -15.86756
 Alpha  occ. eigenvalues --  -15.85899 -11.32149 -11.31358 -11.28845 -11.28633
 Alpha  occ. eigenvalues --  -11.28400 -11.27935 -11.27856 -11.27842 -11.27808
 Alpha  occ. eigenvalues --  -11.27638 -11.27062 -11.26914  -1.60771  -1.59918
 Alpha  occ. eigenvalues --   -1.40330  -1.39468  -1.20309  -1.19541  -1.09682
 Alpha  occ. eigenvalues --   -1.08963  -1.05740  -1.04933  -0.96526  -0.95779
 Alpha  occ. eigenvalues --   -0.87129  -0.86354  -0.83381  -0.82580  -0.78448
 Alpha  occ. eigenvalues --   -0.77577  -0.72974  -0.72121  -0.72086  -0.71472
 Alpha  occ. eigenvalues --   -0.71240  -0.70729  -0.65969  -0.65776  -0.65205
 Alpha  occ. eigenvalues --   -0.64950  -0.63098  -0.62233  -0.56202  -0.55565
 Alpha  occ. eigenvalues --   -0.54026  -0.53849  -0.53279  -0.53014  -0.49739
 Alpha  occ. eigenvalues --   -0.49715  -0.48885  -0.48865  -0.45727  -0.44852
 Alpha  occ. eigenvalues --   -0.38245  -0.37617  -0.37297  -0.36511
 Alpha virt. eigenvalues --    0.04104   0.04916   0.10291   0.11129   0.15624
 Alpha virt. eigenvalues --    0.16322   0.17777   0.22253   0.24882   0.25336
 Alpha virt. eigenvalues --    0.27563   0.29117   0.30457   0.31213   0.32870

 Mulliken charges:
               1
     1  C   -0.174634
     2  C   -0.218165
     3  C   -0.171163
     4  C    0.159448
     5  C   -0.170414
     6  C   -0.224559
     7  H    0.214266
     8  H    0.221483
     9  H    0.275965
    10  H    0.279831
    11  H    0.237197
    12  N    0.487777
    13  O   -0.458053
    14  O   -0.460442
    15  C   -0.169693
    16  C   -0.217776
    17  C   -0.169106
    18  C    0.160064
    19  C   -0.175809
    20  C   -0.217933
    21  H    0.228871
    22  H    0.227390
    23  H    0.278696
    24  H    0.269796
    25  H    0.218708
    26  N    0.489341
    27  O   -0.466755
    28  O   -0.454331
 Sum of Mulliken charges =  -0.00000

 Dipole moment (field-independent basis, Debye):
    X=             -5.0888    Y=             -6.7819    Z=             -0.4176  Tot=              8.4891
 Quadrupole moment (field-independent basis, Debye-Ang):
   XX=           -131.2646   YY=           -104.7163   ZZ=           -105.2861
   XY=              8.7220   XZ=            -14.4277   YZ=              1.7380

 Normal termination of Gaussian 16 at Wed May  5 17:53:08 2021.
