 Gaussian 16, Revision A.03,
 Gaussian 16:  EM64L-G16RevA.03 25-Dec-2016

 -------------
 #p 6-31g* mp2
 -------------

 ------------------------------------------------------
 Input file generated by CHIRIPA (05-May-2021 14:51:13)
 ------------------------------------------------------
 Symbolic Z-matrix:
 Charge =  0 Multiplicity = 1

                         Standard orientation:
 ---------------------------------------------------------------------
 Center     Atomic      Atomic             Coordinates (Angstroms)
 Number     Number       Type             X           Y           Z
 ---------------------------------------------------------------------
      1          6           0        2.758661   -0.600600    0.433425
      2          6           0        1.986974   -1.754589   -0.207505
      3          6           0        0.686895   -2.077807    0.529462
      4          1           0        2.981318   -0.852900    1.479233
      5          1           0        2.117763    0.291643    0.456778
      6          1           0        2.629619   -2.644014   -0.230899
      7          1           0        1.766295   -1.499593   -1.251964
      8          1           0        0.023790   -1.206739    0.540963
      9          1           0        0.892019   -2.357661    1.567829
     10          1           0        0.151293   -2.905666    0.054448
     11          6           0        4.060679   -0.265648   -0.292030
     12          6           0        4.832367    0.888341    0.348901
     13          6           0        6.132445    1.211559   -0.388066
     14          1           0        4.701578   -1.157891   -0.315383
     15          1           0        3.838022   -0.013348   -1.337837
     16          1           0        5.053045    0.633345    1.393360
     17          1           0        4.189721    1.777765    0.372295
     18          1           0        5.927321    1.491413   -1.426434
     19          1           0        6.795551    0.340490   -0.399567
     20          1           0        6.668048    2.039418    0.086948
     21          6           0       -3.189469   -0.260157   -0.303731
     22          6           0       -4.127766   -1.378849    0.150268
     23          6           0       -3.673918   -2.759855   -0.323692
     24          1           0       -3.122033   -0.269209   -1.400232
     25          1           0       -2.177721   -0.464051    0.073346
     26          1           0       -5.137735   -1.172188   -0.226390
     27          1           0       -4.193127   -1.367011    1.245806
     28          1           0       -2.676481   -2.991521    0.063676
     29          1           0       -3.626456   -2.795591   -1.416885
     30          1           0       -4.358941   -3.544664    0.011984
     31          6           0       -3.629871    1.126406    0.162335
     32          6           0       -2.691574    2.245097   -0.291663
     33          6           0       -3.145422    3.626103    0.182296
     34          1           0       -4.641619    1.330300   -0.214742
     35          1           0       -3.697308    1.135457    1.258837
     36          1           0       -2.626214    2.233259   -1.387202
     37          1           0       -1.681605    2.038436    0.084994
     38          1           0       -3.192883    3.661839    1.275489
     39          1           0       -4.142859    3.857769   -0.205071
     40          1           0       -2.460400    4.410912   -0.153380
 ---------------------------------------------------------------------

 SCF Done:  E(RHF) =  -470.733190163     A.U. after   11 cycles
 E2 =    -0.1583017757D+01 EUMP2 =    -0.47231620791984D+03

 The electronic state is 1-A.
 Alpha  occ. eigenvalues --  -11.21635 -11.21622 -11.21617 -11.21557 -11.21432
 Alpha  occ. eigenvalues --  -11.21378 -11.21371 -11.21305 -11.21120 -11.21083
 Alpha  occ. eigenvalues --  -11.21082 -11.21003  -1.08459  -1.08408  -1.03564
 Alpha  occ. eigenvalues --   -1.03503  -0.96014  -0.95955  -0.87035  -0.86972
 Alpha  occ. eigenvalues --   -0.79657  -0.79547  -0.78292  -0.78201  -0.65140
 Alpha  occ. eigenvalues --   -0.65000  -0.61003  -0.60867  -0.59404  -0.59302
 Alpha  occ. eigenvalues --   -0.57675  -0.57522  -0.55378  -0.55181  -0.52728
 Alpha  occ. eigenvalues --   -0.52652  -0.52503  -0.52307  -0.50051  -0.49832
 Alpha  occ. eigenvalues --   -0.47951  -0.47885  -0.46764  -0.46566  -0.45894
 Alpha  occ. eigenvalues --   -0.45771  -0.45739  -0.45437  -0.43801  -0.43760
 Alpha virt. eigenvalues --    0.21197   0.23089   0.23653   0.24418   0.25587
 Alpha virt. eigenvalues --    0.26606   0.26947   0.27178   0.27836   0.29313
 Alpha virt. eigenvalues --    0.30189   0.31564   0.31712   0.31826   0.31985

 Mulliken charges:
               1
     1  C   -0.298553
     2  C   -0.299425
     3  C   -0.483715
     4  H    0.149637
     5  H    0.149343
     6  H    0.152134
     7  H    0.152660
     8  H    0.160330
     9  H    0.155309
    10  H    0.162484
    11  C   -0.298329
    12  C   -0.299686
    13  C   -0.475729
    14  H    0.149620
    15  H    0.149864
    16  H    0.151923
    17  H    0.151976
    18  H    0.155253
    19  H    0.155210
    20  H    0.160306
    21  C   -0.307017
    22  C   -0.298742
    23  C   -0.479372
    24  H    0.149171
    25  H    0.158273
    26  H    0.151629
    27  H    0.151813
    28  H    0.159553
    29  H    0.154630
    30  H    0.159838
    31  C   -0.297685
    32  C   -0.299486
    33  C   -0.475658
    34  H    0.149551
    35  H    0.149605
    36  H    0.151918
    37  H    0.150580
    38  H    0.155323
    39  H    0.155361
    40  H    0.160102
 Sum of Mulliken charges =  -0.00000

 Dipole moment (field-independent basis, Debye):
    X=              0.0295    Y=             -0.0114    Z=              0.0017  Tot=              0.0317
 Quadrupole moment (field-independent basis, Debye-Ang):
   XX=            -85.2785   YY=            -85.5989   ZZ=            -83.9412
   XY=             -0.5718   XZ=              1.2026   YZ=             -0.6450

 Normal termination of Gaussian 16 at Thu May  6 00:48:03 2021.
