 Gaussian 16, Revision A.03,
 Gaussian 16:  EM64L-G16RevA.03 25-Dec-2016

 -------------
 #p 6-31g* mp2
 -------------

 ------------------------------------------------------
 Input file generated by CHIRIPA (05-May-2021 14:51:09)
 ------------------------------------------------------
 Symbolic Z-matrix:
 Charge =  0 Multiplicity = 1

                         Standard orientation:
 ---------------------------------------------------------------------
 Center     Atomic      Atomic             Coordinates (Angstroms)
 Number     Number       Type             X           Y           Z
 ---------------------------------------------------------------------
      1          6           0       -3.358536    1.233460    0.133647
      2          6           0       -2.111737    1.996638   -0.314724
      3          6           0       -2.112808    3.454171    0.147218
      4          1           0       -4.251470    1.742067   -0.254853
      5          1           0       -3.428995    1.271694    1.229534
      6          1           0       -2.042901    1.955799   -1.409352
      7          1           0       -1.221659    1.486047    0.074728
      8          1           0       -2.157117    3.512047    1.239595
      9          1           0       -2.983025    3.984469   -0.252918
     10          1           0       -1.212552    3.981014   -0.184195
     11          6           0       -3.372052   -0.225055   -0.320534
     12          6           0       -4.618851   -0.988232    0.127838
     13          6           0       -4.617780   -2.445765   -0.334104
     14          1           0       -3.301593   -0.263289   -1.416421
     15          1           0       -2.479118   -0.733661    0.067967
     16          1           0       -5.508930   -0.477642   -0.261615
     17          1           0       -4.687688   -0.947394    1.222465
     18          1           0       -3.747563   -2.976064    0.066031
     19          1           0       -4.573471   -2.503642   -1.426482
     20          1           0       -5.518036   -2.972609   -0.002692
     21          6           0        3.989553   -0.141093    0.342207
     22          6           0        5.148816   -0.175920   -0.654227
     23          6           0        6.390545    0.554690   -0.142256
     24          1           0        3.736136    0.904679    0.563758
     25          1           0        4.316189   -0.591084    1.289947
     26          1           0        4.819666    0.272750   -1.600256
     27          1           0        5.399377   -1.221731   -0.873579
     28          1           0        6.746058    0.103552    0.789776
     29          1           0        6.163053    1.606524    0.058970
     30          1           0        7.206961    0.517411   -0.870223
     31          6           0        2.741035   -0.867313   -0.155320
     32          6           0        1.581771   -0.832486    0.841114
     33          6           0        0.340043   -1.563095    0.329143
     34          1           0        2.414399   -0.417321   -1.103061
     35          1           0        2.994452   -1.913085   -0.376871
     36          1           0        1.331211    0.213325    1.060465
     37          1           0        1.910923   -1.281155    1.787143
     38          1           0        0.567535   -2.614929    0.127917
     39          1           0       -0.015471   -1.111957   -0.602890
     40          1           0       -0.476373   -1.525816    1.057109
 ---------------------------------------------------------------------

 SCF Done:  E(RHF) =  -470.732603380     A.U. after   11 cycles
 E2 =    -0.1583615665D+01 EUMP2 =    -0.47231621904499D+03

 The electronic state is 1-A.
 Alpha  occ. eigenvalues --  -11.21669 -11.21622 -11.21584 -11.21522 -11.21441
 Alpha  occ. eigenvalues --  -11.21380 -11.21329 -11.21194 -11.21125 -11.21087
 Alpha  occ. eigenvalues --  -11.21070 -11.21006  -1.08475  -1.08361  -1.03578
 Alpha  occ. eigenvalues --   -1.03483  -0.96045  -0.95915  -0.87068  -0.86933
 Alpha  occ. eigenvalues --   -0.79672  -0.79532  -0.78293  -0.78156  -0.65168
 Alpha  occ. eigenvalues --   -0.64959  -0.61005  -0.60856  -0.59420  -0.59291
 Alpha  occ. eigenvalues --   -0.57645  -0.57539  -0.55369  -0.55180  -0.52809
 Alpha  occ. eigenvalues --   -0.52622  -0.52448  -0.52316  -0.50018  -0.49833
 Alpha  occ. eigenvalues --   -0.47972  -0.47855  -0.46736  -0.46553  -0.45874
 Alpha  occ. eigenvalues --   -0.45756  -0.45671  -0.45516  -0.43764  -0.43705
 Alpha virt. eigenvalues --    0.20774   0.23014   0.23804   0.24414   0.26297
 Alpha virt. eigenvalues --    0.26568   0.27023   0.27456   0.28002   0.29478
 Alpha virt. eigenvalues --    0.30262   0.31384   0.31768   0.31909   0.32192

 Mulliken charges:
               1
     1  C   -0.297292
     2  C   -0.304220
     3  C   -0.475504
     4  H    0.149296
     5  H    0.148710
     6  H    0.151362
     7  H    0.156124
     8  H    0.155139
     9  H    0.155365
    10  H    0.159663
    11  C   -0.308605
    12  C   -0.299040
    13  C   -0.475685
    14  H    0.148009
    15  H    0.162718
    16  H    0.151386
    17  H    0.151046
    18  H    0.155347
    19  H    0.155039
    20  H    0.159828
    21  C   -0.298398
    22  C   -0.299698
    23  C   -0.475733
    24  H    0.149775
    25  H    0.149562
    26  H    0.152048
    27  H    0.151990
    28  H    0.155197
    29  H    0.155241
    30  H    0.160341
    31  C   -0.298744
    32  C   -0.301636
    33  C   -0.480191
    34  H    0.150140
    35  H    0.149862
    36  H    0.153100
    37  H    0.152149
    38  H    0.155671
    39  H    0.159708
    40  H    0.160933
 Sum of Mulliken charges =  -0.00000

 Dipole moment (field-independent basis, Debye):
    X=              0.0624    Y=             -0.0303    Z=             -0.0029  Tot=              0.0694
 Quadrupole moment (field-independent basis, Debye-Ang):
   XX=            -85.6716   YY=            -85.3899   ZZ=            -83.9964
   XY=             -1.0519   XZ=              0.2752   YZ=             -0.9958

 Normal termination of Gaussian 16 at Wed May  5 22:59:55 2021.
