 Gaussian 16, Revision A.03,
 Gaussian 16:  EM64L-G16RevA.03 25-Dec-2016

 -------------
 #p 6-31g* mp2
 -------------

 ------------------------------------------------------
 Input file generated by CHIRIPA (05-May-2021 14:53:16)
 ------------------------------------------------------
 Symbolic Z-matrix:
 Charge =  0 Multiplicity = 1

                         Standard orientation:
 ---------------------------------------------------------------------
 Center     Atomic      Atomic             Coordinates (Angstroms)
 Number     Number       Type             X           Y           Z
 ---------------------------------------------------------------------
      1          6           0       -3.326113   -0.771290   -0.027106
      2          6           0       -2.229604   -1.047851   -1.056265
      3          6           0       -1.425149   -2.308706   -0.738630
      4          1           0       -2.870562   -0.676297    0.968079
      5          1           0       -4.001932   -1.636429    0.019781
      6          1           0       -1.556849   -0.181879   -1.102196
      7          1           0       -2.687797   -1.142007   -2.049145
      8          1           0       -2.078953   -3.186468   -0.712671
      9          1           0       -0.941579   -2.220885    0.239659
     10          1           0       -0.646783   -2.487458   -1.486998
     11          6           0       -4.139008    0.485926   -0.330974
     12          6           0       -5.235517    0.762487    0.698185
     13          6           0       -6.039972    2.023342    0.380550
     14          1           0       -3.463189    1.351065   -0.377861
     15          1           0       -4.594559    0.390933   -1.326159
     16          1           0       -4.777324    0.856643    1.691065
     17          1           0       -5.908272   -0.103484    0.744116
     18          1           0       -6.523542    1.935521   -0.597739
     19          1           0       -5.386168    2.901104    0.354591
     20          1           0       -6.818338    2.202094    1.128918
     21          6           0        3.849526    2.337008   -0.596027
     22          6           0        3.715688    2.050070    0.766425
     23          6           0        3.199710    0.820209    1.185655
     24          6           0        2.825819   -0.103686    0.211019
     25          6           0        2.946948    0.152632   -1.153869
     26          6           0        3.465406    1.389045   -1.550143
     27          1           0        4.251313    3.294939   -0.912779
     28          1           0        4.013185    2.784368    1.509626
     29          1           0        3.085317    0.571983    2.233852
     30          1           0        2.641796   -0.599414   -1.871314
     31          1           0        3.568216    1.609149   -2.608929
     32          7           0        2.278264   -1.409154    0.642689
     33          8           0        1.956120   -2.206169   -0.235735
     34          8           0        2.181602   -1.610645    1.851280
 ---------------------------------------------------------------------

 SCF Done:  E(RHF) =  -669.535527681     A.U. after   15 cycles
 E2 =    -0.2091619798D+01 EUMP2 =    -0.67162714747885D+03

 The electronic state is 1-A.
 Alpha  occ. eigenvalues --  -20.60912 -20.60878 -15.85919 -11.31274 -11.27839
 Alpha  occ. eigenvalues --  -11.27835 -11.27577 -11.26850 -11.26840 -11.21284
 Alpha  occ. eigenvalues --  -11.20988 -11.20868 -11.20853 -11.20773 -11.19736
 Alpha  occ. eigenvalues --   -1.59958  -1.39514  -1.19443  -1.08842  -1.07912
 Alpha  occ. eigenvalues --   -1.04842  -1.02927  -0.95689  -0.95326  -0.86339
 Alpha  occ. eigenvalues --   -0.86239  -0.82515  -0.79010  -0.77712  -0.77564
 Alpha  occ. eigenvalues --   -0.72151  -0.71284  -0.70551  -0.65099  -0.64845
 Alpha  occ. eigenvalues --   -0.64553  -0.62190  -0.60333  -0.58750  -0.56947
 Alpha  occ. eigenvalues --   -0.55347  -0.54629  -0.53175  -0.52934  -0.51985
 Alpha  occ. eigenvalues --   -0.51756  -0.49345  -0.48907  -0.48849  -0.47301
 Alpha  occ. eigenvalues --   -0.46091  -0.45241  -0.45212  -0.44821  -0.43127
 Alpha  occ. eigenvalues --   -0.37420  -0.36444
 Alpha virt. eigenvalues --    0.04947   0.11203   0.16425   0.21301   0.23316
 Alpha virt. eigenvalues --    0.24854   0.27098   0.27215   0.27892   0.28042
 Alpha virt. eigenvalues --    0.28896   0.30895   0.31963   0.31979   0.32271

 Mulliken charges:
               1
     1  C   -0.297762
     2  C   -0.300821
     3  C   -0.474362
     4  H    0.150795
     5  H    0.149497
     6  H    0.144549
     7  H    0.147279
     8  H    0.149521
     9  H    0.165597
    10  H    0.167420
    11  C   -0.297302
    12  C   -0.299254
    13  C   -0.475253
    14  H    0.146618
    15  H    0.148159
    16  H    0.151884
    17  H    0.152174
    18  H    0.154503
    19  H    0.153508
    20  H    0.159411
    21  C   -0.170700
    22  C   -0.218552
    23  C   -0.171083
    24  C    0.158563
    25  C   -0.170749
    26  C   -0.218499
    27  H    0.225942
    28  H    0.223733
    29  H    0.275730
    30  H    0.275589
    31  H    0.223853
    32  N    0.488180
    33  O   -0.457433
    34  O   -0.460735
 Sum of Mulliken charges =  -0.00000

 Dipole moment (field-independent basis, Debye):
    X=              2.1584    Y=              4.4950    Z=             -1.4790  Tot=              5.2011
 Quadrupole moment (field-independent basis, Debye-Ang):
   XX=            -85.2656   YY=            -96.2482   ZZ=            -90.6505
   XY=             14.3171   XZ=             -3.2818   YZ=              2.9944

 Normal termination of Gaussian 16 at Thu May  6 07:31:12 2021.
