 Gaussian 16, Revision A.03,
 Gaussian 16:  EM64L-G16RevA.03 25-Dec-2016

 -------------
 #p 6-31g* mp2
 -------------

 ------------------------------------------------------
 Input file generated by CHIRIPA (05-May-2021 14:57:25)
 ------------------------------------------------------
 Symbolic Z-matrix:
 Charge =  0 Multiplicity = 1

                         Standard orientation:
 ---------------------------------------------------------------------
 Center     Atomic      Atomic             Coordinates (Angstroms)
 Number     Number       Type             X           Y           Z
 ---------------------------------------------------------------------
      1          6           0       -3.488290    2.463073    0.636539
      2          6           0       -3.758612    1.409674    1.516196
      3          6           0       -3.495639    0.088138    1.143454
      4          6           0       -2.959876   -0.144864   -0.122231
      5          6           0       -2.679631    0.883218   -1.021008
      6          6           0       -2.950610    2.196952   -0.627028
      7          1           0       -3.695683    3.486644    0.934343
      8          1           0       -4.176186    1.613374    2.498124
      9          1           0       -3.695280   -0.746291    1.804732
     10          1           0       -2.263429    0.648836   -1.993252
     11          1           0       -2.739665    3.013053   -1.312249
     12          7           0       -2.677240   -1.539785   -0.528078
     13          8           0       -2.205183   -1.718615   -1.648711
     14          8           0       -2.933119   -2.427881    0.282137
     15          6           0        5.274394    1.019157   -0.000728
     16          6           0        4.195446    1.601560   -0.673928
     17          6           0        2.934360    0.998550   -0.649686
     18          6           0        2.787202   -0.191785    0.060763
     19          6           0        3.842742   -0.796562    0.741477
     20          6           0        5.094915   -0.175937    0.703585
     21          1           0        6.250575    1.494432   -0.024862
     22          1           0        4.331904    2.529652   -1.221714
     23          1           0        2.081918    1.427796   -1.162042
     24          1           0        3.675857   -1.722089    1.279034
     25          1           0        5.931042   -0.630507    1.227325
     26          7           0        1.456864   -0.839489    0.093652
     27          8           0        1.353269   -1.887872    0.726738
     28          8           0        0.542930   -0.286510   -0.514275
 ---------------------------------------------------------------------

 SCF Done:  E(RHF) =  -868.337076652     A.U. after   16 cycles
 E2 =    -0.2601633009D+01 EUMP2 =    -0.87093870966104D+03

 The electronic state is 1-A.
 Alpha  occ. eigenvalues --  -20.60627 -20.60619 -20.59089 -20.59049 -15.85662
 Alpha  occ. eigenvalues --  -15.84136 -11.31128 -11.29784 -11.27736 -11.27683
 Alpha  occ. eigenvalues --  -11.27469 -11.26763 -11.26726 -11.26470 -11.26419
 Alpha  occ. eigenvalues --  -11.26354 -11.25601 -11.25589  -1.59678  -1.58099
 Alpha  occ. eigenvalues --   -1.39236  -1.37663  -1.19308  -1.18027  -1.08685
 Alpha  occ. eigenvalues --   -1.07379  -1.04729  -1.03518  -0.95507  -0.94169
 Alpha  occ. eigenvalues --   -0.86122  -0.84903  -0.82344  -0.81036  -0.77377
 Alpha  occ. eigenvalues --   -0.75996  -0.71937  -0.70992  -0.70422  -0.70405
 Alpha  occ. eigenvalues --   -0.69325  -0.69208  -0.64963  -0.64734  -0.63715
 Alpha  occ. eigenvalues --   -0.63576  -0.62079  -0.60878  -0.55227  -0.54073
 Alpha  occ. eigenvalues --   -0.53049  -0.52826  -0.51794  -0.51652  -0.48698
 Alpha  occ. eigenvalues --   -0.48611  -0.47170  -0.47101  -0.44616  -0.42975
 Alpha  occ. eigenvalues --   -0.37293  -0.36337  -0.36012  -0.35116
 Alpha virt. eigenvalues --    0.05170   0.06629   0.11318   0.12533   0.16649
 Alpha virt. eigenvalues --    0.18005   0.21421   0.22424   0.27312   0.28159
 Alpha virt. eigenvalues --    0.28421   0.29382   0.30965   0.31890   0.32541

 Mulliken charges:
               1
     1  C   -0.172726
     2  C   -0.219985
     3  C   -0.171501
     4  C    0.170115
     5  C   -0.158063
     6  C   -0.222139
     7  H    0.218843
     8  H    0.217841
     9  H    0.273377
    10  H    0.274278
    11  H    0.215633
    12  N    0.495139
    13  O   -0.457383
    14  O   -0.465099
    15  C   -0.171093
    16  C   -0.218438
    17  C   -0.170355
    18  C    0.159130
    19  C   -0.170578
    20  C   -0.218500
    21  H    0.225118
    22  H    0.221908
    23  H    0.272221
    24  H    0.277175
    25  H    0.223647
    26  N    0.491701
    27  O   -0.453420
    28  O   -0.466846
 Sum of Mulliken charges =  -0.00000

 Dipole moment (field-independent basis, Debye):
    X=              3.9943    Y=              6.8400    Z=              1.2343  Tot=              8.0165
 Quadrupole moment (field-independent basis, Debye-Ang):
   XX=            -74.0849   YY=           -105.4454   ZZ=           -100.5970
   XY=             -9.3951   XZ=             -4.2764   YZ=             -4.8475

 Normal termination of Gaussian 16 at Fri May  7 05:00:45 2021.
