 Gaussian 16, Revision A.03,
 Gaussian 16:  EM64L-G16RevA.03 25-Dec-2016

 -------------
 #p 6-31g* mp2
 -------------

 ------------------------------------------------------
 Input file generated by CHIRIPA (05-May-2021 14:57:25)
 ------------------------------------------------------
 Symbolic Z-matrix:
 Charge =  0 Multiplicity = 1

                         Standard orientation:
 ---------------------------------------------------------------------
 Center     Atomic      Atomic             Coordinates (Angstroms)
 Number     Number       Type             X           Y           Z
 ---------------------------------------------------------------------
      1          6           0        1.798724    0.365138    1.789945
      2          6           0        2.570352   -0.797547    1.886251
      3          6           0        3.656985   -1.001440    1.030561
      4          6           0        3.944963   -0.017514    0.085972
      5          6           0        3.195115    1.151446   -0.034649
      6          6           0        2.113014    1.334215    0.831492
      7          1           0        0.956362    0.515322    2.458726
      8          1           0        2.328597   -1.551848    2.629642
      9          1           0        4.271068   -1.892245    1.083349
     10          1           0        3.460625    1.885428   -0.785777
     11          1           0        1.515510    2.238147    0.754418
     12          7           0        5.092934   -0.222186   -0.825441
     13          8           0        5.325945    0.659803   -1.649115
     14          8           0        5.737965   -1.260720   -0.698874
     15          6           0       -1.287863    0.464297   -0.447111
     16          6           0       -2.181671    1.502798   -0.165786
     17          6           0       -3.551170    1.248163   -0.046707
     18          6           0       -3.994352   -0.062672   -0.215792
     19          6           0       -3.128794   -1.118688   -0.496735
     20          6           0       -1.763437   -0.840830   -0.611399
     21          1           0       -0.225612    0.671125   -0.537901
     22          1           0       -1.815167    2.517349   -0.037699
     23          1           0       -4.265155    2.033312    0.170513
     24          1           0       -3.524009   -2.119806   -0.619152
     25          1           0       -1.071604   -1.649316   -0.829941
     26          7           0       -5.441986   -0.344536   -0.092066
     27          8           0       -5.807213   -1.508026   -0.245476
     28          8           0       -6.184003    0.603368    0.155979
 ---------------------------------------------------------------------

 SCF Done:  E(RHF) =  -868.336780108     A.U. after   16 cycles
 E2 =    -0.2601297281D+01 EUMP2 =    -0.87093807738816D+03

 The electronic state is 1-A.
 Alpha  occ. eigenvalues --  -20.61595 -20.61589 -20.61159 -20.61152 -15.86659
 Alpha  occ. eigenvalues --  -15.86217 -11.32222 -11.31653 -11.28889 -11.28806
 Alpha  occ. eigenvalues --  -11.28593 -11.28270 -11.28222 -11.27933 -11.27881
 Alpha  occ. eigenvalues --  -11.27795 -11.27317 -11.27209  -1.60669  -1.60234
 Alpha  occ. eigenvalues --   -1.40216  -1.39785  -1.20451  -1.19841  -1.09800
 Alpha  occ. eigenvalues --   -1.09212  -1.05885  -1.05260  -0.96583  -0.96033
 Alpha  occ. eigenvalues --   -0.87263  -0.86651  -0.83408  -0.82870  -0.78428
 Alpha  occ. eigenvalues --   -0.77910  -0.72870  -0.72430  -0.72001  -0.71561
 Alpha  occ. eigenvalues --   -0.71501  -0.70944  -0.66080  -0.65883  -0.65481
 Alpha  occ. eigenvalues --   -0.65260  -0.63199  -0.62603  -0.56321  -0.55919
 Alpha  occ. eigenvalues --   -0.54050  -0.53932  -0.53564  -0.53346  -0.49644
 Alpha  occ. eigenvalues --   -0.49613  -0.49196  -0.49182  -0.45577  -0.45174
 Alpha  occ. eigenvalues --   -0.38544  -0.37711  -0.37475  -0.36881
 Alpha virt. eigenvalues --    0.04032   0.04694   0.10020   0.10759   0.15383
 Alpha virt. eigenvalues --    0.16197   0.19549   0.21581   0.25219   0.27180
 Alpha virt. eigenvalues --    0.27510   0.28562   0.30272   0.30945   0.31388

 Mulliken charges:
               1
     1  C   -0.169516
     2  C   -0.220326
     3  C   -0.169519
     4  C    0.158437
     5  C   -0.171318
     6  C   -0.233789
     7  H    0.232018
     8  H    0.228181
     9  H    0.279357
    10  H    0.278481
    11  H    0.222235
    12  N    0.488057
    13  O   -0.458369
    14  O   -0.457465
    15  C   -0.178513
    16  C   -0.224627
    17  C   -0.169970
    18  C    0.158065
    19  C   -0.170484
    20  C   -0.222710
    21  H    0.234908
    22  H    0.218449
    23  H    0.276352
    24  H    0.276906
    25  H    0.226209
    26  N    0.487991
    27  O   -0.459217
    28  O   -0.459822
 Sum of Mulliken charges =  -0.00000

 Dipole moment (field-independent basis, Debye):
    X=              1.2865    Y=              1.5417    Z=              2.8401  Tot=              3.4782
 Quadrupole moment (field-independent basis, Debye-Ang):
   XX=           -177.4112   YY=            -96.5839   ZZ=           -104.0787
   XY=             -3.3867   XZ=             13.4905   YZ=             -1.4461

 Normal termination of Gaussian 16 at Wed May  5 19:30:23 2021.
