 Gaussian 16, Revision A.03,
 Gaussian 16:  EM64L-G16RevA.03 25-Dec-2016

 -------------
 #p 6-31g* mp2
 -------------

 ------------------------------------------------------
 Input file generated by CHIRIPA (05-May-2021 14:55:19)
 ------------------------------------------------------
 Symbolic Z-matrix:
 Charge =  0 Multiplicity = 1

                         Standard orientation:
 ---------------------------------------------------------------------
 Center     Atomic      Atomic             Coordinates (Angstroms)
 Number     Number       Type             X           Y           Z
 ---------------------------------------------------------------------
      1          6           0        2.713055    1.941783    1.007655
      2          6           0        1.615081    1.192624    1.443241
      3          6           0        1.423856   -0.116128    0.990309
      4          6           0        2.354327   -0.646724    0.098130
      5          6           0        3.458263    0.074369   -0.354242
      6          6           0        3.629526    1.381253    0.111883
      7          1           0        2.853850    2.957727    1.364629
      8          1           0        0.901732    1.625362    2.138882
      9          1           0        0.582663   -0.718436    1.311301
     10          1           0        4.152439   -0.384170   -1.047985
     11          1           0        4.483152    1.960718   -0.228099
     12          7           0        2.162452   -2.031252   -0.388353
     13          8           0        2.996488   -2.475772   -1.174116
     14          8           0        1.181657   -2.645709    0.025316
     15          6           0       -3.299650    0.025694    0.284563
     16          6           0       -4.455499   -0.836701   -0.223645
     17          6           0       -4.935869   -1.852216    0.813548
     18          1           0       -2.464622   -0.626165    0.575689
     19          1           0       -3.617150    0.552433    1.195132
     20          1           0       -4.136368   -1.360588   -1.133762
     21          1           0       -5.287803   -0.182702   -0.513773
     22          1           0       -5.280428   -1.343671    1.719783
     23          1           0       -4.122451   -2.528248    1.096272
     24          1           0       -5.762461   -2.458036    0.429380
     25          6           0       -2.808381    1.045760   -0.741032
     26          6           0       -1.652533    1.908154   -0.232825
     27          6           0       -1.172164    2.923669   -1.270017
     28          1           0       -2.490882    0.519021   -1.651601
     29          1           0       -3.643411    1.697618   -1.032158
     30          1           0       -0.820230    1.254156    0.057305
     31          1           0       -1.971665    2.432041    0.677293
     32          1           0       -1.985581    3.599702   -1.552741
     33          1           0       -0.827605    2.415124   -2.176252
     34          1           0       -0.345571    3.529491   -0.885848
 ---------------------------------------------------------------------

 SCF Done:  E(RHF) =  -669.534428124     A.U. after   15 cycles
 E2 =    -0.2093646327D+01 EUMP2 =    -0.67162807445122D+03

 The electronic state is 1-A.
 Alpha  occ. eigenvalues --  -20.60850 -20.60843 -15.85902 -11.31273 -11.27817
 Alpha  occ. eigenvalues --  -11.27812 -11.27554 -11.26845 -11.26825 -11.21812
 Alpha  occ. eigenvalues --  -11.21558 -11.21510 -11.21456 -11.21366 -11.20946
 Alpha  occ. eigenvalues --   -1.59924  -1.39477  -1.19446  -1.08834  -1.08543
 Alpha  occ. eigenvalues --   -1.04860  -1.03623  -0.96073  -0.95670  -0.87093
 Alpha  occ. eigenvalues --   -0.86236  -0.82514  -0.79729  -0.78390  -0.77528
 Alpha  occ. eigenvalues --   -0.72119  -0.71248  -0.70543  -0.65218  -0.65059
 Alpha  occ. eigenvalues --   -0.64833  -0.62199  -0.61028  -0.59475  -0.57705
 Alpha  occ. eigenvalues --   -0.55363  -0.55326  -0.53212  -0.52926  -0.52753
 Alpha  occ. eigenvalues --   -0.52503  -0.50006  -0.48878  -0.48875  -0.48030
 Alpha  occ. eigenvalues --   -0.46748  -0.45913  -0.45814  -0.44876  -0.43888
 Alpha  occ. eigenvalues --   -0.37419  -0.36305
 Alpha virt. eigenvalues --    0.04948   0.11116   0.16391   0.20574   0.22916
 Alpha virt. eigenvalues --    0.24127   0.25143   0.26464   0.27455   0.28302
 Alpha virt. eigenvalues --    0.29588   0.30579   0.31402   0.31568   0.32211

 Mulliken charges:
               1
     1  C   -0.171936
     2  C   -0.214873
     3  C   -0.175455
     4  C    0.158696
     5  C   -0.171444
     6  C   -0.217967
     7  H    0.226031
     8  H    0.226792
     9  H    0.278170
    10  H    0.275788
    11  H    0.223888
    12  N    0.488031
    13  O   -0.459882
    14  O   -0.460940
    15  C   -0.300305
    16  C   -0.299651
    17  C   -0.476855
    18  H    0.150219
    19  H    0.146451
    20  H    0.156052
    21  H    0.151159
    22  H    0.152898
    23  H    0.159207
    24  H    0.161169
    25  C   -0.297575
    26  C   -0.308729
    27  C   -0.473592
    28  H    0.153589
    29  H    0.149553
    30  H    0.158018
    31  H    0.145108
    32  H    0.155813
    33  H    0.158217
    34  H    0.154354
 Sum of Mulliken charges =  -0.00000

 Dipole moment (field-independent basis, Debye):
    X=              0.7324    Y=              4.7915    Z=              1.6639  Tot=              5.1248
 Quadrupole moment (field-independent basis, Debye-Ang):
   XX=            -87.9787   YY=           -102.0428   ZZ=            -93.6953
   XY=             11.1331   XZ=              1.7799   YZ=             -0.0680

 Normal termination of Gaussian 16 at Wed May  5 17:20:30 2021.
