 Gaussian 16, Revision A.03,
 Gaussian 16:  EM64L-G16RevA.03 25-Dec-2016

 -------------
 #p 6-31g* mp2
 -------------

 ------------------------------------------------------
 Input file generated by CHIRIPA (05-May-2021 14:57:24)
 ------------------------------------------------------
 Symbolic Z-matrix:
 Charge =  0 Multiplicity = 1

                         Standard orientation:
 ---------------------------------------------------------------------
 Center     Atomic      Atomic             Coordinates (Angstroms)
 Number     Number       Type             X           Y           Z
 ---------------------------------------------------------------------
      1          6           0        2.879888    2.631079   -0.415770
      2          6           0        2.804965    2.189847    0.909456
      3          6           0        2.825489    0.823572    1.205124
      4          6           0        2.922191   -0.077917    0.146230
      5          6           0        2.998437    0.330545   -1.184422
      6          6           0        2.976216    1.701658   -1.456644
      7          1           0        2.863285    3.694313   -0.636345
      8          1           0        2.730088    2.909380    1.719833
      9          1           0        2.768896    0.454503    2.221983
     10          1           0        3.072368   -0.410613   -1.970957
     11          1           0        3.034550    2.041443   -2.486784
     12          7           0        2.944818   -1.526892    0.446830
     13          8           0        3.030612   -2.300933   -0.504030
     14          8           0        2.876330   -1.861119    1.627609
     15          6           0       -1.681566   -2.309191   -0.566600
     16          6           0       -1.022953   -1.081223   -0.688440
     17          6           0       -1.698373    0.115379   -0.430568
     18          6           0       -3.038041    0.046798   -0.051259
     19          6           0       -3.721777   -1.161037    0.078854
     20          6           0       -3.026504   -2.345116   -0.184017
     21          1           0       -1.149172   -3.233877   -0.768864
     22          1           0        0.021514   -1.050291   -0.985387
     23          1           0       -1.212801    1.079814   -0.517196
     24          1           0       -4.763273   -1.159916    0.376686
     25          1           0       -3.540538   -3.297327   -0.088589
     26          7           0       -3.763586    1.306958    0.224386
     27          8           0       -4.943565    1.219559    0.557021
     28          8           0       -3.138550    2.358211    0.102581
 ---------------------------------------------------------------------

 SCF Done:  E(RHF) =  -868.339439929     A.U. after   16 cycles
 E2 =    -0.2600132028D+01 EUMP2 =    -0.87093957195694D+03

 The electronic state is 1-A.
 Alpha  occ. eigenvalues --  -20.61700 -20.61651 -20.60708 -20.60689 -15.86705
 Alpha  occ. eigenvalues --  -15.85750 -11.31963 -11.30960 -11.28522 -11.28429
 Alpha  occ. eigenvalues --  -11.28125 -11.27530 -11.27517 -11.27464 -11.27389
 Alpha  occ. eigenvalues --  -11.27134 -11.26457 -11.26432  -1.60752  -1.59779
 Alpha  occ. eigenvalues --   -1.40304  -1.39338  -1.20107  -1.19110  -1.09503
 Alpha  occ. eigenvalues --   -1.08511  -1.05463  -1.04497  -0.96356  -0.95376
 Alpha  occ. eigenvalues --   -0.86857  -0.85890  -0.83177  -0.82225  -0.78261
 Alpha  occ. eigenvalues --   -0.77316  -0.72912  -0.72101  -0.71968  -0.71144
 Alpha  occ. eigenvalues --   -0.71100  -0.70164  -0.65728  -0.65420  -0.64752
 Alpha  occ. eigenvalues --   -0.64486  -0.62794  -0.61861  -0.55908  -0.54931
 Alpha  occ. eigenvalues --   -0.53829  -0.53517  -0.52825  -0.52569  -0.49690
 Alpha  occ. eigenvalues --   -0.49664  -0.48737  -0.48713  -0.45719  -0.44779
 Alpha  occ. eigenvalues --   -0.38057  -0.37074  -0.37042  -0.36103
 Alpha virt. eigenvalues --    0.04229   0.05227   0.10478   0.11547   0.15775
 Alpha virt. eigenvalues --    0.16769   0.20843   0.21701   0.26594   0.27155
 Alpha virt. eigenvalues --    0.27895   0.28687   0.30298   0.31176   0.32105

 Mulliken charges:
               1
     1  C   -0.170565
     2  C   -0.217730
     3  C   -0.170625
     4  C    0.154837
     5  C   -0.181394
     6  C   -0.218825
     7  H    0.231278
     8  H    0.229282
     9  H    0.278572
    10  H    0.275032
    11  H    0.226997
    12  N    0.487887
    13  O   -0.465129
    14  O   -0.454671
    15  C   -0.169546
    16  C   -0.223231
    17  C   -0.172900
    18  C    0.158074
    19  C   -0.171267
    20  C   -0.218850
    21  H    0.234015
    22  H    0.224866
    23  H    0.272073
    24  H    0.274568
    25  H    0.223887
    26  N    0.488373
    27  O   -0.460589
    28  O   -0.464416
 Sum of Mulliken charges =  -0.00000

 Dipole moment (field-independent basis, Debye):
    X=              2.7003    Y=              0.7199    Z=             -1.9096  Tot=              3.3847
 Quadrupole moment (field-independent basis, Debye-Ang):
   XX=           -118.3177   YY=           -104.6919   ZZ=           -100.6700
   XY=             32.0370   XZ=             -1.4106   YZ=              1.5049

 Normal termination of Gaussian 16 at Thu May  6 08:13:36 2021.
