 Gaussian 16, Revision A.03,
 Gaussian 16:  EM64L-G16RevA.03 25-Dec-2016

 -------------
 #p 6-31g* mp2
 -------------

 ------------------------------------------------------
 Input file generated by CHIRIPA (05-May-2021 14:51:09)
 ------------------------------------------------------
 Symbolic Z-matrix:
 Charge =  0 Multiplicity = 1

                         Standard orientation:
 ---------------------------------------------------------------------
 Center     Atomic      Atomic             Coordinates (Angstroms)
 Number     Number       Type             X           Y           Z
 ---------------------------------------------------------------------
      1          6           0        3.641692   -0.458843   -0.327565
      2          6           0        3.073664   -1.549614    0.581031
      3          6           0        2.067385   -2.450857   -0.135179
      4          1           0        2.815535    0.150314   -0.719147
      5          1           0        4.122639   -0.928892   -1.196552
      6          1           0        2.595142   -1.077695    1.448744
      7          1           0        3.901286   -2.156126    0.970648
      8          1           0        2.536201   -2.948219   -0.990424
      9          1           0        1.222636   -1.863661   -0.509612
     10          1           0        1.673954   -3.223473    0.532755
     11          6           0        4.649131    0.450245    0.374116
     12          6           0        5.217159    1.541016   -0.534480
     13          6           0        6.223438    2.442259    0.181731
     14          1           0        4.168184    0.920294    1.243104
     15          1           0        5.475288   -0.158912    0.765699
     16          1           0        4.389537    2.147528   -0.924097
     17          1           0        5.695681    1.069097   -1.402192
     18          1           0        7.068187    1.855063    0.556164
     19          1           0        5.754622    2.939621    1.036976
     20          1           0        6.616869    3.214875   -0.486204
     21          6           0       -3.560422   -0.363427   -0.348848
     22          6           0       -3.204854   -1.676089    0.350063
     23          6           0       -2.032646   -2.400136   -0.312867
     24          1           0       -3.802190   -0.569177   -1.400590
     25          1           0       -2.678569    0.292095   -0.353302
     26          1           0       -4.087516   -2.328396    0.354422
     27          1           0       -2.964092   -1.467215    1.400312
     28          1           0       -1.136613   -1.771131   -0.303987
     29          1           0       -2.266421   -2.637204   -1.355820
     30          1           0       -1.795375   -3.335907    0.202781
     31          6           0       -4.730401    0.372026    0.302296
     32          6           0       -5.085969    1.684686   -0.396615
     33          6           0       -6.258177    2.408734    0.266316
     34          1           0       -5.612254   -0.283497    0.306751
     35          1           0       -4.488634    0.577774    1.354038
     36          1           0       -5.326732    1.475813   -1.446864
     37          1           0       -4.203307    2.336994   -0.400974
     38          1           0       -6.024403    2.645801    1.309268
     39          1           0       -7.154210    1.779728    0.257436
     40          1           0       -6.495449    3.344505   -0.249334
 ---------------------------------------------------------------------

 SCF Done:  E(RHF) =  -470.733087926     A.U. after   11 cycles
 E2 =    -0.1582272294D+01 EUMP2 =    -0.47231536021904D+03

 The electronic state is 1-A.
 Alpha  occ. eigenvalues --  -11.21607 -11.21602 -11.21580 -11.21578 -11.21406
 Alpha  occ. eigenvalues --  -11.21402 -11.21347 -11.21343 -11.21076 -11.21073
 Alpha  occ. eigenvalues --  -11.21006 -11.21002  -1.08430  -1.08420  -1.03537
 Alpha  occ. eigenvalues --   -1.03498  -0.96010  -0.95922  -0.87055  -0.86910
 Alpha  occ. eigenvalues --   -0.79647  -0.79515  -0.78253  -0.78224  -0.65089
 Alpha  occ. eigenvalues --   -0.65029  -0.61037  -0.60815  -0.59368  -0.59296
 Alpha  occ. eigenvalues --   -0.57638  -0.57523  -0.55475  -0.55067  -0.52746
 Alpha  occ. eigenvalues --   -0.52572  -0.52501  -0.52278  -0.50137  -0.49678
 Alpha  occ. eigenvalues --   -0.47991  -0.47800  -0.46741  -0.46463  -0.45820
 Alpha  occ. eigenvalues --   -0.45750  -0.45723  -0.45636  -0.43818  -0.43724
 Alpha virt. eigenvalues --    0.22195   0.23025   0.23589   0.24847   0.26059
 Alpha virt. eigenvalues --    0.26793   0.27016   0.27488   0.27641   0.29091
 Alpha virt. eigenvalues --    0.29830   0.31146   0.31763   0.31810   0.32319

 Mulliken charges:
               1
     1  C   -0.298275
     2  C   -0.299811
     3  C   -0.479300
     4  H    0.149231
     5  H    0.149681
     6  H    0.151424
     7  H    0.151846
     8  H    0.155064
     9  H    0.159729
    10  H    0.160581
    11  C   -0.298244
    12  C   -0.299642
    13  C   -0.475697
    14  H    0.149350
    15  H    0.149712
    16  H    0.151853
    17  H    0.151991
    18  H    0.155205
    19  H    0.155116
    20  H    0.160257
    21  C   -0.298231
    22  C   -0.299671
    23  C   -0.479020
    24  H    0.149726
    25  H    0.148868
    26  H    0.151763
    27  H    0.151671
    28  H    0.159388
    29  H    0.154950
    30  H    0.160512
    31  C   -0.298249
    32  C   -0.299631
    33  C   -0.475701
    34  H    0.149621
    35  H    0.149574
    36  H    0.151980
    37  H    0.151757
    38  H    0.155148
    39  H    0.155230
    40  H    0.160244
 Sum of Mulliken charges =  -0.00000

 Dipole moment (field-independent basis, Debye):
    X=              0.0017    Y=             -0.0158    Z=             -0.0078  Tot=              0.0177
 Quadrupole moment (field-independent basis, Debye-Ang):
   XX=            -85.0985   YY=            -85.0741   ZZ=            -84.6316
   XY=             -0.1738   XZ=              0.2067   YZ=             -0.0110

 Normal termination of Gaussian 16 at Wed May  5 22:57:30 2021.
