 Gaussian 16, Revision A.03,
 Gaussian 16:  EM64L-G16RevA.03 25-Dec-2016

 -------------
 #p 6-31g* mp2
 -------------

 ------------------------------------------------------
 Input file generated by CHIRIPA (05-May-2021 14:51:08)
 ------------------------------------------------------
 Symbolic Z-matrix:
 Charge =  0 Multiplicity = 1

                         Standard orientation:
 ---------------------------------------------------------------------
 Center     Atomic      Atomic             Coordinates (Angstroms)
 Number     Number       Type             X           Y           Z
 ---------------------------------------------------------------------
      1          6           0        2.422245    0.027645    0.523937
      2          6           0        1.902496   -0.828705    1.679148
      3          6           0        0.448127   -0.520091    2.036029
      4          1           0        2.325909    1.089067    0.790484
      5          1           0        1.785610   -0.132372   -0.357247
      6          1           0        2.540750   -0.668170    2.557485
      7          1           0        2.000258   -1.888215    1.409897
      8          1           0       -0.205691   -0.698326    1.176171
      9          1           0        0.337872    0.528651    2.330280
     10          1           0        0.096996   -1.143534    2.864211
     11          6           0        3.874765   -0.269271    0.155491
     12          6           0        4.394515    0.587078   -0.999720
     13          6           0        5.848883    0.278465   -1.356601
     14          1           0        4.511400   -0.109255    1.036675
     15          1           0        3.971102   -1.330693   -0.111056
     16          1           0        4.296752    1.646589   -0.730469
     17          1           0        3.756260    0.426543   -1.878057
     18          1           0        5.959138   -0.770278   -1.650852
     19          1           0        6.502701    0.456700   -0.496744
     20          1           0        6.200014    0.901908   -2.184784
     21          6           0       -2.881053    0.737084    0.023757
     22          6           0       -3.460096    2.050579   -0.502955
     23          6           0       -2.915451    3.274430    0.234165
     24          1           0       -3.103006    0.649815    1.096168
     25          1           0       -1.786385    0.764239   -0.067678
     26          1           0       -4.553441    2.020400   -0.411833
     27          1           0       -3.236904    2.134643   -1.574279
     28          1           0       -1.826888    3.332337    0.132781
     29          1           0       -3.150904    3.217446    1.301833
     30          1           0       -3.342587    4.202504   -0.158382
     31          6           0       -3.415958   -0.495458   -0.703185
     32          6           0       -2.836914   -1.808953   -0.176473
     33          6           0       -3.381560   -3.032804   -0.913592
     34          1           0       -4.510625   -0.522612   -0.611750
     35          1           0       -3.194004   -0.408187   -1.775596
     36          1           0       -3.060106   -1.893016    0.894850
     37          1           0       -1.743570   -1.778773   -0.267595
     38          1           0       -3.146106   -2.975820   -1.981260
     39          1           0       -4.470122   -3.090711   -0.812210
     40          1           0       -2.954423   -3.960878   -0.521046
 ---------------------------------------------------------------------

 SCF Done:  E(RHF) =  -470.732563877     A.U. after   11 cycles
 E2 =    -0.1583563788D+01 EUMP2 =    -0.47231612766539D+03

 The electronic state is 1-A.
 Alpha  occ. eigenvalues --  -11.21615 -11.21610 -11.21569 -11.21565 -11.21418
 Alpha  occ. eigenvalues --  -11.21382 -11.21358 -11.21299 -11.21084 -11.21081
 Alpha  occ. eigenvalues --  -11.21043 -11.20929  -1.08447  -1.08403  -1.03531
 Alpha  occ. eigenvalues --   -1.03503  -0.95986  -0.95942  -0.86986  -0.86978
 Alpha  occ. eigenvalues --   -0.79631  -0.79562  -0.78334  -0.78130  -0.65137
 Alpha  occ. eigenvalues --   -0.64991  -0.60992  -0.60850  -0.59342  -0.59325
 Alpha  occ. eigenvalues --   -0.57658  -0.57502  -0.55282  -0.55236  -0.52714
 Alpha  occ. eigenvalues --   -0.52634  -0.52436  -0.52328  -0.49964  -0.49896
 Alpha  occ. eigenvalues --   -0.47974  -0.47899  -0.46756  -0.46568  -0.45969
 Alpha  occ. eigenvalues --   -0.45743  -0.45713  -0.45222  -0.43775  -0.43763
 Alpha virt. eigenvalues --    0.21410   0.23195   0.23901   0.24272   0.25800
 Alpha virt. eigenvalues --    0.26593   0.26956   0.27759   0.27889   0.29725
 Alpha virt. eigenvalues --    0.30549   0.31507   0.31790   0.31912   0.32087

 Mulliken charges:
               1
     1  C   -0.298197
     2  C   -0.299676
     3  C   -0.484110
     4  H    0.149630
     5  H    0.147888
     6  H    0.151678
     7  H    0.151421
     8  H    0.166287
     9  H    0.154845
    10  H    0.159448
    11  C   -0.298174
    12  C   -0.299651
    13  C   -0.475710
    14  H    0.149779
    15  H    0.149663
    16  H    0.151947
    17  H    0.151681
    18  H    0.155196
    19  H    0.155266
    20  H    0.160258
    21  C   -0.301424
    22  C   -0.299416
    23  C   -0.475667
    24  H    0.150543
    25  H    0.153247
    26  H    0.151690
    27  H    0.151589
    28  H    0.155291
    29  H    0.155185
    30  H    0.160045
    31  C   -0.298479
    32  C   -0.302845
    33  C   -0.475218
    34  H    0.149520
    35  H    0.149052
    36  H    0.153133
    37  H    0.153766
    38  H    0.154923
    39  H    0.155348
    40  H    0.160248
 Sum of Mulliken charges =  -0.00000

 Dipole moment (field-independent basis, Debye):
    X=             -0.0229    Y=             -0.0052    Z=              0.0082  Tot=              0.0248
 Quadrupole moment (field-independent basis, Debye-Ang):
   XX=            -85.3044   YY=            -85.2840   ZZ=            -84.2629
   XY=              0.1405   XZ=             -0.1269   YZ=             -0.0273

 Normal termination of Gaussian 16 at Wed May  5 18:07:57 2021.
