 Gaussian 16, Revision A.03,
 Gaussian 16:  EM64L-G16RevA.03 25-Dec-2016

 -------------
 #p 6-31g* mp2
 -------------

 ------------------------------------------------------
 Input file generated by CHIRIPA (05-May-2021 14:51:12)
 ------------------------------------------------------
 Symbolic Z-matrix:
 Charge =  0 Multiplicity = 1

                         Standard orientation:
 ---------------------------------------------------------------------
 Center     Atomic      Atomic             Coordinates (Angstroms)
 Number     Number       Type             X           Y           Z
 ---------------------------------------------------------------------
      1          6           0        2.414860   -0.727154   -0.149659
      2          6           0        2.005700   -2.161428    0.187137
      3          6           0        0.523658   -2.430509   -0.075428
      4          1           0        1.804044   -0.030216    0.440364
      5          1           0        2.186231   -0.526374   -1.205505
      6          1           0        2.236307   -2.359890    1.241675
      7          1           0        2.617693   -2.855036   -0.403614
      8          1           0        0.281984   -2.259874   -1.129504
      9          1           0       -0.101569   -1.761914    0.525132
     10          1           0        0.252836   -3.461644    0.172112
     11          6           0        3.893610   -0.442765    0.107536
     12          6           0        4.302771    0.991509   -0.229260
     13          6           0        5.784813    1.260591    0.033305
     14          1           0        4.122240   -0.643545    1.163382
     15          1           0        4.504427   -1.139702   -0.482486
     16          1           0        3.690777    1.685118    0.361491
     17          1           0        4.072163    1.189971   -1.283797
     18          1           0        6.410040    0.591995   -0.567255
     19          1           0        6.026487    1.089955    1.087382
     20          1           0        6.055635    2.291726   -0.214235
     21          6           0       -3.219377    1.299950   -0.239663
     22          6           0       -2.276080    2.285492    0.450903
     23          6           0       -2.418169    3.711720   -0.081524
     24          1           0       -3.023254    1.310582   -1.320574
     25          1           0       -4.255601    1.640447   -0.106643
     26          1           0       -1.242033    1.942495    0.317801
     27          1           0       -2.474342    2.272372    1.530319
     28          1           0       -3.439388    4.077883    0.065570
     29          1           0       -2.200078    3.746132   -1.153836
     30          1           0       -1.734712    4.399639    0.425934
     31          6           0       -3.089094   -0.130031    0.281786
     32          6           0       -4.032391   -1.115573   -0.408781
     33          6           0       -3.890302   -2.541802    0.123647
     34          1           0       -2.052869   -0.470529    0.148766
     35          1           0       -3.285217   -0.140663    1.362696
     36          1           0       -3.834130   -1.102453   -1.488195
     37          1           0       -5.066438   -0.772576   -0.275679
     38          1           0       -4.108392   -2.576214    1.195958
     39          1           0       -2.869083   -2.907965   -0.023448
     40          1           0       -4.573759   -3.229720   -0.383810
 ---------------------------------------------------------------------

 SCF Done:  E(RHF) =  -470.733237705     A.U. after   11 cycles
 E2 =    -0.1583123759D+01 EUMP2 =    -0.47231636146362D+03

 The electronic state is 1-A.
 Alpha  occ. eigenvalues --  -11.21661 -11.21631 -11.21583 -11.21529 -11.21457
 Alpha  occ. eigenvalues --  -11.21394 -11.21345 -11.21268 -11.21138 -11.21093
 Alpha  occ. eigenvalues --  -11.21054 -11.20969  -1.08480  -1.08375  -1.03583
 Alpha  occ. eigenvalues --   -1.03473  -0.96034  -0.95923  -0.87056  -0.86940
 Alpha  occ. eigenvalues --   -0.79676  -0.79519  -0.78321  -0.78163  -0.65130
 Alpha  occ. eigenvalues --   -0.64993  -0.60991  -0.60862  -0.59402  -0.59296
 Alpha  occ. eigenvalues --   -0.57668  -0.57516  -0.55355  -0.55182  -0.52734
 Alpha  occ. eigenvalues --   -0.52626  -0.52510  -0.52305  -0.50024  -0.49830
 Alpha  occ. eigenvalues --   -0.48051  -0.47816  -0.46739  -0.46544  -0.45993
 Alpha  occ. eigenvalues --   -0.45768  -0.45709  -0.45341  -0.43830  -0.43729
 Alpha virt. eigenvalues --    0.21360   0.22951   0.23713   0.24279   0.25494
 Alpha virt. eigenvalues --    0.26671   0.27159   0.27236   0.28040   0.29500
 Alpha virt. eigenvalues --    0.30449   0.31144   0.31621   0.31866   0.32039

 Mulliken charges:
               1
     1  C   -0.298922
     2  C   -0.300139
     3  C   -0.482041
     4  H    0.149690
     5  H    0.149341
     6  H    0.152420
     7  H    0.152221
     8  H    0.154730
     9  H    0.161752
    10  H    0.161042
    11  C   -0.298287
    12  C   -0.299729
    13  C   -0.475746
    14  H    0.149773
    15  H    0.149836
    16  H    0.152084
    17  H    0.151902
    18  H    0.155216
    19  H    0.155280
    20  H    0.160387
    21  C   -0.297451
    22  C   -0.300119
    23  C   -0.475585
    24  H    0.149524
    25  H    0.149339
    26  H    0.151816
    27  H    0.151602
    28  H    0.155187
    29  H    0.155279
    30  H    0.160026
    31  C   -0.306877
    32  C   -0.298617
    33  C   -0.479525
    34  H    0.158501
    35  H    0.148600
    36  H    0.151532
    37  H    0.151465
    38  H    0.154454
    39  H    0.160398
    40  H    0.159640
 Sum of Mulliken charges =  -0.00000

 Dipole moment (field-independent basis, Debye):
    X=              0.0485    Y=             -0.0216    Z=              0.0010  Tot=              0.0531
 Quadrupole moment (field-independent basis, Debye-Ang):
   XX=            -85.4620   YY=            -85.9592   ZZ=            -83.4579
   XY=             -0.6020   XZ=             -0.8351   YZ=              0.6534

 Normal termination of Gaussian 16 at Wed May  5 21:30:42 2021.
