 Gaussian 16, Revision A.03,
 Gaussian 16:  EM64L-G16RevA.03 25-Dec-2016

 -------------
 #p 6-31g* mp2
 -------------

 ------------------------------------------------------
 Input file generated by CHIRIPA (05-May-2021 14:55:19)
 ------------------------------------------------------
 Symbolic Z-matrix:
 Charge =  0 Multiplicity = 1

                         Standard orientation:
 ---------------------------------------------------------------------
 Center     Atomic      Atomic             Coordinates (Angstroms)
 Number     Number       Type             X           Y           Z
 ---------------------------------------------------------------------
      1          6           0        4.441779    2.493686    0.069015
      2          6           0        5.364161    1.444957   -0.007809
      3          6           0        4.927387    0.118287   -0.068826
      4          6           0        3.554800   -0.124557   -0.050840
      5          6           0        2.611118    0.898667    0.025103
      6          6           0        3.070619    2.217680    0.085197
      7          1           0        4.789903    3.521301    0.116056
      8          1           0        6.429620    1.656334   -0.020549
      9          1           0        5.619677   -0.712707   -0.128830
     10          1           0        1.555317    0.656627    0.035987
     11          1           0        2.352002    3.030134    0.144805
     12          7           0        3.080377   -1.524990   -0.114947
     13          8           0        1.865807   -1.712485   -0.097568
     14          8           0        3.932078   -2.408637   -0.181359
     15          6           0       -5.234956    0.096956   -0.381180
     16          6           0       -6.360589    0.750390    0.421292
     17          6           0       -7.523217    1.211177   -0.458348
     18          1           0       -4.868011    0.809112   -1.132932
     19          1           0       -5.639520   -0.761478   -0.935086
     20          1           0       -5.953733    1.606503    0.974604
     21          1           0       -6.724768    0.036663    1.171348
     22          1           0       -7.956122    0.363751   -0.999700
     23          1           0       -7.180706    1.942510   -1.197563
     24          1           0       -8.316664    1.675330    0.135675
     25          6           0       -4.065501   -0.368961    0.484281
     26          6           0       -2.939868   -1.022394   -0.318191
     27          6           0       -1.777241   -1.483181    0.561449
     28          1           0       -3.660936    0.489473    1.038188
     29          1           0       -4.432446   -1.081117    1.236033
     30          1           0       -2.575689   -0.308668   -1.068247
     31          1           0       -3.346725   -1.878507   -0.871502
     32          1           0       -2.119751   -2.214515    1.300664
     33          1           0       -1.344335   -0.635755    1.102803
     34          1           0       -0.983793   -1.947335   -0.032573
 ---------------------------------------------------------------------

 SCF Done:  E(RHF) =  -669.535848578     A.U. after   15 cycles
 E2 =    -0.2090779454D+01 EUMP2 =    -0.67162662803140D+03

 The electronic state is 1-A.
 Alpha  occ. eigenvalues --  -20.60841 -20.60834 -15.85891 -11.31233 -11.27802
 Alpha  occ. eigenvalues --  -11.27794 -11.27546 -11.26816 -11.26807 -11.21422
 Alpha  occ. eigenvalues --  -11.21127 -11.21051 -11.20987 -11.20937 -11.20120
 Alpha  occ. eigenvalues --   -1.59911  -1.39466  -1.19406  -1.08806  -1.08087
 Alpha  occ. eigenvalues --   -1.04806  -1.03112  -0.95657  -0.95522  -0.86543
 Alpha  occ. eigenvalues --   -0.86205  -0.82479  -0.79187  -0.77897  -0.77521
 Alpha  occ. eigenvalues --   -0.72120  -0.71230  -0.70515  -0.65063  -0.64812
 Alpha  occ. eigenvalues --   -0.64730  -0.62154  -0.60529  -0.58904  -0.57127
 Alpha  occ. eigenvalues --   -0.55311  -0.54849  -0.53137  -0.52899  -0.52150
 Alpha  occ. eigenvalues --   -0.51957  -0.49516  -0.48867  -0.48852  -0.47486
 Alpha  occ. eigenvalues --   -0.46258  -0.45428  -0.45375  -0.44873  -0.43327
 Alpha  occ. eigenvalues --   -0.37388  -0.36409
 Alpha virt. eigenvalues --    0.05006   0.11244   0.16501   0.21053   0.23079
 Alpha virt. eigenvalues --    0.24275   0.26620   0.27178   0.27668   0.27821
 Alpha virt. eigenvalues --    0.29171   0.30920   0.31586   0.32108   0.32790

 Mulliken charges:
               1
     1  C   -0.170622
     2  C   -0.218653
     3  C   -0.170706
     4  C    0.157603
     5  C   -0.171779
     6  C   -0.218799
     7  H    0.225740
     8  H    0.223588
     9  H    0.275709
    10  H    0.277467
    11  H    0.223573
    12  N    0.494757
    13  O   -0.466549
    14  O   -0.459800
    15  C   -0.297605
    16  C   -0.299143
    17  C   -0.475419
    18  H    0.147608
    19  H    0.150014
    20  H    0.150217
    21  H    0.152196
    22  H    0.155515
    23  H    0.154162
    24  H    0.159405
    25  C   -0.297109
    26  C   -0.300086
    27  C   -0.481154
    28  H    0.145512
    29  H    0.149906
    30  H    0.147038
    31  H    0.152286
    32  H    0.153207
    33  H    0.145051
    34  H    0.186871
 Sum of Mulliken charges =  -0.00000

 Dipole moment (field-independent basis, Debye):
    X=              1.8592    Y=              4.8186    Z=              0.1967  Tot=              5.1686
 Quadrupole moment (field-independent basis, Debye-Ang):
   XX=            -79.6760   YY=            -95.1017   ZZ=            -96.0688
   XY=             16.8415   XZ=              0.0572   YZ=             -0.0830

 Normal termination of Gaussian 16 at Wed May  5 18:50:17 2021.
