 Gaussian 16, Revision A.03,
 Gaussian 16:  EM64L-G16RevA.03 25-Dec-2016

 -------------
 #p 6-31g* mp2
 -------------

 ------------------------------------------------------
 Input file generated by CHIRIPA (05-May-2021 14:57:22)
 ------------------------------------------------------
 Symbolic Z-matrix:
 Charge =  0 Multiplicity = 1

                         Standard orientation:
 ---------------------------------------------------------------------
 Center     Atomic      Atomic             Coordinates (Angstroms)
 Number     Number       Type             X           Y           Z
 ---------------------------------------------------------------------
      1          6           0       -4.786801   -1.940274    0.934472
      2          6           0       -4.373661   -1.990760   -0.400926
      3          6           0       -3.676949   -0.920333   -0.969545
      4          6           0       -3.409098    0.189934   -0.170262
      5          6           0       -3.807443    0.270125    1.163222
      6          6           0       -4.502874   -0.811982    1.710915
      7          1           0       -5.327526   -2.776344    1.368062
      8          1           0       -4.592772   -2.865722   -1.006298
      9          1           0       -3.345395   -0.933042   -2.000724
     10          1           0       -3.574373    1.155857    1.741647
     11          1           0       -4.822496   -0.770010    2.748280
     12          7           0       -2.672198    1.329329   -0.761158
     13          8           0       -2.448588    2.296056   -0.035848
     14          8           0       -2.332179    1.234085   -1.938423
     15          6           0        1.636803    1.656058    0.246119
     16          6           0        1.456915    0.458684   -0.454207
     17          6           0        2.499221   -0.467409   -0.556662
     18          6           0        3.713628   -0.162457    0.056127
     19          6           0        3.923773    1.021850    0.760788
     20          6           0        2.867489    1.933330    0.850317
     21          1           0        0.821686    2.369794    0.320688
     22          1           0        0.502235    0.240697   -0.924434
     23          1           0        2.387238   -1.402023   -1.092735
     24          1           0        4.886901    1.211182    1.218996
     25          1           0        3.010053    2.862426    1.394838
     26          7           0        4.824469   -1.135135   -0.045495
     27          8           0        5.884691   -0.842858    0.503270
     28          8           0        4.613892   -2.171379   -0.671986
 ---------------------------------------------------------------------

 SCF Done:  E(RHF) =  -868.340574297     A.U. after   16 cycles
 E2 =    -0.2598872370D+01 EUMP2 =    -0.87093944666708D+03

 The electronic state is 1-A.
 Alpha  occ. eigenvalues --  -20.62100 -20.62085 -20.60280 -20.60274 -15.87089
 Alpha  occ. eigenvalues --  -15.85328 -11.32089 -11.30513 -11.28609 -11.28605
 Alpha  occ. eigenvalues --  -11.28259 -11.27525 -11.27515 -11.27086 -11.27066
 Alpha  occ. eigenvalues --  -11.26585 -11.26004 -11.25925  -1.61159  -1.59360
 Alpha  occ. eigenvalues --   -1.40715  -1.38919  -1.20224  -1.18654  -1.09685
 Alpha  occ. eigenvalues --   -1.08044  -1.05563  -1.04039  -0.96577  -0.94915
 Alpha  occ. eigenvalues --   -0.86978  -0.85422  -0.83417  -0.81766  -0.78513
 Alpha  occ. eigenvalues --   -0.76875  -0.73302  -0.72482  -0.71547  -0.71312
 Alpha  occ. eigenvalues --   -0.70683  -0.69651  -0.65871  -0.65552  -0.64286
 Alpha  occ. eigenvalues --   -0.64008  -0.62913  -0.61397  -0.56063  -0.54399
 Alpha  occ. eigenvalues --   -0.53915  -0.53643  -0.52373  -0.52112  -0.50089
 Alpha  occ. eigenvalues --   -0.50037  -0.48316  -0.48289  -0.46169  -0.44366
 Alpha  occ. eigenvalues --   -0.38176  -0.37149  -0.36571  -0.35664
 Alpha virt. eigenvalues --    0.03944   0.05667   0.10504   0.12005   0.15494
 Alpha virt. eigenvalues --    0.17227   0.20692   0.22257   0.26649   0.27363
 Alpha virt. eigenvalues --    0.27968   0.29207   0.30457   0.31377   0.32328

 Mulliken charges:
               1
     1  C   -0.169103
     2  C   -0.218124
     3  C   -0.172244
     4  C    0.155467
     5  C   -0.170195
     6  C   -0.218159
     7  H    0.229403
     8  H    0.226953
     9  H    0.276191
    10  H    0.275612
    11  H    0.226517
    12  N    0.485862
    13  O   -0.462862
    14  O   -0.459666
    15  C   -0.175750
    16  C   -0.223118
    17  C   -0.172649
    18  C    0.157402
    19  C   -0.172033
    20  C   -0.219915
    21  H    0.242667
    22  H    0.227811
    23  H    0.272134
    24  H    0.272930
    25  H    0.222089
    26  N    0.488277
    27  O   -0.462438
    28  O   -0.463061
 Sum of Mulliken charges =  -0.00000

 Dipole moment (field-independent basis, Debye):
    X=             -7.0371    Y=             -0.5879    Z=              2.4819  Tot=              7.4851
 Quadrupole moment (field-independent basis, Debye-Ang):
   XX=           -115.5638   YY=           -105.0287   ZZ=           -100.8609
   XY=             29.4985   XZ=             -4.4391   YZ=              5.4748

 Normal termination of Gaussian 16 at Wed May  5 19:19:18 2021.
