 Gaussian 16, Revision A.03,
 Gaussian 16:  EM64L-G16RevA.03 25-Dec-2016

 -------------
 #p 6-31g* mp2
 -------------

 ------------------------------------------------------
 Input file generated by CHIRIPA (05-May-2021 14:55:24)
 ------------------------------------------------------
 Symbolic Z-matrix:
 Charge =  0 Multiplicity = 1

                         Standard orientation:
 ---------------------------------------------------------------------
 Center     Atomic      Atomic             Coordinates (Angstroms)
 Number     Number       Type             X           Y           Z
 ---------------------------------------------------------------------
      1          6           0       -3.044372    2.466812    0.923521
      2          6           0       -2.240024    1.513802    1.557016
      3          6           0       -2.068650    0.244231    0.997223
      4          6           0       -2.719341   -0.039739   -0.202465
      5          6           0       -3.527203    0.888350   -0.857676
      6          6           0       -3.684266    2.151600   -0.279682
      7          1           0       -3.171941    3.450591    1.365451
      8          1           0       -1.741858    1.755817    2.491524
      9          1           0       -1.451660   -0.512458    1.466439
     10          1           0       -4.010986    0.617778   -1.788355
     11          1           0       -4.309532    2.889740   -0.773887
     12          7           0       -2.545490   -1.380431   -0.804728
     13          8           0       -3.129569   -1.605856   -1.862401
     14          8           0       -1.828439   -2.180454   -0.207704
     15          6           0        3.175436   -0.914774    0.116529
     16          6           0        2.179703   -1.120404    1.258553
     17          6           0        1.503670   -2.491088    1.213805
     18          1           0        2.653866   -1.036819   -0.842645
     19          1           0        3.939666   -1.703139    0.159282
     20          1           0        1.418362   -0.331079    1.214487
     21          1           0        2.703663   -0.997668    2.215118
     22          1           0        2.248714   -3.290468    1.280899
     23          1           0        0.956111   -2.620092    0.274584
     24          1           0        0.795936   -2.616802    2.039135
     25          6           0        3.859429    0.450842    0.147677
     26          6           0        4.855161    0.656472   -0.994347
     27          6           0        5.531195    2.027156   -0.949600
     28          1           0        3.095198    1.239207    0.104924
     29          1           0        4.380999    0.572887    1.106851
     30          1           0        4.331202    0.533736   -1.950912
     31          1           0        5.616502   -0.132853   -0.950281
     32          1           0        6.078754    2.156160   -0.010377
     33          1           0        4.786151    2.826536   -1.016694
     34          1           0        6.238929    2.152869   -1.774929
 ---------------------------------------------------------------------

 SCF Done:  E(RHF) =  -669.535909175     A.U. after   15 cycles
 E2 =    -0.2091736478D+01 EUMP2 =    -0.67162764565386D+03

 The electronic state is 1-A.
 Alpha  occ. eigenvalues --  -20.60885 -20.60875 -15.85918 -11.31256 -11.27825
 Alpha  occ. eigenvalues --  -11.27807 -11.27562 -11.26837 -11.26825 -11.21499
 Alpha  occ. eigenvalues --  -11.21375 -11.21275 -11.21125 -11.21037 -11.20324
 Alpha  occ. eigenvalues --   -1.59951  -1.39505  -1.19428  -1.08830  -1.08239
 Alpha  occ. eigenvalues --   -1.04825  -1.03289  -0.95734  -0.95633  -0.86703
 Alpha  occ. eigenvalues --   -0.86223  -0.82501  -0.79360  -0.78062  -0.77551
 Alpha  occ. eigenvalues --   -0.72146  -0.71270  -0.70534  -0.65085  -0.64904
 Alpha  occ. eigenvalues --   -0.64792  -0.62183  -0.60663  -0.59101  -0.57335
 Alpha  occ. eigenvalues --   -0.55330  -0.54953  -0.53158  -0.52913  -0.52381
 Alpha  occ. eigenvalues --   -0.52117  -0.49631  -0.48900  -0.48870  -0.47673
 Alpha  occ. eigenvalues --   -0.46403  -0.45601  -0.45530  -0.44857  -0.43549
 Alpha  occ. eigenvalues --   -0.37408  -0.36423
 Alpha virt. eigenvalues --    0.04926   0.11188   0.16414   0.20607   0.23016
 Alpha virt. eigenvalues --    0.23922   0.26423   0.27129   0.27593   0.27866
 Alpha virt. eigenvalues --    0.29214   0.31070   0.31549   0.31991   0.32025

 Mulliken charges:
               1
     1  C   -0.170541
     2  C   -0.219728
     3  C   -0.173760
     4  C    0.157351
     5  C   -0.170693
     6  C   -0.218601
     7  H    0.225937
     8  H    0.224372
     9  H    0.281176
    10  H    0.275692
    11  H    0.223701
    12  N    0.489458
    13  O   -0.459596
    14  O   -0.461416
    15  C   -0.298212
    16  C   -0.301112
    17  C   -0.479915
    18  H    0.153309
    19  H    0.150462
    20  H    0.141866
    21  H    0.148135
    22  H    0.152136
    23  H    0.179095
    24  H    0.154856
    25  C   -0.297757
    26  C   -0.299648
    27  C   -0.475459
    28  H    0.146721
    29  H    0.148078
    30  H    0.153045
    31  H    0.152570
    32  H    0.154446
    33  H    0.153677
    34  H    0.160357
 Sum of Mulliken charges =  -0.00000

 Dipole moment (field-independent basis, Debye):
    X=             -0.7343    Y=              4.6248    Z=              2.0042  Tot=              5.0936
 Quadrupole moment (field-independent basis, Debye-Ang):
   XX=            -90.1609   YY=            -95.8891   ZZ=            -92.9564
   XY=            -14.9527   XZ=             -2.8172   YZ=             -2.0796

 Normal termination of Gaussian 16 at Thu May  6 15:59:54 2021.
