 Gaussian 16, Revision A.03,
 Gaussian 16:  EM64L-G16RevA.03 25-Dec-2016

 -------------
 #p 6-31g* mp2
 -------------

 ------------------------------------------------------
 Input file generated by CHIRIPA (05-May-2021 14:51:10)
 ------------------------------------------------------
 Symbolic Z-matrix:
 Charge =  0 Multiplicity = 1

                         Standard orientation:
 ---------------------------------------------------------------------
 Center     Atomic      Atomic             Coordinates (Angstroms)
 Number     Number       Type             X           Y           Z
 ---------------------------------------------------------------------
      1          6           0        1.637234    1.380286   -0.382680
      2          6           0        1.251436    2.775527    0.109710
      3          6           0        0.039819    3.348135   -0.626428
      4          1           0        1.847876    1.423848   -1.460028
      5          1           0        0.779155    0.705154   -0.259013
      6          1           0        2.110433    3.447495   -0.013568
      7          1           0        1.041874    2.728675    1.186048
      8          1           0       -0.833061    2.700846   -0.493393
      9          1           0        0.241570    3.423750   -1.699824
     10          1           0       -0.218625    4.346047   -0.258680
     11          6           0        2.846759    0.794481    0.343687
     12          6           0        3.232557   -0.600760   -0.148703
     13          6           0        4.444174   -1.173369    0.587434
     14          1           0        3.704837    1.469612    0.220019
     15          1           0        2.636117    0.750918    1.421034
     16          1           0        3.442119   -0.553909   -1.225042
     17          1           0        2.373559   -1.272729   -0.025426
     18          1           0        4.242422   -1.248983    1.660831
     19          1           0        5.317053   -0.526079    0.454399
     20          1           0        4.702617   -2.171280    0.219686
     21          6           0       -2.599268   -0.568474    0.451378
     22          6           0       -3.828792    0.039764   -0.224125
     23          6           0       -4.532795    1.076117    0.652314
     24          1           0       -2.902044   -1.033113    1.399736
     25          1           0       -1.895222    0.235233    0.707832
     26          1           0       -4.529695   -0.764994   -0.480476
     27          1           0       -3.523087    0.502841   -1.171078
     28          1           0       -3.853235    1.898708    0.897552
     29          1           0       -4.865563    0.623669    1.592078
     30          1           0       -5.408871    1.498081    0.150021
     31          6           0       -1.884724   -1.606292   -0.412385
     32          6           0       -0.655201   -2.214530    0.263119
     33          6           0        0.048802   -3.250884   -0.613320
     34          1           0       -2.588771   -2.410000   -0.668838
     35          1           0       -1.581948   -1.141654   -1.360742
     36          1           0       -0.960906   -2.677607    1.210072
     37          1           0        0.045703   -1.409772    0.519469
     38          1           0        0.381570   -2.798436   -1.553085
     39          1           0       -0.630758   -4.073475   -0.858558
     40          1           0        0.924878   -3.672847   -0.111027
 ---------------------------------------------------------------------

 SCF Done:  E(RHF) =  -470.732440293     A.U. after   11 cycles
 E2 =    -0.1585316981D+01 EUMP2 =    -0.47231775727390D+03

 The electronic state is 1-A.
 Alpha  occ. eigenvalues --  -11.21655 -11.21635 -11.21632 -11.21555 -11.21460
 Alpha  occ. eigenvalues --  -11.21438 -11.21397 -11.21375 -11.21144 -11.21101
 Alpha  occ. eigenvalues --  -11.21093 -11.21062  -1.08535  -1.08419  -1.03610
 Alpha  occ. eigenvalues --   -1.03524  -0.96032  -0.96003  -0.87057  -0.87007
 Alpha  occ. eigenvalues --   -0.79648  -0.79619  -0.78414  -0.78182  -0.65517
 Alpha  occ. eigenvalues --   -0.64756  -0.61202  -0.60774  -0.59450  -0.59305
 Alpha  occ. eigenvalues --   -0.57666  -0.57585  -0.55353  -0.55270  -0.52723
 Alpha  occ. eigenvalues --   -0.52689  -0.52455  -0.52424  -0.50033  -0.49884
 Alpha  occ. eigenvalues --   -0.47994  -0.47905  -0.46832  -0.46651  -0.46222
 Alpha  occ. eigenvalues --   -0.45827  -0.45765  -0.45084  -0.43829  -0.43808
 Alpha virt. eigenvalues --    0.19041   0.21612   0.23709   0.24758   0.26005
 Alpha virt. eigenvalues --    0.26471   0.27041   0.27545   0.27998   0.30216
 Alpha virt. eigenvalues --    0.31316   0.31591   0.31723   0.31885   0.31952

 Mulliken charges:
               1
     1  C   -0.307351
     2  C   -0.298940
     3  C   -0.478538
     4  H    0.149764
     5  H    0.156772
     6  H    0.152477
     7  H    0.151944
     8  H    0.156406
     9  H    0.155519
    10  H    0.160816
    11  C   -0.297669
    12  C   -0.309819
    13  C   -0.475330
    14  H    0.149823
    15  H    0.149327
    16  H    0.151497
    17  H    0.163696
    18  H    0.154962
    19  H    0.155080
    20  H    0.160216
    21  C   -0.302328
    22  C   -0.299900
    23  C   -0.476353
    24  H    0.150070
    25  H    0.151337
    26  H    0.152232
    27  H    0.152633
    28  H    0.155676
    29  H    0.155187
    30  H    0.160624
    31  C   -0.298180
    32  C   -0.308775
    33  C   -0.477194
    34  H    0.150115
    35  H    0.150632
    36  H    0.152369
    37  H    0.158149
    38  H    0.156695
    39  H    0.156024
    40  H    0.160335
 Sum of Mulliken charges =  -0.00000

 Dipole moment (field-independent basis, Debye):
    X=             -0.0141    Y=             -0.0179    Z=             -0.0127  Tot=              0.0261
 Quadrupole moment (field-independent basis, Debye-Ang):
   XX=            -85.1932   YY=            -84.9143   ZZ=            -84.5793
   XY=              1.6487   XZ=             -0.7329   YZ=             -0.7284

 Normal termination of Gaussian 16 at Thu May  6 00:37:40 2021.
