 Gaussian 16, Revision A.03,
 Gaussian 16:  EM64L-G16RevA.03 25-Dec-2016

 -------------
 #p 6-31g* mp2
 -------------

 ------------------------------------------------------
 Input file generated by CHIRIPA (05-May-2021 14:53:13)
 ------------------------------------------------------
 Symbolic Z-matrix:
 Charge =  0 Multiplicity = 1

                         Standard orientation:
 ---------------------------------------------------------------------
 Center     Atomic      Atomic             Coordinates (Angstroms)
 Number     Number       Type             X           Y           Z
 ---------------------------------------------------------------------
      1          6           0        5.376755    0.114383    0.353478
      2          6           0        5.814117   -1.346311    0.239148
      3          6           0        7.208929   -1.592566    0.815042
      4          1           0        6.106769    0.750754   -0.165228
      5          1           0        5.396194    0.414028    1.410469
      6          1           0        5.792529   -1.643520   -0.817174
      7          1           0        5.082875   -1.979297    0.758023
      8          1           0        7.240867   -1.323127    1.875694
      9          1           0        7.954552   -0.985442    0.291547
     10          1           0        7.501562   -2.643157    0.722929
     11          6           0        3.984431    0.376379   -0.217940
     12          6           0        3.547068    1.837073   -0.103610
     13          6           0        2.152257    2.083328   -0.679504
     14          1           0        3.964991    0.076734   -1.274931
     15          1           0        3.254416   -0.259992    0.300766
     16          1           0        4.278310    2.470059   -0.622484
     17          1           0        3.568657    2.134282    0.952713
     18          1           0        1.406633    1.476204   -0.156009
     19          1           0        2.120319    1.813889   -1.740156
     20          1           0        1.859624    3.133919   -0.587391
     21          6           0       -5.974332   -0.203188    0.944271
     22          6           0       -5.103052    0.858226    1.210339
     23          6           0       -3.816632    0.875076    0.663175
     24          6           0       -3.432654   -0.190594   -0.149351
     25          6           0       -4.277720   -1.262353   -0.433051
     26          6           0       -5.559615   -1.258231    0.124869
     27          1           0       -6.971896   -0.208132    1.373498
     28          1           0       -5.422424    1.678927    1.846339
     29          1           0       -3.121813    1.684217    0.852737
     30          1           0       -3.930884   -2.066333   -1.070812
     31          1           0       -6.234135   -2.083857   -0.083485
     32          7           0       -2.073174   -0.183857   -0.734303
     33          8           0       -1.758926   -1.134648   -1.446962
     34          8           0       -1.347604    0.772086   -0.469053
 ---------------------------------------------------------------------

 SCF Done:  E(RHF) =  -669.535875084     A.U. after   15 cycles
 E2 =    -0.2090697102D+01 EUMP2 =    -0.67162657218690D+03

 The electronic state is 1-A.
 Alpha  occ. eigenvalues --  -20.60905 -20.60900 -15.85943 -11.31278 -11.27843
 Alpha  occ. eigenvalues --  -11.27839 -11.27583 -11.26853 -11.26844 -11.20900
 Alpha  occ. eigenvalues --  -11.20562 -11.20508 -11.20409 -11.20295 -11.19363
 Alpha  occ. eigenvalues --   -1.59969  -1.39525  -1.19448  -1.08849  -1.07479
 Alpha  occ. eigenvalues --   -1.04846  -1.02518  -0.95690  -0.94937  -0.86246
 Alpha  occ. eigenvalues --   -0.85943  -0.82522  -0.78605  -0.77573  -0.77249
 Alpha  occ. eigenvalues --   -0.72162  -0.71287  -0.70556  -0.65103  -0.64849
 Alpha  occ. eigenvalues --   -0.64121  -0.62193  -0.59920  -0.58379  -0.56548
 Alpha  occ. eigenvalues --   -0.55350  -0.54219  -0.53177  -0.52938  -0.51646
 Alpha  occ. eigenvalues --   -0.51348  -0.49070  -0.48917  -0.48709  -0.46869
 Alpha  occ. eigenvalues --   -0.45654  -0.44945  -0.44773  -0.44684  -0.42787
 Alpha  occ. eigenvalues --   -0.37428  -0.36448
 Alpha virt. eigenvalues --    0.04949   0.11207   0.16439   0.21340   0.23755
 Alpha virt. eigenvalues --    0.25367   0.27259   0.27585   0.28182   0.28430
 Alpha virt. eigenvalues --    0.29147   0.30905   0.32348   0.32525   0.32673

 Mulliken charges:
               1
     1  C   -0.297507
     2  C   -0.298977
     3  C   -0.475152
     4  H    0.147498
     5  H    0.147003
     6  H    0.152003
     7  H    0.151811
     8  H    0.153733
     9  H    0.154075
    10  H    0.158403
    11  C   -0.297307
    12  C   -0.300185
    13  C   -0.478775
    14  H    0.150320
    15  H    0.152187
    16  H    0.146291
    17  H    0.146462
    18  H    0.177963
    19  H    0.154985
    20  H    0.151653
    21  C   -0.170647
    22  C   -0.218552
    23  C   -0.170937
    24  C    0.157631
    25  C   -0.170596
    26  C   -0.218599
    27  H    0.225916
    28  H    0.223774
    29  H    0.275901
    30  H    0.275842
    31  H    0.223745
    32  N    0.490984
    33  O   -0.459194
    34  O   -0.461747
 Sum of Mulliken charges =  -0.00000

 Dipole moment (field-independent basis, Debye):
    X=             -5.1458    Y=             -0.0967    Z=              2.0253  Tot=              5.5308
 Quadrupole moment (field-independent basis, Debye-Ang):
   XX=            -64.5093   YY=            -91.6383   ZZ=            -94.4050
   XY=              2.1331   XZ=             -6.9955   YZ=              1.9404

 Normal termination of Gaussian 16 at Thu May  6 12:04:22 2021.
