 Gaussian 16, Revision A.03,
 Gaussian 16:  EM64L-G16RevA.03 25-Dec-2016

 -------------
 #p 6-31g* mp2
 -------------

 ------------------------------------------------------
 Input file generated by CHIRIPA (05-May-2021 14:55:21)
 ------------------------------------------------------
 Symbolic Z-matrix:
 Charge =  0 Multiplicity = 1

                         Standard orientation:
 ---------------------------------------------------------------------
 Center     Atomic      Atomic             Coordinates (Angstroms)
 Number     Number       Type             X           Y           Z
 ---------------------------------------------------------------------
      1          6           0       -3.710759    2.496559   -0.143671
      2          6           0       -4.017738    1.818263    1.040474
      3          6           0       -3.696768    0.465522    1.187503
      4          6           0       -3.066259   -0.180844    0.125449
      5          6           0       -2.747402    0.467466   -1.066741
      6          6           0       -3.077687    1.820188   -1.191651
      7          1           0       -3.963714    3.547393   -0.249296
      8          1           0       -4.509368    2.340996    1.856007
      9          1           0       -3.922944   -0.083852    2.093291
     10          1           0       -2.257090   -0.080441   -1.862235
     11          1           0       -2.838080    2.344418   -2.112421
     12          7           0       -2.721532   -1.612920    0.269394
     13          8           0       -2.166247   -2.159725   -0.681027
     14          8           0       -3.013147   -2.161460    1.329914
     15          6           0        3.419265   -0.567626   -0.085143
     16          6           0        2.270439   -0.249679   -1.042793
     17          6           0        1.121069   -1.252856   -0.940909
     18          1           0        3.793712   -1.578953   -0.294786
     19          1           0        3.035458   -0.583592    0.944339
     20          1           0        2.656574   -0.232951   -2.070039
     21          1           0        1.898808    0.761083   -0.830973
     22          1           0        0.708553   -1.264391    0.073141
     23          1           0        1.470624   -2.264074   -1.172965
     24          1           0        0.310655   -1.006629   -1.634063
     25          6           0        4.575805    0.426365   -0.175272
     26          6           0        5.724631    0.108417    0.782378
     27          6           0        6.874001    1.111595    0.680495
     28          1           0        4.959612    0.442332   -1.204754
     29          1           0        4.201357    1.437693    0.034371
     30          1           0        6.096262   -0.902344    0.570559
     31          1           0        5.338496    0.091691    1.809625
     32          1           0        6.524445    2.122813    0.912551
     33          1           0        7.286517    1.123130   -0.333557
     34          1           0        7.684415    0.865367    1.373647
 ---------------------------------------------------------------------

 SCF Done:  E(RHF) =  -669.535330364     A.U. after   15 cycles
 E2 =    -0.2091863960D+01 EUMP2 =    -0.67162719432329D+03

 The electronic state is 1-A.
 Alpha  occ. eigenvalues --  -20.60834 -20.60798 -15.85844 -11.31222 -11.27794
 Alpha  occ. eigenvalues --  -11.27788 -11.27535 -11.26810 -11.26800 -11.21405
 Alpha  occ. eigenvalues --  -11.21184 -11.21156 -11.21020 -11.20937 -11.20315
 Alpha  occ. eigenvalues --   -1.59880  -1.39435  -1.19395  -1.08789  -1.08129
 Alpha  occ. eigenvalues --   -1.04800  -1.03185  -0.95667  -0.95563  -0.86611
 Alpha  occ. eigenvalues --   -0.86196  -0.82458  -0.79252  -0.77946  -0.77498
 Alpha  occ. eigenvalues --   -0.72075  -0.71197  -0.70507  -0.65051  -0.64809
 Alpha  occ. eigenvalues --   -0.64765  -0.62160  -0.60588  -0.58994  -0.57232
 Alpha  occ. eigenvalues --   -0.55303  -0.54894  -0.53126  -0.52913  -0.52273
 Alpha  occ. eigenvalues --   -0.52017  -0.49550  -0.48840  -0.48823  -0.47553
 Alpha  occ. eigenvalues --   -0.46316  -0.45488  -0.45427  -0.44804  -0.43354
 Alpha  occ. eigenvalues --   -0.37374  -0.36398
 Alpha virt. eigenvalues --    0.05006   0.11208   0.16494   0.21099   0.23111
 Alpha virt. eigenvalues --    0.24314   0.26559   0.26921   0.27706   0.27783
 Alpha virt. eigenvalues --    0.28835   0.30341   0.31495   0.31755   0.32107

 Mulliken charges:
               1
     1  C   -0.170720
     2  C   -0.218549
     3  C   -0.171097
     4  C    0.158122
     5  C   -0.170181
     6  C   -0.219104
     7  H    0.225715
     8  H    0.223531
     9  H    0.275630
    10  H    0.276541
    11  H    0.223711
    12  N    0.487957
    13  O   -0.457360
    14  O   -0.460376
    15  C   -0.297907
    16  C   -0.302369
    17  C   -0.468699
    18  H    0.150974
    19  H    0.149909
    20  H    0.148796
    21  H    0.145826
    22  H    0.154917
    23  H    0.159027
    24  H    0.159073
    25  C   -0.297578
    26  C   -0.299445
    27  C   -0.475450
    28  H    0.148546
    29  H    0.147386
    30  H    0.152581
    31  H    0.151939
    32  H    0.153989
    33  H    0.154729
    34  H    0.159936
 Sum of Mulliken charges =  -0.00000

 Dipole moment (field-independent basis, Debye):
    X=             -1.3516    Y=              4.9291    Z=             -0.4945  Tot=              5.1349
 Quadrupole moment (field-independent basis, Debye-Ang):
   XX=            -88.3399   YY=            -97.1102   ZZ=            -90.3104
   XY=            -16.5615   XZ=             -0.9808   YZ=              1.1941

 Normal termination of Gaussian 16 at Wed May  5 15:56:46 2021.
