 Gaussian 16, Revision A.03,
 Gaussian 16:  EM64L-G16RevA.03 25-Dec-2016

 -------------
 #p 6-31g* mp2
 -------------

 ------------------------------------------------------
 Input file generated by CHIRIPA (05-May-2021 14:55:21)
 ------------------------------------------------------
 Symbolic Z-matrix:
 Charge =  0 Multiplicity = 1

                         Standard orientation:
 ---------------------------------------------------------------------
 Center     Atomic      Atomic             Coordinates (Angstroms)
 Number     Number       Type             X           Y           Z
 ---------------------------------------------------------------------
      1          6           0        1.728287    2.126496    0.291384
      2          6           0        2.882853    1.890460    1.044898
      3          6           0        3.609147    0.707383    0.879444
      4          6           0        3.150219   -0.222139   -0.052577
      5          6           0        2.003707   -0.015964   -0.818274
      6          6           0        1.293166    1.174210   -0.636162
      7          1           0        1.170202    3.048295    0.426383
      8          1           0        3.223123    2.628236    1.765972
      9          1           0        4.506336    0.499068    1.449597
     10          1           0        1.689269   -0.770190   -1.529393
     11          1           0        0.396867    1.354838   -1.222734
     12          7           0        3.910776   -1.478366   -0.236554
     13          8           0        3.485556   -2.281425   -1.064153
     14          8           0        4.917719   -1.636150    0.450328
     15          6           0       -3.926959    0.716396   -0.278895
     16          6           0       -2.732340    1.615932    0.040020
     17          6           0       -2.857243    3.007138   -0.581865
     18          1           0       -4.028016    0.624583   -1.368988
     19          1           0       -4.846488    1.198600    0.080746
     20          1           0       -1.815189    1.131538   -0.318883
     21          1           0       -2.634001    1.705460    1.129483
     22          1           0       -3.755861    3.513746   -0.215212
     23          1           0       -2.932398    2.936562   -1.671806
     24          1           0       -1.992606    3.633538   -0.341270
     25          6           0       -3.816709   -0.677747    0.335870
     26          6           0       -5.011327   -1.577282    0.016955
     27          6           0       -4.886425   -2.968488    0.638840
     28          1           0       -2.897179   -1.159950   -0.023771
     29          1           0       -3.715652   -0.585934    1.425963
     30          1           0       -5.109668   -1.666810   -1.072508
     31          1           0       -5.928480   -1.092887    0.375857
     32          1           0       -4.811270   -2.897913    1.728781
     33          1           0       -3.987806   -3.475095    0.272187
     34          1           0       -5.751061   -3.594888    0.398245
 ---------------------------------------------------------------------

 SCF Done:  E(RHF) =  -669.535359198     A.U. after   15 cycles
 E2 =    -0.2091483081D+01 EUMP2 =    -0.67162684227823D+03

 The electronic state is 1-A.
 Alpha  occ. eigenvalues --  -20.60761 -20.60756 -15.85815 -11.31182 -11.27755
 Alpha  occ. eigenvalues --  -11.27751 -11.27493 -11.26764 -11.26740 -11.22501
 Alpha  occ. eigenvalues --  -11.22091 -11.22043 -11.21959 -11.21849 -11.21304
 Alpha  occ. eigenvalues --   -1.59836  -1.39390  -1.19355  -1.09044  -1.08746
 Alpha  occ. eigenvalues --   -1.04763  -1.04156  -0.96595  -0.95582  -0.87608
 Alpha  occ. eigenvalues --   -0.86160  -0.82418  -0.80239  -0.78811  -0.77463
 Alpha  occ. eigenvalues --   -0.72033  -0.71159  -0.70460  -0.65723  -0.65007
 Alpha  occ. eigenvalues --   -0.64760  -0.62168  -0.61500  -0.60001  -0.58193
 Alpha  occ. eigenvalues --   -0.55871  -0.55257  -0.53312  -0.53093  -0.53010
 Alpha  occ. eigenvalues --   -0.52858  -0.50523  -0.48804  -0.48788  -0.48523
 Alpha  occ. eigenvalues --   -0.47259  -0.46349  -0.46253  -0.44795  -0.44396
 Alpha  occ. eigenvalues --   -0.37323  -0.36351
 Alpha virt. eigenvalues --    0.05071   0.11190   0.16521   0.19389   0.22660
 Alpha virt. eigenvalues --    0.23925   0.25502   0.26174   0.26680   0.27824
 Alpha virt. eigenvalues --    0.28894   0.29813   0.31005   0.31684   0.32263

 Mulliken charges:
               1
     1  C   -0.171752
     2  C   -0.218693
     3  C   -0.170710
     4  C    0.158618
     5  C   -0.172148
     6  C   -0.218793
     7  H    0.226405
     8  H    0.223443
     9  H    0.275615
    10  H    0.275263
    11  H    0.226959
    12  N    0.488106
    13  O   -0.460561
    14  O   -0.460419
    15  C   -0.298386
    16  C   -0.304563
    17  C   -0.476661
    18  H    0.149979
    19  H    0.151814
    20  H    0.147083
    21  H    0.154947
    22  H    0.160938
    23  H    0.156509
    24  H    0.152068
    25  C   -0.298621
    26  C   -0.300220
    27  C   -0.476253
    28  H    0.149672
    29  H    0.151106
    30  H    0.152362
    31  H    0.152396
    32  H    0.155864
    33  H    0.157016
    34  H    0.161620
 Sum of Mulliken charges =  -0.00000

 Dipole moment (field-independent basis, Debye):
    X=             -2.8270    Y=              4.3791    Z=              0.6962  Tot=              5.2586
 Quadrupole moment (field-independent basis, Debye-Ang):
   XX=           -109.0436   YY=            -97.8631   ZZ=            -92.2893
   XY=             15.6203   XZ=              4.4150   YZ=              1.5794

 Normal termination of Gaussian 16 at Thu May  6 07:47:14 2021.
