 Gaussian 16, Revision A.03,
 Gaussian 16:  EM64L-G16RevA.03 25-Dec-2016

 -------------
 #p 6-31g* mp2
 -------------

 ------------------------------------------------------
 Input file generated by CHIRIPA (05-May-2021 14:51:11)
 ------------------------------------------------------
 Symbolic Z-matrix:
 Charge =  0 Multiplicity = 1

                         Standard orientation:
 ---------------------------------------------------------------------
 Center     Atomic      Atomic             Coordinates (Angstroms)
 Number     Number       Type             X           Y           Z
 ---------------------------------------------------------------------
      1          6           0        2.077133   -0.968321    0.206465
      2          6           0        1.549508   -2.330672   -0.244751
      3          6           0        0.093377   -2.563953    0.159053
      4          1           0        1.980400   -0.887910    1.297850
      5          1           0        1.445608   -0.177964   -0.222379
      6          1           0        2.182670   -3.118172    0.183693
      7          1           0        1.647685   -2.407925   -1.335168
      8          1           0       -0.555480   -1.799457   -0.280415
      9          1           0       -0.017455   -2.513739    1.247076
     10          1           0       -0.263412   -3.543751   -0.173448
     11          6           0        3.531499   -0.720379   -0.189861
     12          6           0        4.059124    0.641972    0.261355
     13          6           0        5.515255    0.875253   -0.142449
     14          1           0        4.163024   -1.510735    0.238983
     15          1           0        3.628232   -0.800790   -1.281246
     16          1           0        3.960947    0.719225    1.351772
     17          1           0        3.425961    1.429472   -0.167089
     18          1           0        5.626087    0.825039   -1.230472
     19          1           0        6.164112    0.110757    0.297019
     20          1           0        5.872044    1.855051    0.190052
     21          6           0       -3.504891    0.562686   -0.123589
     22          6           0       -3.606856   -0.938785    0.146915
     23          6           0       -5.014486   -1.487543   -0.088102
     24          1           0       -4.219324    1.094088    0.519951
     25          1           0       -3.809142    0.762906   -1.160285
     26          1           0       -3.301181   -1.136279    1.182373
     27          1           0       -2.891962   -1.466659   -0.497206
     28          1           0       -5.325435   -1.319523   -1.124288
     29          1           0       -5.736979   -0.987265    0.564835
     30          1           0       -5.064736   -2.562554    0.111114
     31          6           0       -2.103740    1.126014    0.106984
     32          6           0       -2.001776    2.627486   -0.163519
     33          6           0       -0.594145    3.176244    0.071498
     34          1           0       -1.799490    0.925793    1.143680
     35          1           0       -1.389308    0.594611   -0.536555
     36          1           0       -2.716670    3.155359    0.480602
     37          1           0       -2.307452    2.824978   -1.198978
     38          1           0        0.128347    2.675965   -0.581439
     39          1           0       -0.283196    3.008223    1.107684
     40          1           0       -0.543896    4.251254   -0.127718
 ---------------------------------------------------------------------

 SCF Done:  E(RHF) =  -470.732648310     A.U. after   11 cycles
 E2 =    -0.1584101381D+01 EUMP2 =    -0.47231674969141D+03

 The electronic state is 1-A.
 Alpha  occ. eigenvalues --  -11.21623 -11.21565 -11.21550 -11.21531 -11.21411
 Alpha  occ. eigenvalues --  -11.21366 -11.21347 -11.21305 -11.21099 -11.21044
 Alpha  occ. eigenvalues --  -11.21031 -11.20956  -1.08447  -1.08377  -1.03529
 Alpha  occ. eigenvalues --   -1.03478  -0.95979  -0.95933  -0.87008  -0.86940
 Alpha  occ. eigenvalues --   -0.79646  -0.79513  -0.78362  -0.78074  -0.65168
 Alpha  occ. eigenvalues --   -0.64938  -0.60969  -0.60848  -0.59359  -0.59298
 Alpha  occ. eigenvalues --   -0.57617  -0.57509  -0.55286  -0.55218  -0.52705
 Alpha  occ. eigenvalues --   -0.52624  -0.52411  -0.52329  -0.49961  -0.49881
 Alpha  occ. eigenvalues --   -0.48009  -0.47816  -0.46763  -0.46607  -0.46052
 Alpha  occ. eigenvalues --   -0.45763  -0.45654  -0.45080  -0.43777  -0.43737
 Alpha virt. eigenvalues --    0.20613   0.22789   0.23784   0.23955   0.25240
 Alpha virt. eigenvalues --    0.26481   0.26660   0.27356   0.28886   0.29746
 Alpha virt. eigenvalues --    0.31001   0.31268   0.31602   0.31818   0.31960

 Mulliken charges:
               1
     1  C   -0.301070
     2  C   -0.299728
     3  C   -0.481853
     4  H    0.149582
     5  H    0.152250
     6  H    0.151574
     7  H    0.150981
     8  H    0.163701
     9  H    0.154831
    10  H    0.159086
    11  C   -0.298236
    12  C   -0.299923
    13  C   -0.475683
    14  H    0.149511
    15  H    0.149221
    16  H    0.151939
    17  H    0.152518
    18  H    0.155002
    19  H    0.155075
    20  H    0.160289
    21  C   -0.298561
    22  C   -0.303274
    23  C   -0.475387
    24  H    0.149635
    25  H    0.148941
    26  H    0.152625
    27  H    0.156813
    28  H    0.154727
    29  H    0.154830
    30  H    0.160415
    31  C   -0.302116
    32  C   -0.299648
    33  C   -0.476642
    34  H    0.150685
    35  H    0.152300
    36  H    0.152279
    37  H    0.151696
    38  H    0.155138
    39  H    0.156112
    40  H    0.160363
 Sum of Mulliken charges =  -0.00000

 Dipole moment (field-independent basis, Debye):
    X=             -0.0293    Y=              0.0153    Z=              0.0202  Tot=              0.0387
 Quadrupole moment (field-independent basis, Debye-Ang):
   XX=            -86.7912   YY=            -85.0501   ZZ=            -83.0767
   XY=             -0.9719   XZ=              0.1472   YZ=             -0.1653

 Normal termination of Gaussian 16 at Wed May  5 16:44:52 2021.
