 Gaussian 16, Revision A.03,
 Gaussian 16:  EM64L-G16RevA.03 25-Dec-2016

 -------------
 #p 6-31g* mp2
 -------------

 ------------------------------------------------------
 Input file generated by CHIRIPA (05-May-2021 14:51:12)
 ------------------------------------------------------
 Symbolic Z-matrix:
 Charge =  0 Multiplicity = 1

                         Standard orientation:
 ---------------------------------------------------------------------
 Center     Atomic      Atomic             Coordinates (Angstroms)
 Number     Number       Type             X           Y           Z
 ---------------------------------------------------------------------
      1          6           0       -3.508388    0.289945   -0.172799
      2          6           0       -3.446739    1.814256   -0.276043
      3          6           0       -2.018156    2.339680   -0.420527
      4          1           0       -2.907060   -0.037636    0.686294
      5          1           0       -3.043402   -0.150187   -1.065809
      6          1           0       -3.912942    2.251387    0.616250
      7          1           0       -4.048439    2.138260   -1.134877
      8          1           0       -1.546550    1.931092   -1.320107
      9          1           0       -1.410283    2.044862    0.440969
     10          1           0       -1.997363    3.431570   -0.492674
     11          6           0       -4.929906   -0.250443   -0.027896
     12          6           0       -4.991555   -1.774755    0.075349
     13          6           0       -6.420138   -2.300179    0.219832
     14          1           0       -5.394892    0.189688    0.865114
     15          1           0       -5.531233    0.077137   -0.886989
     16          1           0       -4.389855   -2.098758    0.934182
     17          1           0       -4.525352   -2.211886   -0.816944
     18          1           0       -7.028010   -2.005361   -0.641663
     19          1           0       -6.891744   -1.891591    1.119412
     20          1           0       -6.440931   -3.392068    0.291980
     21          6           0        4.980034   -0.080349    0.071876
     22          6           0        5.464495   -1.499067   -0.228989
     23          6           0        6.988912   -1.604245   -0.282706
     24          1           0        5.369398    0.603529   -0.694708
     25          1           0        5.405234    0.249371    1.029940
     26          1           0        5.037397   -1.826532   -1.185530
     27          1           0        5.073774   -2.179678    0.538293
     28          1           0        7.429744   -1.303387    0.673200
     29          1           0        7.393160   -0.948235   -1.060418
     30          1           0        7.313401   -2.626869   -0.499050
     31          6           0        3.458260    0.040848    0.128819
     32          6           0        2.973798    1.459566    0.429683
     33          6           0        1.449382    1.564743    0.483400
     34          1           0        3.033059   -0.288871   -0.829245
     35          1           0        3.068895   -0.643031    0.895403
     36          1           0        3.364519    2.140178   -0.337598
     37          1           0        3.400897    1.787031    1.386224
     38          1           0        1.045135    0.908734    1.261113
     39          1           0        1.008551    1.263886   -0.472505
     40          1           0        1.124894    2.587368    0.699745
 ---------------------------------------------------------------------

 SCF Done:  E(RHF) =  -470.732608138     A.U. after   11 cycles
 E2 =    -0.1582674380D+01 EUMP2 =    -0.47231528251827D+03

 The electronic state is 1-A.
 Alpha  occ. eigenvalues --  -11.21584 -11.21573 -11.21533 -11.21508 -11.21375
 Alpha  occ. eigenvalues --  -11.21357 -11.21315 -11.21296 -11.21058 -11.21050
 Alpha  occ. eigenvalues --  -11.20975 -11.20899  -1.08400  -1.08372  -1.03521
 Alpha  occ. eigenvalues --   -1.03439  -0.96024  -0.95840  -0.87108  -0.86797
 Alpha  occ. eigenvalues --   -0.79699  -0.79400  -0.78235  -0.78159  -0.65031
 Alpha  occ. eigenvalues --   -0.65005  -0.60914  -0.60851  -0.59327  -0.59282
 Alpha  occ. eigenvalues --   -0.57611  -0.57480  -0.55281  -0.55170  -0.52889
 Alpha  occ. eigenvalues --   -0.52596  -0.52417  -0.52072  -0.49931  -0.49790
 Alpha  occ. eigenvalues --   -0.48015  -0.47689  -0.46624  -0.46524  -0.45821
 Alpha  occ. eigenvalues --   -0.45702  -0.45645  -0.45614  -0.43767  -0.43664
 Alpha virt. eigenvalues --    0.22540   0.22991   0.23667   0.24752   0.26186
 Alpha virt. eigenvalues --    0.26493   0.26933   0.27544   0.27705   0.29320
 Alpha virt. eigenvalues --    0.29813   0.31220   0.31476   0.32167   0.32346

 Mulliken charges:
               1
     1  C   -0.297986
     2  C   -0.300105
     3  C   -0.478924
     4  H    0.149528
     5  H    0.149101
     6  H    0.151305
     7  H    0.151118
     8  H    0.154020
     9  H    0.164559
    10  H    0.158606
    11  C   -0.298177
    12  C   -0.299572
    13  C   -0.475668
    14  H    0.149398
    15  H    0.149539
    16  H    0.151834
    17  H    0.151831
    18  H    0.155128
    19  H    0.155125
    20  H    0.160127
    21  C   -0.298224
    22  C   -0.299573
    23  C   -0.475678
    24  H    0.149588
    25  H    0.149447
    26  H    0.151856
    27  H    0.151865
    28  H    0.155145
    29  H    0.155150
    30  H    0.160177
    31  C   -0.298317
    32  C   -0.301117
    33  C   -0.476209
    34  H    0.149342
    35  H    0.149403
    36  H    0.151776
    37  H    0.151318
    38  H    0.153125
    39  H    0.158745
    40  H    0.161396
 Sum of Mulliken charges =  -0.00000

 Dipole moment (field-independent basis, Debye):
    X=              0.0122    Y=              0.0129    Z=              0.0051  Tot=              0.0185
 Quadrupole moment (field-independent basis, Debye-Ang):
   XX=            -87.2456   YY=            -85.1292   ZZ=            -82.7435
   XY=             -0.2206   XZ=              0.2285   YZ=             -0.0772

 Normal termination of Gaussian 16 at Thu May  6 00:44:56 2021.
