 Gaussian 16, Revision A.03,
 Gaussian 16:  EM64L-G16RevA.03 25-Dec-2016

 -------------
 #p 6-31g* mp2
 -------------

 ------------------------------------------------------
 Input file generated by CHIRIPA (05-May-2021 14:57:23)
 ------------------------------------------------------
 Symbolic Z-matrix:
 Charge =  0 Multiplicity = 1

                         Standard orientation:
 ---------------------------------------------------------------------
 Center     Atomic      Atomic             Coordinates (Angstroms)
 Number     Number       Type             X           Y           Z
 ---------------------------------------------------------------------
      1          6           0       -6.694745   -0.367380    0.599924
      2          6           0       -5.785346   -1.416574    0.769354
      3          6           0       -4.441515   -1.254888    0.419322
      4          6           0       -4.039620   -0.025085   -0.099673
      5          6           0       -4.921628    1.039199   -0.280374
      6          6           0       -6.260749    0.855003    0.076524
      7          1           0       -7.736836   -0.501725    0.874504
      8          1           0       -6.119572   -2.366995    1.175604
      9          1           0       -3.716269   -2.050422    0.539995
     10          1           0       -4.558724    1.975015   -0.687763
     11          1           0       -6.964775    1.671573   -0.056158
     12          7           0       -2.619460    0.158000   -0.473870
     13          8           0       -2.290491    1.251259   -0.929064
     14          8           0       -1.862197   -0.795224   -0.304887
     15          6           0        1.850898    0.716657   -0.204081
     16          6           0        2.305185   -0.488937   -0.748771
     17          6           0        3.645454   -0.865535   -0.620701
     18          6           0        4.507906   -0.008681    0.061404
     19          6           0        4.085545    1.198914    0.615132
     20          6           0        2.740959    1.555256    0.474936
     21          1           0        0.808068    1.001339   -0.308280
     22          1           0        1.616203   -1.142179   -1.276622
     23          1           0        4.023845   -1.793190   -1.032641
     24          1           0        4.796075    1.829303    1.135877
     25          1           0        2.390952    2.492131    0.898970
     26          7           0        5.929074   -0.396647    0.203406
     27          8           0        6.668870    0.375798    0.808936
     28          8           0        6.276279   -1.465833   -0.293512
 ---------------------------------------------------------------------

 SCF Done:  E(RHF) =  -868.342151251     A.U. after   16 cycles
 E2 =    -0.2598533651D+01 EUMP2 =    -0.87094068490242D+03

 The electronic state is 1-A.
 Alpha  occ. eigenvalues --  -20.62220 -20.62208 -20.59823 -20.59817 -15.87175
 Alpha  occ. eigenvalues --  -15.84868 -11.32124 -11.29944 -11.28635 -11.28628
 Alpha  occ. eigenvalues --  -11.28296 -11.27550 -11.27539 -11.26537 -11.26476
 Alpha  occ. eigenvalues --  -11.25868 -11.25398 -11.25251  -1.61248  -1.58906
 Alpha  occ. eigenvalues --   -1.40807  -1.38468  -1.20252  -1.18068  -1.09728
 Alpha  occ. eigenvalues --   -1.07451  -1.05586  -1.03443  -0.96632  -0.94343
 Alpha  occ. eigenvalues --   -0.87004  -0.84811  -0.83479  -0.81212  -0.78571
 Alpha  occ. eigenvalues --   -0.76351  -0.73403  -0.72521  -0.71350  -0.71090
 Alpha  occ. eigenvalues --   -0.70229  -0.69007  -0.65904  -0.65582  -0.63684
 Alpha  occ. eigenvalues --   -0.63401  -0.62935  -0.60809  -0.56107  -0.53945
 Alpha  occ. eigenvalues --   -0.53723  -0.53669  -0.51781  -0.51500  -0.50182
 Alpha  occ. eigenvalues --   -0.50127  -0.47863  -0.47815  -0.46297  -0.43940
 Alpha  occ. eigenvalues --   -0.38204  -0.37168  -0.35941  -0.35082
 Alpha virt. eigenvalues --    0.03919   0.06191   0.10494   0.12601   0.15511
 Alpha virt. eigenvalues --    0.17792   0.20678   0.23029   0.26628   0.27542
 Alpha virt. eigenvalues --    0.28643   0.29939   0.30438   0.31732   0.32819

 Mulliken charges:
               1
     1  C   -0.169152
     2  C   -0.218606
     3  C   -0.170079
     4  C    0.158295
     5  C   -0.170192
     6  C   -0.218614
     7  H    0.228919
     8  H    0.226531
     9  H    0.276512
    10  H    0.276119
    11  H    0.226232
    12  N    0.489599
    13  O   -0.464037
    14  O   -0.464455
    15  C   -0.177384
    16  C   -0.221346
    17  C   -0.173317
    18  C    0.156444
    19  C   -0.172562
    20  C   -0.221494
    21  H    0.250059
    22  H    0.230892
    23  H    0.271095
    24  H    0.270674
    25  H    0.219715
    26  N    0.488392
    27  O   -0.464367
    28  O   -0.463874
 Sum of Mulliken charges =  -0.00000

 Dipole moment (field-independent basis, Debye):
    X=            -10.9103    Y=              0.6783    Z=              0.7848  Tot=             10.9595
 Quadrupole moment (field-independent basis, Debye-Ang):
   XX=           -110.7346   YY=            -97.1920   ZZ=           -104.9478
   XY=              8.8917   XZ=             -7.0649   YZ=              0.8802

 Normal termination of Gaussian 16 at Fri May  7 00:18:13 2021.
