 Gaussian 16, Revision A.03,
 Gaussian 16:  EM64L-G16RevA.03 25-Dec-2016

 -------------
 #p 6-31g* mp2
 -------------

 ------------------------------------------------------
 Input file generated by CHIRIPA (05-May-2021 14:53:12)
 ------------------------------------------------------
 Symbolic Z-matrix:
 Charge =  0 Multiplicity = 1

                         Standard orientation:
 ---------------------------------------------------------------------
 Center     Atomic      Atomic             Coordinates (Angstroms)
 Number     Number       Type             X           Y           Z
 ---------------------------------------------------------------------
      1          6           0       -2.589103    1.002392   -0.333468
      2          6           0       -2.579841    2.503139   -0.040793
      3          6           0       -1.234366    3.158275   -0.354298
      4          1           0       -1.797413    0.516058    0.252750
      5          1           0       -2.339052    0.840612   -1.391152
      6          1           0       -2.831192    2.662112    1.015695
      7          1           0       -3.371771    2.985929   -0.627630
      8          1           0       -0.979969    3.029092   -1.411273
      9          1           0       -0.436319    2.703436    0.241389
     10          1           0       -1.250019    4.230996   -0.137770
     11          6           0       -3.927354    0.333275   -0.025093
     12          6           0       -3.936616   -1.167471   -0.317769
     13          6           0       -5.282092   -1.822607   -0.004263
     14          1           0       -4.177405    0.495055    1.032591
     15          1           0       -4.719045    0.819609   -0.611311
     16          1           0       -3.144687   -1.650261    0.269068
     17          1           0       -3.685266   -1.326444   -1.374257
     18          1           0       -6.080139   -1.367768   -0.599950
     19          1           0       -5.536488   -1.693425    1.052712
     20          1           0       -5.266439   -2.895328   -0.220791
     21          6           0        4.692289    0.714077   -0.339441
     22          6           0        4.338043   -0.398513   -1.109619
     23          6           0        3.150926   -1.090891   -0.852883
     24          6           0        2.337947   -0.641220    0.186419
     25          6           0        2.663424    0.463814    0.971440
     26          6           0        3.855325    1.140937    0.696803
     27          1           0        5.616328    1.246009   -0.545832
     28          1           0        4.986107   -0.732272   -1.915015
     29          1           0        2.852445   -1.955281   -1.433536
     30          1           0        1.997024    0.772762    1.767606
     31          1           0        4.127896    2.004669    1.296568
     32          7           0        1.078666   -1.366135    0.467690
     33          8           0        0.379635   -0.949914    1.388967
     34          8           0        0.814520   -2.336817   -0.238454
 ---------------------------------------------------------------------

 SCF Done:  E(RHF) =  -669.536728463     A.U. after   15 cycles
 E2 =    -0.2091694401D+01 EUMP2 =    -0.67162842286393D+03

 The electronic state is 1-A.
 Alpha  occ. eigenvalues --  -20.61027 -20.61022 -15.86034 -11.31318 -11.27878
 Alpha  occ. eigenvalues --  -11.27868 -11.27601 -11.26875 -11.26865 -11.20933
 Alpha  occ. eigenvalues --  -11.20699 -11.20399 -11.20343 -11.20268 -11.20095
 Alpha  occ. eigenvalues --   -1.60069  -1.39629  -1.19479  -1.08891  -1.07465
 Alpha  occ. eigenvalues --   -1.04870  -1.02674  -0.95740  -0.95152  -0.86274
 Alpha  occ. eigenvalues --   -0.86182  -0.82578  -0.78730  -0.77638  -0.77233
 Alpha  occ. eigenvalues --   -0.72261  -0.71370  -0.70590  -0.65138  -0.64874
 Alpha  occ. eigenvalues --   -0.64082  -0.62220  -0.60073  -0.58539  -0.56746
 Alpha  occ. eigenvalues --   -0.55377  -0.54452  -0.53198  -0.52963  -0.51893
 Alpha  occ. eigenvalues --   -0.51589  -0.49132  -0.49027  -0.49011  -0.47065
 Alpha  occ. eigenvalues --   -0.45798  -0.45220  -0.44792  -0.44367  -0.42888
 Alpha  occ. eigenvalues --   -0.37450  -0.36465
 Alpha virt. eigenvalues --    0.04842   0.11149   0.16329   0.21197   0.23742
 Alpha virt. eigenvalues --    0.24943   0.26846   0.27522   0.27965   0.28805
 Alpha virt. eigenvalues --    0.28926   0.30840   0.31628   0.32323   0.32772

 Mulliken charges:
               1
     1  C   -0.310218
     2  C   -0.297828
     3  C   -0.474816
     4  H    0.171670
     5  H    0.144586
     6  H    0.151148
     7  H    0.148987
     8  H    0.153329
     9  H    0.151073
    10  H    0.156410
    11  C   -0.296612
    12  C   -0.303163
    13  C   -0.475354
    14  H    0.148328
    15  H    0.144008
    16  H    0.169118
    17  H    0.149280
    18  H    0.150595
    19  H    0.153639
    20  H    0.159455
    21  C   -0.170437
    22  C   -0.218425
    23  C   -0.170683
    24  C    0.159049
    25  C   -0.170956
    26  C   -0.218171
    27  H    0.226175
    28  H    0.223934
    29  H    0.275871
    30  H    0.275641
    31  H    0.224169
    32  N    0.488598
    33  O   -0.460682
    34  O   -0.457718
 Sum of Mulliken charges =  -0.00000

 Dipole moment (field-independent basis, Debye):
    X=              4.7085    Y=              2.3453    Z=             -0.9161  Tot=              5.3395
 Quadrupole moment (field-independent basis, Debye-Ang):
   XX=            -75.9554   YY=            -97.2848   ZZ=            -91.9295
   XY=              2.2208   XZ=             -2.3013   YZ=              3.9092

 Normal termination of Gaussian 16 at Wed May  5 16:59:50 2021.
