 Gaussian 16, Revision A.03,
 Gaussian 16:  EM64L-G16RevA.03 25-Dec-2016

 -------------
 #p 6-31g* mp2
 -------------

 ------------------------------------------------------
 Input file generated by CHIRIPA (05-May-2021 14:53:14)
 ------------------------------------------------------
 Symbolic Z-matrix:
 Charge =  0 Multiplicity = 1

                         Standard orientation:
 ---------------------------------------------------------------------
 Center     Atomic      Atomic             Coordinates (Angstroms)
 Number     Number       Type             X           Y           Z
 ---------------------------------------------------------------------
      1          6           0       -3.488552    0.898930   -0.512194
      2          6           0       -3.298525    2.154695    0.339234
      3          6           0       -3.541789    3.443804   -0.446141
      4          1           0       -2.806405    0.940181   -1.372380
      5          1           0       -4.508139    0.892952   -0.921831
      6          1           0       -2.280047    2.157606    0.748269
      7          1           0       -3.981068    2.110359    1.197597
      8          1           0       -4.562515    3.467348   -0.841318
      9          1           0       -2.851829    3.514864   -1.293199
     10          1           0       -3.400543    4.329111    0.181665
     11          6           0       -3.248836   -0.397839    0.258943
     12          6           0       -3.438863   -1.653603   -0.592485
     13          6           0       -3.195599   -2.942712    0.192891
     14          1           0       -2.229249   -0.391860    0.668580
     15          1           0       -3.930983   -0.439089    1.119129
     16          1           0       -2.756320   -1.609268   -1.450847
     17          1           0       -4.457341   -1.656515   -1.001520
     18          1           0       -3.885558   -3.013772    1.039948
     19          1           0       -2.174873   -2.966257    0.588068
     20          1           0       -3.336845   -3.828020   -0.434915
     21          6           0        4.468281    1.504213   -0.222627
     22          6           0        3.444815    1.745417    0.699794
     23          6           0        2.422151    0.810562    0.886218
     24          6           0        2.454247   -0.360084    0.130012
     25          6           0        3.460241   -0.629239   -0.796714
     26          6           0        4.472720    0.319743   -0.966625
     27          1           0        5.258754    2.235918   -0.361032
     28          1           0        3.438809    2.664416    1.278975
     29          1           0        1.617721    0.971850    1.593534
     30          1           0        3.439259   -1.554570   -1.359508
     31          1           0        5.266288    0.129754   -1.683700
     32          7           0        1.376991   -1.357250    0.318631
     33          8           0        1.428036   -2.380799   -0.359881
     34          8           0        0.501988   -1.096398    1.141410
 ---------------------------------------------------------------------

 SCF Done:  E(RHF) =  -669.536797726     A.U. after   15 cycles
 E2 =    -0.2091656271D+01 EUMP2 =    -0.67162845399682D+03

 The electronic state is 1-A.
 Alpha  occ. eigenvalues --  -20.61131 -20.61122 -15.86130 -11.31393 -11.27946
 Alpha  occ. eigenvalues --  -11.27941 -11.27671 -11.26938 -11.26928 -11.21038
 Alpha  occ. eigenvalues --  -11.20701 -11.20548 -11.20307 -11.20027 -11.19488
 Alpha  occ. eigenvalues --   -1.60169  -1.39728  -1.19553  -1.08969  -1.07438
 Alpha  occ. eigenvalues --   -1.04939  -1.02545  -0.95820  -0.94986  -0.86342
 Alpha  occ. eigenvalues --   -0.86005  -0.82657  -0.78680  -0.77722  -0.77162
 Alpha  occ. eigenvalues --   -0.72350  -0.71474  -0.70660  -0.65210  -0.64941
 Alpha  occ. eigenvalues --   -0.64066  -0.62286  -0.59935  -0.58435  -0.56584
 Alpha  occ. eigenvalues --   -0.55445  -0.54259  -0.53274  -0.53029  -0.51732
 Alpha  occ. eigenvalues --   -0.51401  -0.49142  -0.49110  -0.48903  -0.46969
 Alpha  occ. eigenvalues --   -0.45723  -0.45296  -0.44738  -0.44350  -0.42783
 Alpha  occ. eigenvalues --   -0.37526  -0.36536
 Alpha virt. eigenvalues --    0.04769   0.11118   0.16250   0.21198   0.23724
 Alpha virt. eigenvalues --    0.25380   0.26957   0.27452   0.27982   0.28880
 Alpha virt. eigenvalues --    0.28996   0.30960   0.32256   0.32417   0.32536

 Mulliken charges:
               1
     1  C   -0.296887
     2  C   -0.297848
     3  C   -0.474952
     4  H    0.146341
     5  H    0.146295
     6  H    0.148830
     7  H    0.151352
     8  H    0.155036
     9  H    0.152816
    10  H    0.156488
    11  C   -0.310028
    12  C   -0.296200
    13  C   -0.481791
    14  H    0.173689
    15  H    0.144464
    16  H    0.150845
    17  H    0.144500
    18  H    0.148121
    19  H    0.178036
    20  H    0.154426
    21  C   -0.170358
    22  C   -0.218498
    23  C   -0.170777
    24  C    0.157861
    25  C   -0.170561
    26  C   -0.218580
    27  H    0.226440
    28  H    0.224345
    29  H    0.275865
    30  H    0.276085
    31  H    0.224203
    32  N    0.489882
    33  O   -0.457858
    34  O   -0.461583
 Sum of Mulliken charges =  -0.00000

 Dipole moment (field-independent basis, Debye):
    X=              4.2023    Y=              3.3978    Z=             -0.5871  Tot=              5.4359
 Quadrupole moment (field-independent basis, Debye-Ang):
   XX=            -75.9074   YY=            -97.4693   ZZ=            -93.2505
   XY=              6.2446   XZ=             -3.5144   YZ=              3.4721

 Normal termination of Gaussian 16 at Wed May  5 23:27:24 2021.
