 Gaussian 16, Revision A.03,
 Gaussian 16:  EM64L-G16RevA.03 25-Dec-2016

 -------------
 #p 6-31g* mp2
 -------------

 ------------------------------------------------------
 Input file generated by CHIRIPA (05-May-2021 14:53:13)
 ------------------------------------------------------
 Symbolic Z-matrix:
 Charge =  0 Multiplicity = 1

                         Standard orientation:
 ---------------------------------------------------------------------
 Center     Atomic      Atomic             Coordinates (Angstroms)
 Number     Number       Type             X           Y           Z
 ---------------------------------------------------------------------
      1          6           0       -3.947434   -0.471323    0.573507
      2          6           0       -2.495222   -0.422762    0.097370
      3          6           0       -1.501506   -0.820458    1.189231
      4          1           0       -4.065347    0.195012    1.438978
      5          1           0       -4.176369   -1.486243    0.926946
      6          1           0       -2.269505    0.591411   -0.256354
      7          1           0       -2.380796   -1.089144   -0.767187
      8          1           0       -1.698420   -1.839847    1.536611
      9          1           0       -1.586497   -0.149743    2.050346
     10          1           0       -0.469450   -0.778793    0.827311
     11          6           0       -4.952718   -0.076362   -0.506835
     12          6           0       -6.404930   -0.124922   -0.030698
     13          6           0       -7.398646    0.272774   -1.122559
     14          1           0       -4.723783    0.938559   -0.860274
     15          1           0       -4.834805   -0.742697   -1.372305
     16          1           0       -6.519356    0.541459    0.833859
     17          1           0       -6.630647   -1.139095    0.323027
     18          1           0       -7.313655   -0.397941   -1.983674
     19          1           0       -7.201732    1.292162   -1.469939
     20          1           0       -8.430702    0.231108   -0.760639
     21          6           0        1.986914    2.136166    0.646073
     22          6           0        1.805183    0.874864    1.222798
     23          6           0        2.624712   -0.197427    0.857950
     24          6           0        3.620641    0.028105   -0.091022
     25          6           0        3.826573    1.273004   -0.683567
     26          6           0        2.995253    2.330867   -0.303595
     27          1           0        1.345705    2.963544    0.935370
     28          1           0        1.022900    0.720738    1.960580
     29          1           0        2.505963   -1.184269    1.288602
     30          1           0        4.614872    1.395899   -1.416301
     31          1           0        3.138687    3.309323   -0.753146
     32          7           0        4.494481   -1.099444   -0.485276
     33          8           0        5.364738   -0.874793   -1.323620
     34          8           0        4.292594   -2.186518    0.051520
 ---------------------------------------------------------------------

 SCF Done:  E(RHF) =  -669.534643798     A.U. after   15 cycles
 E2 =    -0.2092032079D+01 EUMP2 =    -0.67162667587656D+03

 The electronic state is 1-A.
 Alpha  occ. eigenvalues --  -20.60762 -20.60757 -15.85815 -11.31192 -11.27749
 Alpha  occ. eigenvalues --  -11.27736 -11.27479 -11.26781 -11.26700 -11.22179
 Alpha  occ. eigenvalues --  -11.21929 -11.21859 -11.21797 -11.21751 -11.21346
 Alpha  occ. eigenvalues --   -1.59837  -1.39390  -1.19362  -1.08882  -1.08750
 Alpha  occ. eigenvalues --   -1.04773  -1.04002  -0.96478  -0.95586  -0.87518
 Alpha  occ. eigenvalues --   -0.86148  -0.82423  -0.80079  -0.78673  -0.77464
 Alpha  occ. eigenvalues --   -0.72033  -0.71161  -0.70462  -0.65521  -0.65012
 Alpha  occ. eigenvalues --   -0.64779  -0.62180  -0.61388  -0.59822  -0.58068
 Alpha  occ. eigenvalues --   -0.55779  -0.55252  -0.53479  -0.53049  -0.52847
 Alpha  occ. eigenvalues --   -0.52598  -0.50402  -0.48790  -0.48787  -0.48384
 Alpha  occ. eigenvalues --   -0.47094  -0.46221  -0.46134  -0.44794  -0.44256
 Alpha  occ. eigenvalues --   -0.37335  -0.36312
 Alpha virt. eigenvalues --    0.05032   0.11263   0.16420   0.20901   0.22573
 Alpha virt. eigenvalues --    0.24020   0.25941   0.26442   0.27116   0.27919
 Alpha virt. eigenvalues --    0.28789   0.30031   0.31208   0.31386   0.31973

 Mulliken charges:
               1
     1  C   -0.298838
     2  C   -0.298085
     3  C   -0.485354
     4  H    0.148232
     5  H    0.151489
     6  H    0.149877
     7  H    0.156523
     8  H    0.159809
     9  H    0.147581
    10  H    0.164031
    11  C   -0.298545
    12  C   -0.299919
    13  C   -0.475911
    14  H    0.148732
    15  H    0.151408
    16  H    0.151495
    17  H    0.152963
    18  H    0.156159
    19  H    0.154926
    20  H    0.161151
    21  C   -0.173476
    22  C   -0.219003
    23  C   -0.173531
    24  C    0.158752
    25  C   -0.171347
    26  C   -0.218247
    27  H    0.225480
    28  H    0.230961
    29  H    0.276317
    30  H    0.275585
    31  H    0.223398
    32  N    0.488072
    33  O   -0.460439
    34  O   -0.460247
 Sum of Mulliken charges =  -0.00000

 Dipole moment (field-independent basis, Debye):
    X=             -3.1672    Y=              3.9508    Z=              1.3382  Tot=              5.2374
 Quadrupole moment (field-independent basis, Debye-Ang):
   XX=           -116.8045   YY=            -92.1638   ZZ=            -94.0077
   XY=             16.5407   XZ=              3.1464   YZ=             -2.0195

 Normal termination of Gaussian 16 at Wed May  5 21:47:42 2021.
