 Gaussian 16, Revision A.03,
 Gaussian 16:  EM64L-G16RevA.03 25-Dec-2016

 -------------
 #p 6-31g* mp2
 -------------

 ------------------------------------------------------
 Input file generated by CHIRIPA (05-May-2021 14:51:14)
 ------------------------------------------------------
 Symbolic Z-matrix:
 Charge =  0 Multiplicity = 1

                         Standard orientation:
 ---------------------------------------------------------------------
 Center     Atomic      Atomic             Coordinates (Angstroms)
 Number     Number       Type             X           Y           Z
 ---------------------------------------------------------------------
      1          6           0       -3.482055    0.671099    0.460098
      2          6           0       -1.965536    0.755945    0.636046
      3          6           0       -1.504225    2.124847    1.137136
      4          1           0       -3.807251    1.449455   -0.243716
      5          1           0       -3.968575    0.894363    1.419705
      6          1           0       -1.481985    0.531229   -0.323275
      7          1           0       -1.643889   -0.022827    1.339376
      8          1           0       -1.959721    2.353993    2.105958
      9          1           0       -1.796897    2.911198    0.433860
     10          1           0       -0.416898    2.163380    1.255857
     11          6           0       -3.958588   -0.691336   -0.040319
     12          6           0       -5.475106   -0.776182   -0.216267
     13          6           0       -5.936418   -2.145085   -0.717357
     14          1           0       -3.472068   -0.914600   -0.999926
     15          1           0       -3.633392   -1.469692    0.663495
     16          1           0       -5.796754    0.002590   -0.919597
     17          1           0       -5.958658   -0.551466    0.743054
     18          1           0       -5.643745   -2.931435   -0.014081
     19          1           0       -5.480921   -2.374230   -1.686179
     20          1           0       -7.023745   -2.183617   -0.836078
     21          6           0        4.357533   -0.395178   -0.324463
     22          6           0        4.462839   -1.626802    0.575536
     23          6           0        5.743009   -2.427354    0.334550
     24          1           0        4.401124   -0.712115   -1.375461
     25          1           0        5.231356    0.249338   -0.155852
     26          1           0        3.588382   -2.268125    0.406283
     27          1           0        4.418800   -1.306914    1.624511
     28          1           0        6.625901   -1.807855    0.522496
     29          1           0        5.790765   -2.774529   -0.702653
     30          1           0        5.797787   -3.303343    0.988386
     31          6           0        3.083109    0.415415   -0.095316
     32          6           0        2.977804    1.647038   -0.995315
     33          6           0        1.697633    2.447591   -0.754329
     34          1           0        2.209286   -0.229100   -0.263927
     35          1           0        3.039519    0.732351    0.955682
     36          1           0        3.021842    1.327151   -2.044290
     37          1           0        3.852260    2.288363   -0.826062
     38          1           0        1.649877    2.794766    0.282874
     39          1           0        0.814741    1.828093   -0.942274
     40          1           0        1.642856    3.323580   -1.408165
 ---------------------------------------------------------------------

 SCF Done:  E(RHF) =  -470.732232221     A.U. after   11 cycles
 E2 =    -0.1583293116D+01 EUMP2 =    -0.47231552533746D+03

 The electronic state is 1-A.
 Alpha  occ. eigenvalues --  -11.21603 -11.21593 -11.21588 -11.21560 -11.21411
 Alpha  occ. eigenvalues --  -11.21379 -11.21351 -11.21318 -11.21072 -11.21063
 Alpha  occ. eigenvalues --  -11.21036 -11.20869  -1.08440  -1.08392  -1.03568
 Alpha  occ. eigenvalues --   -1.03451  -0.96058  -0.95857  -0.87099  -0.86851
 Alpha  occ. eigenvalues --   -0.79640  -0.79513  -0.78255  -0.78210  -0.65086
 Alpha  occ. eigenvalues --   -0.65012  -0.61005  -0.60823  -0.59504  -0.59239
 Alpha  occ. eigenvalues --   -0.57827  -0.57302  -0.55338  -0.55156  -0.52921
 Alpha  occ. eigenvalues --   -0.52667  -0.52424  -0.52004  -0.49930  -0.49865
 Alpha  occ. eigenvalues --   -0.47996  -0.47722  -0.46688  -0.46536  -0.45798
 Alpha  occ. eigenvalues --   -0.45766  -0.45716  -0.45628  -0.43786  -0.43693
 Alpha virt. eigenvalues --    0.21611   0.23059   0.23493   0.25029   0.25769
 Alpha virt. eigenvalues --    0.26646   0.26978   0.27568   0.27880   0.28975
 Alpha virt. eigenvalues --    0.29683   0.31367   0.31625   0.31915   0.32418

 Mulliken charges:
               1
     1  C   -0.298084
     2  C   -0.301869
     3  C   -0.479491
     4  H    0.149642
     5  H    0.149685
     6  H    0.151573
     7  H    0.151863
     8  H    0.153586
     9  H    0.154612
    10  H    0.167418
    11  C   -0.298233
    12  C   -0.299612
    13  C   -0.475679
    14  H    0.149116
    15  H    0.149551
    16  H    0.151934
    17  H    0.151961
    18  H    0.155135
    19  H    0.155062
    20  H    0.160223
    21  C   -0.298141
    22  C   -0.299681
    23  C   -0.475715
    24  H    0.149678
    25  H    0.149565
    26  H    0.152053
    27  H    0.151910
    28  H    0.155177
    29  H    0.155182
    30  H    0.160261
    31  C   -0.298774
    32  C   -0.299866
    33  C   -0.480439
    34  H    0.149984
    35  H    0.149131
    36  H    0.151646
    37  H    0.151777
    38  H    0.156437
    39  H    0.161299
    40  H    0.160125
 Sum of Mulliken charges =  -0.00000

 Dipole moment (field-independent basis, Debye):
    X=              0.0284    Y=              0.0155    Z=             -0.0057  Tot=              0.0329
 Quadrupole moment (field-independent basis, Debye-Ang):
   XX=            -85.7059   YY=            -85.6988   ZZ=            -83.4923
   XY=              0.4736   XZ=              0.1730   YZ=             -0.3114

 Normal termination of Gaussian 16 at Wed May  5 18:24:39 2021.
