 Gaussian 16, Revision A.03,
 Gaussian 16:  EM64L-G16RevA.03 25-Dec-2016

 -------------
 #p 6-31g* mp2
 -------------

 ------------------------------------------------------
 Input file generated by CHIRIPA (05-May-2021 14:57:26)
 ------------------------------------------------------
 Symbolic Z-matrix:
 Charge =  0 Multiplicity = 1

                         Standard orientation:
 ---------------------------------------------------------------------
 Center     Atomic      Atomic             Coordinates (Angstroms)
 Number     Number       Type             X           Y           Z
 ---------------------------------------------------------------------
      1          6           0        2.066002   -2.078632   -1.220412
      2          6           0        1.452539   -1.101349   -2.011047
      3          6           0        1.393266    0.227017   -1.579218
      4          6           0        1.960194    0.544394   -0.345866
      5          6           0        2.578285   -0.406610    0.464593
      6          6           0        2.625931   -1.728760    0.012710
      7          1           0        2.107530   -3.108124   -1.563656
      8          1           0        1.016853   -1.370178   -2.969146
      9          1           0        0.924416    1.003615   -2.171243
     10          1           0        3.003772   -0.108212    1.415034
     11          1           0        3.102991   -2.485632    0.628830
     12          7           0        1.903599    1.947385    0.121907
     13          8           0        2.410515    2.201315    1.212408
     14          8           0        1.353396    2.766555   -0.610811
     15          6           0       -0.389142   -1.727053    1.790164
     16          6           0       -1.067182   -2.287426    0.702615
     17          6           0       -1.945221   -1.513452   -0.061950
     18          6           0       -2.122307   -0.176474    0.290785
     19          6           0       -1.461309    0.410711    1.368554
     20          6           0       -0.588019   -0.382143    2.119082
     21          1           0        0.291096   -2.335627    2.378644
     22          1           0       -0.914679   -3.331625    0.444857
     23          1           0       -2.482977   -1.921799   -0.908998
     24          1           0       -1.633856    1.454533    1.601110
     25          1           0       -0.062788    0.055721    2.963152
     26          7           0       -3.049333    0.652891   -0.511196
     27          8           0       -3.188017    1.828311   -0.179846
     28          8           0       -3.619700    0.111825   -1.455953
 ---------------------------------------------------------------------

 SCF Done:  E(RHF) =  -868.334192349     A.U. after   16 cycles
 E2 =    -0.2608346382D+01 EUMP2 =    -0.87094253873062D+03

 The electronic state is 1-A.
 Alpha  occ. eigenvalues --  -20.61188 -20.61123 -20.60734 -20.60679 -15.86188
 Alpha  occ. eigenvalues --  -15.85765 -11.31544 -11.31161 -11.28181 -11.28104
 Alpha  occ. eigenvalues --  -11.27901 -11.27843 -11.27668 -11.27603 -11.27195
 Alpha  occ. eigenvalues --  -11.27119 -11.26895 -11.26715  -1.60228  -1.59790
 Alpha  occ. eigenvalues --   -1.39781  -1.39339  -1.19788  -1.19353  -1.09158
 Alpha  occ. eigenvalues --   -1.08791  -1.05178  -1.04800  -0.95989  -0.95609
 Alpha  occ. eigenvalues --   -0.86596  -0.86196  -0.82836  -0.82427  -0.77870
 Alpha  occ. eigenvalues --   -0.77451  -0.72413  -0.71985  -0.71574  -0.71120
 Alpha  occ. eigenvalues --   -0.70903  -0.70543  -0.65419  -0.65205  -0.65044
 Alpha  occ. eigenvalues --   -0.64823  -0.62532  -0.62135  -0.55705  -0.55370
 Alpha  occ. eigenvalues --   -0.54670  -0.53279  -0.52898  -0.51931  -0.49187
 Alpha  occ. eigenvalues --   -0.49166  -0.48756  -0.48727  -0.45186  -0.44735
 Alpha  occ. eigenvalues --   -0.38417  -0.38286  -0.36015  -0.35501
 Alpha virt. eigenvalues --    0.04273   0.05332   0.10058   0.12007   0.15834
 Alpha virt. eigenvalues --    0.16967   0.20127   0.21979   0.26077   0.26817
 Alpha virt. eigenvalues --    0.28302   0.28753   0.29647   0.31468   0.31973

 Mulliken charges:
               1
     1  C   -0.170350
     2  C   -0.216947
     3  C   -0.170296
     4  C    0.165240
     5  C   -0.170311
     6  C   -0.221006
     7  H    0.222954
     8  H    0.226079
     9  H    0.280805
    10  H    0.270809
    11  H    0.218207
    12  N    0.486214
    13  O   -0.465839
    14  O   -0.453624
    15  C   -0.163413
    16  C   -0.213345
    17  C   -0.172125
    18  C    0.158304
    19  C   -0.176440
    20  C   -0.222990
    21  H    0.218914
    22  H    0.216269
    23  H    0.271989
    24  H    0.283654
    25  H    0.229275
    26  N    0.487118
    27  O   -0.454009
    28  O   -0.465136
 Sum of Mulliken charges =  -0.00000

 Dipole moment (field-independent basis, Debye):
    X=              3.4248    Y=             -7.6047    Z=              1.0960  Tot=              8.4121
 Quadrupole moment (field-independent basis, Debye-Ang):
   XX=           -118.6100   YY=           -106.7982   ZZ=            -97.3675
   XY=             -3.9853   XZ=             -5.7273   YZ=              0.8761

 Normal termination of Gaussian 16 at Wed May  5 18:02:38 2021.
