 Gaussian 16, Revision A.03,
 Gaussian 16:  EM64L-G16RevA.03 25-Dec-2016

 -------------
 #p 6-31g* mp2
 -------------

 ------------------------------------------------------
 Input file generated by CHIRIPA (05-May-2021 14:57:24)
 ------------------------------------------------------
 Symbolic Z-matrix:
 Charge =  0 Multiplicity = 1

                         Standard orientation:
 ---------------------------------------------------------------------
 Center     Atomic      Atomic             Coordinates (Angstroms)
 Number     Number       Type             X           Y           Z
 ---------------------------------------------------------------------
      1          6           0        2.871476   -2.193358   -0.748372
      2          6           0        3.735052   -1.149117   -1.095237
      3          6           0        3.472211    0.158500   -0.676191
      4          6           0        2.331630    0.387074    0.092000
      5          6           0        1.452094   -0.632137    0.453825
      6          6           0        1.734757   -1.931996    0.023691
      7          1           0        3.083356   -3.206134   -1.078203
      8          1           0        4.618587   -1.349150   -1.694736
      9          1           0        4.123881    0.985617   -0.930399
     10          1           0        0.579179   -0.401715    1.052442
     11          1           0        1.062322   -2.741008    0.294573
     12          7           0        2.042880    1.767283    0.541495
     13          8           0        1.031411    1.942469    1.217422
     14          8           0        2.833494    2.647772    0.209370
     15          6           0       -1.825463   -1.233211    2.197174
     16          6           0       -1.780961   -1.990222    1.021812
     17          6           0       -2.085827   -1.405802   -0.211095
     18          6           0       -2.432754   -0.055805   -0.232065
     19          6           0       -2.486024    0.724849    0.921638
     20          6           0       -2.177232    0.119523    2.143430
     21          1           0       -1.587112   -1.695323    3.150609
     22          1           0       -1.508101   -3.040981    1.060537
     23          1           0       -2.059254   -1.968538   -1.136319
     24          1           0       -2.761481    1.770120    0.851287
     25          1           0       -2.212618    0.709872    3.054627
     26          7           0       -2.757580    0.573959   -1.531405
     27          8           0       -3.060305    1.765146   -1.523078
     28          8           0       -2.703302   -0.135542   -2.533552
 ---------------------------------------------------------------------

 SCF Done:  E(RHF) =  -868.336277071     A.U. after   16 cycles
 E2 =    -0.2605317960D+01 EUMP2 =    -0.87094159503066D+03

 The electronic state is 1-A.
 Alpha  occ. eigenvalues --  -20.60867 -20.60864 -20.60831 -20.60825 -15.85913
 Alpha  occ. eigenvalues --  -15.85897 -11.31470 -11.31154 -11.28160 -11.27976
 Alpha  occ. eigenvalues --  -11.27881 -11.27772 -11.27619 -11.27561 -11.27240
 Alpha  occ. eigenvalues --  -11.27007 -11.26798 -11.26764  -1.59921  -1.59917
 Alpha  occ. eigenvalues --   -1.39476  -1.39468  -1.19740  -1.19354  -1.09085
 Alpha  occ. eigenvalues --   -1.08792  -1.05149  -1.04732  -0.95851  -0.95630
 Alpha  occ. eigenvalues --   -0.86503  -0.86180  -0.82670  -0.82468  -0.77701
 Alpha  occ. eigenvalues --   -0.77503  -0.72144  -0.72122  -0.71270  -0.71214
 Alpha  occ. eigenvalues --   -0.70781  -0.70506  -0.65336  -0.65208  -0.65031
 Alpha  occ. eigenvalues --   -0.64734  -0.62464  -0.62186  -0.55613  -0.55393
 Alpha  occ. eigenvalues --   -0.53634  -0.53185  -0.53059  -0.52470  -0.48907
 Alpha  occ. eigenvalues --   -0.48885  -0.48871  -0.48862  -0.44906  -0.44826
 Alpha  occ. eigenvalues --   -0.37803  -0.37370  -0.36958  -0.36025
 Alpha virt. eigenvalues --    0.04582   0.05291   0.10809   0.11257   0.16085
 Alpha virt. eigenvalues --    0.16627   0.20032   0.22160   0.25588   0.28062
 Alpha virt. eigenvalues --    0.28390   0.29014   0.30106   0.31953   0.32452

 Mulliken charges:
               1
     1  C   -0.169446
     2  C   -0.219382
     3  C   -0.168468
     4  C    0.155582
     5  C   -0.175194
     6  C   -0.223466
     7  H    0.224461
     8  H    0.223795
     9  H    0.276135
    10  H    0.288634
    11  H    0.212924
    12  N    0.488516
    13  O   -0.466219
    14  O   -0.458267
    15  C   -0.186479
    16  C   -0.230830
    17  C   -0.169276
    18  C    0.156623
    19  C   -0.157257
    20  C   -0.211723
    21  H    0.227757
    22  H    0.218564
    23  H    0.275453
    24  H    0.283870
    25  H    0.231734
    26  N    0.488352
    27  O   -0.454449
    28  O   -0.461942
 Sum of Mulliken charges =  -0.00000

 Dipole moment (field-independent basis, Debye):
    X=              1.8950    Y=             -6.6457    Z=              3.0187  Tot=              7.5411
 Quadrupole moment (field-independent basis, Debye-Ang):
   XX=           -102.4344   YY=           -105.1734   ZZ=           -105.9759
   XY=             -5.5058   XZ=            -18.2073   YZ=              0.9272

 Normal termination of Gaussian 16 at Thu May  6 05:05:24 2021.
