 Gaussian 16, Revision A.03,
 Gaussian 16:  EM64L-G16RevA.03 25-Dec-2016

 -------------
 #p 6-31g* mp2
 -------------

 ------------------------------------------------------
 Input file generated by CHIRIPA (05-May-2021 14:57:27)
 ------------------------------------------------------
 Symbolic Z-matrix:
 Charge =  0 Multiplicity = 1

                         Standard orientation:
 ---------------------------------------------------------------------
 Center     Atomic      Atomic             Coordinates (Angstroms)
 Number     Number       Type             X           Y           Z
 ---------------------------------------------------------------------
      1          6           0       -4.631336   -2.260380   -0.244497
      2          6           0       -4.714943   -1.382435   -1.330196
      3          6           0       -4.123795   -0.117078   -1.267234
      4          6           0       -3.453819    0.239268   -0.097858
      5          6           0       -3.353240   -0.613107    1.000610
      6          6           0       -3.951949   -1.873596    0.915396
      7          1           0       -5.093492   -3.241449   -0.302051
      8          1           0       -5.241925   -1.680133   -2.232256
      9          1           0       -4.173273    0.582314   -2.092958
     10          1           0       -2.821180   -0.288068    1.886431
     11          1           0       -3.885421   -2.553354    1.760114
     12          7           0       -2.823995    1.576268   -0.019424
     13          8           0       -2.239436    1.866334    1.022108
     14          8           0       -2.926823    2.308825   -1.000965
     15          6           0        1.599436    0.942802    1.378275
     16          6           0        2.019368    1.536287    0.183305
     17          6           0        3.103147    1.011939   -0.527349
     18          6           0        3.746932   -0.111889   -0.011752
     19          6           0        3.352282   -0.725715    1.176003
     20          6           0        2.266058   -0.184318    1.869943
     21          1           0        0.756580    1.356750    1.923837
     22          1           0        1.503546    2.411701   -0.200911
     23          1           0        3.449191    1.451522   -1.454947
     24          1           0        3.886348   -1.597542    1.533926
     25          1           0        1.942129   -0.647309    2.797711
     26          7           0        4.895576   -0.676017   -0.755242
     27          8           0        5.445976   -1.666811   -0.279825
     28          8           0        5.223731   -0.116705   -1.799331
 ---------------------------------------------------------------------

 SCF Done:  E(RHF) =  -868.340041231     A.U. after   16 cycles
 E2 =    -0.2598423505D+01 EUMP2 =    -0.87093846473541D+03

 The electronic state is 1-A.
 Alpha  occ. eigenvalues --  -20.61782 -20.61718 -20.60353 -20.60343 -15.86783
 Alpha  occ. eigenvalues --  -15.85400 -11.31880 -11.30615 -11.28454 -11.28390
 Alpha  occ. eigenvalues --  -11.28092 -11.27382 -11.27342 -11.27221 -11.27135
 Alpha  occ. eigenvalues --  -11.26713 -11.26171 -11.25993  -1.60813  -1.59431
 Alpha  occ. eigenvalues --   -1.40378  -1.38988  -1.20024  -1.18762  -1.09464
 Alpha  occ. eigenvalues --   -1.08149  -1.05391  -1.04147  -0.96347  -0.95013
 Alpha  occ. eigenvalues --   -0.86800  -0.85528  -0.83196  -0.81859  -0.78276
 Alpha  occ. eigenvalues --   -0.76959  -0.73022  -0.72117  -0.71618  -0.71130
 Alpha  occ. eigenvalues --   -0.70755  -0.69761  -0.65682  -0.65390  -0.64393
 Alpha  occ. eigenvalues --   -0.64119  -0.62749  -0.61498  -0.55890  -0.54513
 Alpha  occ. eigenvalues --   -0.53725  -0.53481  -0.52489  -0.52212  -0.49784
 Alpha  occ. eigenvalues --   -0.49739  -0.48384  -0.48361  -0.45837  -0.44428
 Alpha  occ. eigenvalues --   -0.37976  -0.36979  -0.36692  -0.35775
 Alpha virt. eigenvalues --    0.04220   0.05578   0.10680   0.11890   0.15752
 Alpha virt. eigenvalues --    0.17125   0.20756   0.22224   0.26683   0.27468
 Alpha virt. eigenvalues --    0.28000   0.29127   0.30529   0.31462   0.32636

 Mulliken charges:
               1
     1  C   -0.169553
     2  C   -0.218147
     3  C   -0.170069
     4  C    0.158690
     5  C   -0.170001
     6  C   -0.218011
     7  H    0.228345
     8  H    0.226193
     9  H    0.276879
    10  H    0.270944
    11  H    0.224583
    12  N    0.490090
    13  O   -0.471423
    14  O   -0.456505
    15  C   -0.175873
    16  C   -0.221995
    17  C   -0.172284
    18  C    0.157254
    19  C   -0.172163
    20  C   -0.220968
    21  H    0.241859
    22  H    0.233066
    23  H    0.274488
    24  H    0.272317
    25  H    0.218691
    26  N    0.488200
    27  O   -0.463132
    28  O   -0.461473
 Sum of Mulliken charges =  -0.00000

 Dipole moment (field-independent basis, Debye):
    X=             -6.6880    Y=             -2.6636    Z=              2.2314  Tot=              7.5368
 Quadrupole moment (field-independent basis, Debye-Ang):
   XX=           -120.8914   YY=           -105.4372   ZZ=            -98.6072
   XY=             23.8664   XZ=             13.5341   YZ=             -3.8431

 Normal termination of Gaussian 16 at Fri May  7 00:30:23 2021.
