 Gaussian 16, Revision A.03,
 Gaussian 16:  EM64L-G16RevA.03 25-Dec-2016

 -------------
 #p 6-31g* mp2
 -------------

 ------------------------------------------------------
 Input file generated by CHIRIPA (05-May-2021 14:53:15)
 ------------------------------------------------------
 Symbolic Z-matrix:
 Charge =  0 Multiplicity = 1

                         Standard orientation:
 ---------------------------------------------------------------------
 Center     Atomic      Atomic             Coordinates (Angstroms)
 Number     Number       Type             X           Y           Z
 ---------------------------------------------------------------------
      1          6           0        4.261294   -0.324533    0.355603
      2          6           0        3.780849   -1.685248   -0.149979
      3          6           0        4.513113   -2.853582    0.510762
      4          1           0        5.340750   -0.232934    0.173042
      5          1           0        4.123261   -0.276212    1.444643
      6          1           0        3.918465   -1.730465   -1.237928
      7          1           0        2.702375   -1.773541    0.033633
      8          1           0        4.365891   -2.836550    1.595490
      9          1           0        5.588892   -2.793230    0.316704
     10          1           0        4.154053   -3.816673    0.134740
     11          6           0        3.538640    0.853348   -0.295623
     12          6           0        4.019085    2.214062    0.209959
     13          6           0        3.286822    3.382397   -0.450781
     14          1           0        3.676674    0.805026   -1.384663
     15          1           0        2.459184    0.761749   -0.113062
     16          1           0        5.097560    2.302355    0.026347
     17          1           0        3.881469    2.259279    1.297908
     18          1           0        2.211043    3.322044   -0.256724
     19          1           0        3.434043    3.365365   -1.535510
     20          1           0        3.645881    4.345488   -0.074760
     21          6           0       -0.875938   -1.443347   -0.374779
     22          6           0       -2.093585   -2.124604   -0.473497
     23          6           0       -3.302552   -1.449475   -0.280764
     24          6           0       -3.256725   -0.087001    0.010537
     25          6           0       -2.059653    0.619602    0.115517
     26          6           0       -0.862881   -0.075829   -0.081104
     27          1           0        0.058480   -1.975689   -0.526008
     28          1           0       -2.106760   -3.186635   -0.701449
     29          1           0       -4.259420   -1.952307   -0.351344
     30          1           0       -2.078504    1.678306    0.344012
     31          1           0        0.081270    0.455821   -0.003824
     32          7           0       -4.530149    0.638475    0.216633
     33          8           0       -4.462773    1.838800    0.472206
     34          8           0       -5.571523   -0.006959    0.118696
 ---------------------------------------------------------------------

 SCF Done:  E(RHF) =  -669.535415831     A.U. after   15 cycles
 E2 =    -0.2091838139D+01 EUMP2 =    -0.67162725396912D+03

 The electronic state is 1-A.
 Alpha  occ. eigenvalues --  -20.60728 -20.60723 -15.85781 -11.31141 -11.27711
 Alpha  occ. eigenvalues --  -11.27707 -11.27436 -11.26723 -11.26699 -11.22752
 Alpha  occ. eigenvalues --  -11.22513 -11.22424 -11.22362 -11.21980 -11.21821
 Alpha  occ. eigenvalues --   -1.59804  -1.39357  -1.19312  -1.09441  -1.08706
 Alpha  occ. eigenvalues --   -1.04716  -1.04467  -0.96894  -0.95543  -0.87907
 Alpha  occ. eigenvalues --   -0.86117  -0.82379  -0.80540  -0.79282  -0.77426
 Alpha  occ. eigenvalues --   -0.72000  -0.71127  -0.70423  -0.66114  -0.64962
 Alpha  occ. eigenvalues --   -0.64703  -0.62088  -0.61848  -0.60271  -0.58515
 Alpha  occ. eigenvalues --   -0.56187  -0.55213  -0.53563  -0.53330  -0.53044
 Alpha  occ. eigenvalues --   -0.52810  -0.50828  -0.48858  -0.48755  -0.48746
 Alpha  occ. eigenvalues --   -0.47576  -0.46805  -0.46700  -0.44764  -0.44737
 Alpha  occ. eigenvalues --   -0.37289  -0.36320
 Alpha virt. eigenvalues --    0.05109   0.11330   0.16594   0.18190   0.22354
 Alpha virt. eigenvalues --    0.22826   0.24774   0.26070   0.26591   0.27096
 Alpha virt. eigenvalues --    0.29212   0.30789   0.30972   0.31268   0.31954

 Mulliken charges:
               1
     1  C   -0.298388
     2  C   -0.302987
     3  C   -0.476017
     4  H    0.154531
     5  H    0.152129
     6  H    0.154495
     7  H    0.142925
     8  H    0.157680
     9  H    0.159166
    10  H    0.160527
    11  C   -0.304792
    12  C   -0.300368
    13  C   -0.475466
    14  H    0.153016
    15  H    0.142905
    16  H    0.155707
    17  H    0.153848
    18  H    0.150757
    19  H    0.157410
    20  H    0.164759
    21  C   -0.178207
    22  C   -0.219086
    23  C   -0.171016
    24  C    0.158892
    25  C   -0.173023
    26  C   -0.227322
    27  H    0.231320
    28  H    0.223565
    29  H    0.275378
    30  H    0.276051
    31  H    0.234775
    32  N    0.487948
    33  O   -0.460489
    34  O   -0.460623
 Sum of Mulliken charges =  -0.00000

 Dipole moment (field-independent basis, Debye):
    X=              4.7940    Y=             -2.5136    Z=             -0.7210  Tot=              5.4608
 Quadrupole moment (field-independent basis, Debye-Ang):
   XX=           -121.4605   YY=            -91.3892   ZZ=            -95.0675
   XY=             11.0461   XZ=              2.2606   YZ=              1.1566

 Normal termination of Gaussian 16 at Thu May  6 04:15:56 2021.
