 Gaussian 16, Revision A.03,
 Gaussian 16:  EM64L-G16RevA.03 25-Dec-2016

 -------------
 #p 6-31g* mp2
 -------------

 ------------------------------------------------------
 Input file generated by CHIRIPA (05-May-2021 14:57:26)
 ------------------------------------------------------
 Symbolic Z-matrix:
 Charge =  0 Multiplicity = 1

                         Standard orientation:
 ---------------------------------------------------------------------
 Center     Atomic      Atomic             Coordinates (Angstroms)
 Number     Number       Type             X           Y           Z
 ---------------------------------------------------------------------
      1          6           0       -1.314302   -1.845323    1.158528
      2          6           0       -2.335008   -2.237083    0.286058
      3          6           0       -3.223563   -1.292779   -0.236732
      4          6           0       -3.061630    0.040737    0.135830
      5          6           0       -2.054766    0.462237    1.002924
      6          6           0       -1.177679   -0.499286    1.513551
      7          1           0       -0.628505   -2.585569    1.559919
      8          1           0       -2.443498   -3.281732    0.008600
      9          1           0       -4.022663   -1.568554   -0.914084
     10          1           0       -1.971774    1.510976    1.261143
     11          1           0       -0.385919   -0.192157    2.190922
     12          7           0       -3.996233    1.049543   -0.411186
     13          8           0       -3.832332    2.218141   -0.067453
     14          8           0       -4.874979    0.652546   -1.173312
     15          6           0        3.291540    2.587432    0.170923
     16          6           0        4.357041    1.687160    0.274563
     17          6           0        4.155917    0.320903    0.056761
     18          6           0        2.870479   -0.112481   -0.264356
     19          6           0        1.788647    0.759695   -0.374992
     20          6           0        2.012997    2.121647   -0.152952
     21          1           0        3.456800    3.647101    0.341762
     22          1           0        5.351046    2.046057    0.525944
     23          1           0        4.962927   -0.397928    0.130487
     24          1           0        0.809073    0.372021   -0.627109
     25          1           0        1.183644    2.818516   -0.234122
     26          7           0        2.645262   -1.556597   -0.497177
     27          8           0        1.503249   -1.913158   -0.778791
     28          8           0        3.615017   -2.304591   -0.393639
 ---------------------------------------------------------------------

 SCF Done:  E(RHF) =  -868.339003353     A.U. after   16 cycles
 E2 =    -0.2601471311D+01 EUMP2 =    -0.87094047466427D+03

 The electronic state is 1-A.
 Alpha  occ. eigenvalues --  -20.61441 -20.61429 -20.60771 -20.60744 -15.86465
 Alpha  occ. eigenvalues --  -15.85814 -11.31662 -11.31027 -11.28233 -11.28133
 Alpha  occ. eigenvalues --  -11.27925 -11.27692 -11.27536 -11.27191 -11.27155
 Alpha  occ. eigenvalues --  -11.27154 -11.26558 -11.26393  -1.60517  -1.59843
 Alpha  occ. eigenvalues --   -1.40070  -1.39401  -1.19831  -1.19185  -1.09255
 Alpha  occ. eigenvalues --   -1.08552  -1.05201  -1.04577  -0.96114  -0.95421
 Alpha  occ. eigenvalues --   -0.86600  -0.85948  -0.82950  -0.82270  -0.78017
 Alpha  occ. eigenvalues --   -0.77380  -0.72702  -0.72030  -0.71854  -0.71174
 Alpha  occ. eigenvalues --   -0.70911  -0.70179  -0.65472  -0.65185  -0.64812
 Alpha  occ. eigenvalues --   -0.64541  -0.62546  -0.61929  -0.55698  -0.54940
 Alpha  occ. eigenvalues --   -0.53575  -0.53377  -0.52752  -0.52627  -0.49455
 Alpha  occ. eigenvalues --   -0.49440  -0.48799  -0.48769  -0.45519  -0.44843
 Alpha  occ. eigenvalues --   -0.37820  -0.37060  -0.36836  -0.36085
 Alpha virt. eigenvalues --    0.04454   0.05178   0.10621   0.11665   0.15838
 Alpha virt. eigenvalues --    0.16904   0.20945   0.21803   0.26523   0.27678
 Alpha virt. eigenvalues --    0.27969   0.28714   0.30659   0.31444   0.32077

 Mulliken charges:
               1
     1  C   -0.150518
     2  C   -0.216994
     3  C   -0.170734
     4  C    0.157520
     5  C   -0.181774
     6  C   -0.227538
     7  H    0.233901
     8  H    0.227597
     9  H    0.275581
    10  H    0.269541
    11  H    0.222015
    12  N    0.488330
    13  O   -0.465414
    14  O   -0.459273
    15  C   -0.170001
    16  C   -0.219139
    17  C   -0.170940
    18  C    0.153936
    19  C   -0.176644
    20  C   -0.223770
    21  H    0.228219
    22  H    0.224938
    23  H    0.275823
    24  H    0.283503
    25  H    0.227896
    26  N    0.487364
    27  O   -0.463921
    28  O   -0.459502
 Sum of Mulliken charges =  -0.00000

 Dipole moment (field-independent basis, Debye):
    X=              4.1986    Y=              1.2518    Z=              2.7208  Tot=              5.1573
 Quadrupole moment (field-independent basis, Debye-Ang):
   XX=           -115.3585   YY=           -103.6905   ZZ=           -104.7274
   XY=             27.6182   XZ=             -0.8643   YZ=             -0.1842

 Normal termination of Gaussian 16 at Thu May  6 03:35:16 2021.
