 Gaussian 16, Revision A.03,
 Gaussian 16:  EM64L-G16RevA.03 25-Dec-2016

 -------------
 #p 6-31g* mp2
 -------------

 ------------------------------------------------------
 Input file generated by CHIRIPA (05-May-2021 14:55:23)
 ------------------------------------------------------
 Symbolic Z-matrix:
 Charge =  0 Multiplicity = 1

                         Standard orientation:
 ---------------------------------------------------------------------
 Center     Atomic      Atomic             Coordinates (Angstroms)
 Number     Number       Type             X           Y           Z
 ---------------------------------------------------------------------
      1          6           0        1.856761   -2.641562   -0.143019
      2          6           0        3.040305   -2.126547    0.395966
      3          6           0        3.266404   -0.747185    0.424059
      4          6           0        2.283173    0.092010   -0.097763
      5          6           0        1.093747   -0.390631   -0.641469
      6          6           0        0.888966   -1.773491   -0.659106
      7          1           0        1.689402   -3.714442   -0.160781
      8          1           0        3.793664   -2.798327    0.797472
      9          1           0        4.173636   -0.321581    0.835410
     10          1           0        0.361272    0.304065   -1.034273
     11          1           0       -0.031136   -2.170639   -1.078309
     12          7           0        2.511250    1.554130   -0.073557
     13          8           0        1.629394    2.272327   -0.539562
     14          8           0        3.567553    1.954256    0.410962
     15          6           0       -3.110847    0.885737   -0.080445
     16          6           0       -2.216481    2.013089    0.436441
     17          6           0       -2.702592    3.397572    0.006676
     18          1           0       -3.156374    0.935883   -1.176966
     19          1           0       -4.135754    1.044508    0.282534
     20          1           0       -1.193277    1.851485    0.073736
     21          1           0       -2.172924    1.960136    1.531846
     22          1           0       -3.714252    3.584101    0.381316
     23          1           0       -2.729038    3.474833   -1.085080
     24          1           0       -2.048753    4.188577    0.387024
     25          6           0       -2.637845   -0.504385    0.340931
     26          6           0       -3.532210   -1.631737   -0.175953
     27          6           0       -3.046100   -3.016220    0.253811
     28          1           0       -1.612938   -0.663157   -0.022047
     29          1           0       -2.592318   -0.554532    1.437453
     30          1           0       -3.575768   -1.578784   -1.271359
     31          1           0       -4.555415   -1.470134    0.186751
     32          1           0       -3.019654   -3.093481    1.345567
     33          1           0       -2.034440   -3.202750   -0.120829
     34          1           0       -3.699939   -3.807226   -0.126536
 ---------------------------------------------------------------------

 SCF Done:  E(RHF) =  -669.533248773     A.U. after   15 cycles
 E2 =    -0.2095610558D+01 EUMP2 =    -0.67162885933081D+03

 The electronic state is 1-A.
 Alpha  occ. eigenvalues --  -20.60908 -20.60903 -15.85937 -11.31261 -11.27821
 Alpha  occ. eigenvalues --  -11.27811 -11.27551 -11.26828 -11.26800 -11.22169
 Alpha  occ. eigenvalues --  -11.21862 -11.21762 -11.21487 -11.21284 -11.20630
 Alpha  occ. eigenvalues --   -1.59967  -1.39524  -1.19438  -1.08840  -1.08696
 Alpha  occ. eigenvalues --   -1.04849  -1.03701  -0.96180  -0.95678  -0.87200
 Alpha  occ. eigenvalues --   -0.86242  -0.82543  -0.79819  -0.78529  -0.77498
 Alpha  occ. eigenvalues --   -0.72164  -0.71277  -0.70559  -0.65487  -0.65072
 Alpha  occ. eigenvalues --   -0.64894  -0.62140  -0.61090  -0.59590  -0.57739
 Alpha  occ. eigenvalues --   -0.55534  -0.55334  -0.53193  -0.52958  -0.52807
 Alpha  occ. eigenvalues --   -0.52588  -0.50182  -0.48953  -0.48912  -0.48077
 Alpha  occ. eigenvalues --   -0.46868  -0.45966  -0.45864  -0.44833  -0.43945
 Alpha  occ. eigenvalues --   -0.37404  -0.36336
 Alpha virt. eigenvalues --    0.04905   0.11086   0.16282   0.19472   0.23062
 Alpha virt. eigenvalues --    0.23471   0.25953   0.26661   0.27098   0.28638
 Alpha virt. eigenvalues --    0.29548   0.30930   0.31401   0.32177   0.32535

 Mulliken charges:
               1
     1  C   -0.172524
     2  C   -0.218628
     3  C   -0.170973
     4  C    0.155011
     5  C   -0.168722
     6  C   -0.219799
     7  H    0.226196
     8  H    0.223824
     9  H    0.275740
    10  H    0.279513
    11  H    0.228905
    12  N    0.489292
    13  O   -0.462201
    14  O   -0.458966
    15  C   -0.299437
    16  C   -0.311177
    17  C   -0.474256
    18  H    0.146930
    19  H    0.150651
    20  H    0.166653
    21  H    0.151534
    22  H    0.151402
    23  H    0.154723
    24  H    0.168158
    25  C   -0.304103
    26  C   -0.300671
    27  C   -0.475629
    28  H    0.144060
    29  H    0.153191
    30  H    0.149970
    31  H    0.156357
    32  H    0.159351
    33  H    0.142814
    34  H    0.162809
 Sum of Mulliken charges =  -0.00000

 Dipole moment (field-independent basis, Debye):
    X=             -0.7166    Y=             -5.0252    Z=              0.0009  Tot=              5.0760
 Quadrupole moment (field-independent basis, Debye-Ang):
   XX=            -94.2252   YY=            -97.0223   ZZ=            -93.8485
   XY=            -12.5262   XZ=              1.4303   YZ=              0.3450

 Normal termination of Gaussian 16 at Thu May  6 10:59:37 2021.
