 Gaussian 16, Revision A.03,
 Gaussian 16:  EM64L-G16RevA.03 25-Dec-2016

 -------------
 #p 6-31g* mp2
 -------------

 ------------------------------------------------------
 Input file generated by CHIRIPA (05-May-2021 14:55:20)
 ------------------------------------------------------
 Symbolic Z-matrix:
 Charge =  0 Multiplicity = 1

                         Standard orientation:
 ---------------------------------------------------------------------
 Center     Atomic      Atomic             Coordinates (Angstroms)
 Number     Number       Type             X           Y           Z
 ---------------------------------------------------------------------
      1          6           0        2.051662    2.126045   -0.324267
      2          6           0        3.339248    2.330489    0.182534
      3          6           0        4.236093    1.263806    0.293906
      4          6           0        3.810221    0.000249   -0.112723
      5          6           0        2.533987   -0.235366   -0.621645
      6          6           0        1.653842    0.846027   -0.724034
      7          1           0        1.361458    2.960384   -0.407294
      8          1           0        3.650930    3.323481    0.493769
      9          1           0        5.238739    1.393912    0.682738
     10          1           0        2.252051   -1.236687   -0.923780
     11          1           0        0.654498    0.684301   -1.117990
     12          7           0        4.750830   -1.136787    0.000427
     13          8           0        4.351352   -2.240308   -0.364668
     14          8           0        5.869748   -0.902944    0.452066
     15          6           0       -4.014905    0.014256    0.447673
     16          6           0       -2.852301   -0.953595    0.224954
     17          6           0       -1.531204   -0.430538    0.789673
     18          1           0       -3.773258    0.980480   -0.015966
     19          1           0       -4.124551    0.203035    1.524583
     20          1           0       -2.745763   -1.141572   -0.851117
     21          1           0       -3.096826   -1.917687    0.689013
     22          1           0       -1.613704   -0.260281    1.868008
     23          1           0       -1.260645    0.520244    0.319127
     24          1           0       -0.713693   -1.138050    0.619484
     25          6           0       -5.342399   -0.494631   -0.111363
     26          6           0       -6.505003    0.473220    0.111356
     27          6           0       -7.826100   -0.049836   -0.453363
     28          1           0       -5.232753   -0.683410   -1.188273
     29          1           0       -5.584046   -1.460855    0.352277
     30          1           0       -6.260479    1.437312   -0.352703
     31          1           0       -6.611542    0.661197    1.187427
     32          1           0       -8.096659   -1.000618    0.017183
     33          1           0       -7.743601   -0.220094   -1.531698
     34          1           0       -8.643611    0.657676   -0.283174
 ---------------------------------------------------------------------

 SCF Done:  E(RHF) =  -669.534888506     A.U. after   15 cycles
 E2 =    -0.2091459740D+01 EUMP2 =    -0.67162634824541D+03

 The electronic state is 1-A.
 Alpha  occ. eigenvalues --  -20.60730 -20.60725 -15.85782 -11.31142 -11.27697
 Alpha  occ. eigenvalues --  -11.27688 -11.27434 -11.26727 -11.26666 -11.22261
 Alpha  occ. eigenvalues --  -11.22010 -11.21975 -11.21891 -11.21834 -11.21405
 Alpha  occ. eigenvalues --   -1.59806  -1.39359  -1.19306  -1.08975  -1.08704
 Alpha  occ. eigenvalues --   -1.04710  -1.04086  -0.96549  -0.95542  -0.87575
 Alpha  occ. eigenvalues --   -0.86102  -0.82374  -0.80152  -0.78768  -0.77420
 Alpha  occ. eigenvalues --   -0.72002  -0.71128  -0.70418  -0.65630  -0.64959
 Alpha  occ. eigenvalues --   -0.64730  -0.62132  -0.61431  -0.59911  -0.58142
 Alpha  occ. eigenvalues --   -0.55876  -0.55198  -0.53357  -0.53000  -0.52958
 Alpha  occ. eigenvalues --   -0.52717  -0.50454  -0.48760  -0.48757  -0.48459
 Alpha  occ. eigenvalues --   -0.47175  -0.46313  -0.46227  -0.44767  -0.44331
 Alpha  occ. eigenvalues --   -0.37280  -0.36277
 Alpha virt. eigenvalues --    0.05094   0.11290   0.16560   0.20313   0.22588
 Alpha virt. eigenvalues --    0.23871   0.25917   0.26644   0.26739   0.27662
 Alpha virt. eigenvalues --    0.29151   0.30107   0.31182   0.31406   0.31599

 Mulliken charges:
               1
     1  C   -0.172690
     2  C   -0.218171
     3  C   -0.171412
     4  C    0.158716
     5  C   -0.173667
     6  C   -0.214514
     7  H    0.224900
     8  H    0.223173
     9  H    0.275343
    10  H    0.274999
    11  H    0.227102
    12  N    0.488085
    13  O   -0.460636
    14  O   -0.460529
    15  C   -0.298191
    16  C   -0.301128
    17  C   -0.476679
    18  H    0.146683
    19  H    0.151315
    20  H    0.150053
    21  H    0.156489
    22  H    0.160887
    23  H    0.145368
    24  H    0.161061
    25  C   -0.298643
    26  C   -0.299896
    27  C   -0.475987
    28  H    0.149670
    29  H    0.151562
    30  H    0.151159
    31  H    0.152665
    32  H    0.156247
    33  H    0.155494
    34  H    0.161171
 Sum of Mulliken charges =  -0.00000

 Dipole moment (field-independent basis, Debye):
    X=             -3.4623    Y=              3.9697    Z=             -0.3360  Tot=              5.2781
 Quadrupole moment (field-independent basis, Debye-Ang):
   XX=           -118.5375   YY=            -93.1295   ZZ=            -93.9891
   XY=             17.8447   XZ=             -0.3095   YZ=              0.3367

 Normal termination of Gaussian 16 at Thu May  6 07:43:27 2021.
