 Gaussian 16, Revision A.03,
 Gaussian 16:  EM64L-G16RevA.03 25-Dec-2016

 -------------
 #p 6-31g* mp2
 -------------

 ------------------------------------------------------
 Input file generated by CHIRIPA (05-May-2021 14:51:13)
 ------------------------------------------------------
 Symbolic Z-matrix:
 Charge =  0 Multiplicity = 1

                         Standard orientation:
 ---------------------------------------------------------------------
 Center     Atomic      Atomic             Coordinates (Angstroms)
 Number     Number       Type             X           Y           Z
 ---------------------------------------------------------------------
      1          6           0       -3.061561    1.122158   -0.242691
      2          6           0       -2.008341    1.442063    0.818617
      3          6           0       -1.110920    2.616018    0.425858
      4          1           0       -2.558675    0.898998   -1.193612
      5          1           0       -3.678778    2.014307   -0.417353
      6          1           0       -1.394177    0.549159    0.992226
      7          1           0       -2.513784    1.664300    1.767170
      8          1           0       -1.706566    3.521640    0.272057
      9          1           0       -0.580597    2.400163   -0.507290
     10          1           0       -0.365354    2.827510    1.198686
     11          6           0       -3.966409   -0.049140    0.135515
     12          6           0       -5.019629   -0.369046   -0.925792
     13          6           0       -5.917050   -1.543001   -0.533034
     14          1           0       -3.349192   -0.941290    0.310178
     15          1           0       -4.469294    0.174019    1.086436
     16          1           0       -4.514185   -0.591283   -1.874345
     17          1           0       -5.633793    0.523859   -1.099401
     18          1           0       -6.447372   -1.327145    0.400115
     19          1           0       -5.321403   -2.448623   -0.379233
     20          1           0       -6.662616   -1.754492   -1.305861
     21          6           0        3.058259   -0.928655    0.524722
     22          6           0        1.580463   -0.855775    0.138989
     23          6           0        0.681395   -1.645222    1.090958
     24          1           0        3.374607   -1.980586    0.542345
     25          1           0        3.182156   -0.547814    1.547955
     26          1           0        1.459586   -1.235351   -0.883716
     27          1           0        1.267646    0.196117    0.122096
     28          1           0        0.772463   -1.262873    2.112779
     29          1           0        0.965494   -2.702475    1.101252
     30          1           0       -0.370705   -1.579491    0.796637
     31          6           0        3.969710   -0.144363   -0.417547
     32          6           0        5.447507   -0.217243   -0.031814
     33          6           0        6.346575    0.572205   -0.983783
     34          1           0        3.845814   -0.525202   -1.440779
     35          1           0        3.653363    0.907569   -0.435170
     36          1           0        5.760324   -1.269134   -0.014920
     37          1           0        5.568384    0.162334    0.990892
     38          1           0        6.062476    1.629457   -0.994076
     39          1           0        6.255507    0.189856   -2.005603
     40          1           0        7.398675    0.506475   -0.689461
 ---------------------------------------------------------------------

 SCF Done:  E(RHF) =  -470.732961736     A.U. after   11 cycles
 E2 =    -0.1583487889D+01 EUMP2 =    -0.47231644962448D+03

 The electronic state is 1-A.
 Alpha  occ. eigenvalues --  -11.21636 -11.21613 -11.21600 -11.21520 -11.21428
 Alpha  occ. eigenvalues --  -11.21401 -11.21368 -11.21336 -11.21128 -11.21078
 Alpha  occ. eigenvalues --  -11.21073 -11.21066  -1.08468  -1.08409  -1.03596
 Alpha  occ. eigenvalues --   -1.03485  -0.96027  -0.95965  -0.87054  -0.86970
 Alpha  occ. eigenvalues --   -0.79645  -0.79559  -0.78268  -0.78233  -0.65183
 Alpha  occ. eigenvalues --   -0.64989  -0.61172  -0.60769  -0.59446  -0.59251
 Alpha  occ. eigenvalues --   -0.57645  -0.57553  -0.55363  -0.55192  -0.52769
 Alpha  occ. eigenvalues --   -0.52637  -0.52459  -0.52381  -0.50021  -0.49853
 Alpha  occ. eigenvalues --   -0.47969  -0.47872  -0.46666  -0.46564  -0.45815
 Alpha  occ. eigenvalues --   -0.45767  -0.45720  -0.45665  -0.43799  -0.43762
 Alpha virt. eigenvalues --    0.20379   0.22939   0.23633   0.24449   0.25935
 Alpha virt. eigenvalues --    0.26447   0.26912   0.27531   0.28218   0.29026
 Alpha virt. eigenvalues --    0.31105   0.31472   0.31719   0.31970   0.32300

 Mulliken charges:
               1
     1  C   -0.297857
     2  C   -0.309583
     3  C   -0.476142
     4  H    0.149508
     5  H    0.149440
     6  H    0.163689
     7  H    0.151563
     8  H    0.155166
     9  H    0.155663
    10  H    0.159325
    11  C   -0.299909
    12  C   -0.299616
    13  C   -0.475734
    14  H    0.149884
    15  H    0.149953
    16  H    0.151948
    17  H    0.152076
    18  H    0.155220
    19  H    0.155238
    20  H    0.160244
    21  C   -0.298047
    22  C   -0.305201
    23  C   -0.479570
    24  H    0.149764
    25  H    0.149685
    26  H    0.151637
    27  H    0.157583
    28  H    0.155843
    29  H    0.156205
    30  H    0.161751
    31  C   -0.298446
    32  C   -0.299679
    33  C   -0.475747
    34  H    0.149443
    35  H    0.149998
    36  H    0.151939
    37  H    0.151993
    38  H    0.155315
    39  H    0.155162
    40  H    0.160298
 Sum of Mulliken charges =  -0.00000

 Dipole moment (field-independent basis, Debye):
    X=              0.0186    Y=             -0.0084    Z=              0.0074  Tot=              0.0217
 Quadrupole moment (field-independent basis, Debye-Ang):
   XX=            -85.4877   YY=            -84.6932   ZZ=            -84.6162
   XY=             -1.5062   XZ=              0.2079   YZ=              1.2113

 Normal termination of Gaussian 16 at Thu May  6 00:46:53 2021.
