 Gaussian 16, Revision A.03,
 Gaussian 16:  EM64L-G16RevA.03 25-Dec-2016

 -------------
 #p 6-31g* mp2
 -------------

 ------------------------------------------------------
 Input file generated by CHIRIPA (05-May-2021 14:51:10)
 ------------------------------------------------------
 Symbolic Z-matrix:
 Charge =  0 Multiplicity = 1

                         Standard orientation:
 ---------------------------------------------------------------------
 Center     Atomic      Atomic             Coordinates (Angstroms)
 Number     Number       Type             X           Y           Z
 ---------------------------------------------------------------------
      1          6           0        4.054536   -0.746212   -0.122029
      2          6           0        5.493920   -1.088338    0.264116
      3          6           0        5.744358   -2.594932    0.336571
      4          1           0        3.368594   -1.198728    0.607119
      5          1           0        3.824252   -1.204284   -1.093900
      6          1           0        5.721869   -0.628602    1.234322
      7          1           0        6.176525   -0.634794   -0.465928
      8          1           0        5.544151   -3.065722   -0.631352
      9          1           0        5.086912   -3.059495    1.078558
     10          1           0        6.779493   -2.816944    0.614180
     11          6           0        3.788629    0.756172   -0.198605
     12          6           0        2.349245    1.098298   -0.584750
     13          6           0        2.098808    2.604892   -0.657205
     14          1           0        4.018914    1.214244    0.773266
     15          1           0        4.474572    1.208689   -0.927753
     16          1           0        1.666641    0.644754    0.145294
     17          1           0        2.121297    0.638563   -1.554956
     18          1           0        2.756254    3.069456   -1.399192
     19          1           0        2.299015    3.075682    0.310718
     20          1           0        1.063673    2.826905   -0.934814
     21          6           0       -3.628097    0.637697    0.450599
     22          6           0       -2.112617    0.744423    0.277648
     23          6           0       -1.540250    2.035568    0.863428
     24          1           0       -4.107171    1.502959   -0.027685
     25          1           0       -3.873114    0.696377    1.520141
     26          1           0       -1.870423    0.684171   -0.791149
     27          1           0       -1.637108   -0.121292    0.756233
     28          1           0       -1.752918    2.099672    1.935465
     29          1           0       -1.987560    2.909710    0.379290
     30          1           0       -0.455515    2.091190    0.728824
     31          6           0       -4.215069   -0.647657   -0.129965
     32          6           0       -5.730550   -0.754384    0.042986
     33          6           0       -6.302916   -2.045528   -0.542794
     34          1           0       -3.970052   -0.706338   -1.199507
     35          1           0       -3.735995   -1.512920    0.348319
     36          1           0       -6.206058    0.111331   -0.435600
     37          1           0       -5.972742   -0.694131    1.111783
     38          1           0       -5.855606   -2.919671   -0.058656
     39          1           0       -6.090247   -2.109632   -1.614830
     40          1           0       -7.387650   -2.101150   -0.408190
 ---------------------------------------------------------------------

 SCF Done:  E(RHF) =  -470.732817348     A.U. after   11 cycles
 E2 =    -0.1582950771D+01 EUMP2 =    -0.47231576811925D+03

 The electronic state is 1-A.
 Alpha  occ. eigenvalues --  -11.21619 -11.21607 -11.21591 -11.21578 -11.21415
 Alpha  occ. eigenvalues --  -11.21388 -11.21355 -11.21329 -11.21075 -11.21063
 Alpha  occ. eigenvalues --  -11.21060 -11.20974  -1.08448  -1.08406  -1.03580
 Alpha  occ. eigenvalues --   -1.03476  -0.96058  -0.95896  -0.87069  -0.86915
 Alpha  occ. eigenvalues --   -0.79626  -0.79549  -0.78261  -0.78216  -0.65083
 Alpha  occ. eigenvalues --   -0.65043  -0.61007  -0.60911  -0.59715  -0.59067
 Alpha  occ. eigenvalues --   -0.57818  -0.57294  -0.55282  -0.55243  -0.52917
 Alpha  occ. eigenvalues --   -0.52530  -0.52446  -0.52151  -0.49933  -0.49892
 Alpha  occ. eigenvalues --   -0.47959  -0.47840  -0.46641  -0.46604  -0.45806
 Alpha  occ. eigenvalues --   -0.45752  -0.45721  -0.45689  -0.43879  -0.43654
 Alpha virt. eigenvalues --    0.21343   0.23067   0.23439   0.25274   0.26283
 Alpha virt. eigenvalues --    0.26711   0.27080   0.27366   0.27802   0.28991
 Alpha virt. eigenvalues --    0.30241   0.31416   0.31547   0.31683   0.32261

 Mulliken charges:
               1
     1  C   -0.298306
     2  C   -0.299680
     3  C   -0.475709
     4  H    0.149644
     5  H    0.149612
     6  H    0.151946
     7  H    0.151968
     8  H    0.155209
     9  H    0.155161
    10  H    0.160274
    11  C   -0.297998
    12  C   -0.303362
    13  C   -0.480621
    14  H    0.149595
    15  H    0.149821
    16  H    0.154427
    17  H    0.152340
    18  H    0.156298
    19  H    0.155275
    20  H    0.163637
    21  C   -0.298257
    22  C   -0.299271
    23  C   -0.485778
    24  H    0.149608
    25  H    0.149483
    26  H    0.151993
    27  H    0.151458
    28  H    0.154455
    29  H    0.154344
    30  H    0.172575
    31  C   -0.298220
    32  C   -0.299632
    33  C   -0.475688
    34  H    0.149491
    35  H    0.149578
    36  H    0.151917
    37  H    0.151885
    38  H    0.155155
    39  H    0.155164
    40  H    0.160211
 Sum of Mulliken charges =  -0.00000

 Dipole moment (field-independent basis, Debye):
    X=              0.0272    Y=              0.0052    Z=             -0.0094  Tot=              0.0292
 Quadrupole moment (field-independent basis, Debye-Ang):
   XX=            -85.2334   YY=            -86.4737   ZZ=            -83.1267
   XY=             -0.1841   XZ=             -0.3636   YZ=             -0.6834

 Normal termination of Gaussian 16 at Thu May  6 02:11:50 2021.
