 Gaussian 16, Revision A.03,
 Gaussian 16:  EM64L-G16RevA.03 25-Dec-2016

 -------------
 #p 6-31g* mp2
 -------------

 ------------------------------------------------------
 Input file generated by CHIRIPA (05-May-2021 14:57:24)
 ------------------------------------------------------
 Symbolic Z-matrix:
 Charge =  0 Multiplicity = 1

                         Standard orientation:
 ---------------------------------------------------------------------
 Center     Atomic      Atomic             Coordinates (Angstroms)
 Number     Number       Type             X           Y           Z
 ---------------------------------------------------------------------
      1          6           0       -3.407620   -2.084665   -0.098625
      2          6           0       -2.919168   -1.491120    1.069981
      3          6           0       -2.577534   -0.135580    1.088538
      4          6           0       -2.737696    0.599976   -0.084746
      5          6           0       -3.221803    0.037358   -1.264741
      6          6           0       -3.557115   -1.319880   -1.260209
      7          1           0       -3.670554   -3.138340   -0.104073
      8          1           0       -2.802031   -2.082619    1.973559
      9          1           0       -2.197142    0.349286    1.979395
     10          1           0       -3.327641    0.652739   -2.149909
     11          1           0       -3.936218   -1.778176   -2.169214
     12          7           0       -2.379370    2.035925   -0.077322
     13          8           0       -2.529700    2.662214   -1.124126
     14          8           0       -1.954968    2.507942    0.975161
     15          6           0        0.696585   -1.607618    0.723879
     16          6           0        1.168481   -0.569460    1.533854
     17          6           0        2.331055    0.126858    1.190178
     18          6           0        2.999789   -0.243020    0.024299
     19          6           0        2.554794   -1.272758   -0.803295
     20          6           0        1.390025   -1.955341   -0.440058
     21          1           0       -0.207383   -2.143199    0.998451
     22          1           0        0.631996   -0.297246    2.438359
     23          1           0        2.718588    0.934630    1.799062
     24          1           0        3.111183   -1.521276   -1.698888
     25          1           0        1.025872   -2.761163   -1.071002
     26          7           0        4.231716    0.486869   -0.349890
     27          8           0        4.802640    0.141728   -1.382148
     28          8           0        4.603049    1.390280    0.396166
 ---------------------------------------------------------------------

 SCF Done:  E(RHF) =  -868.335479923     A.U. after   16 cycles
 E2 =    -0.2603073786D+01 EUMP2 =    -0.87093855370905D+03

 The electronic state is 1-A.
 Alpha  occ. eigenvalues --  -20.61433 -20.61414 -20.60598 -20.60584 -15.86490
 Alpha  occ. eigenvalues --  -15.85654 -11.32089 -11.31070 -11.28777 -11.28653
 Alpha  occ. eigenvalues --  -11.28508 -11.27818 -11.27707 -11.27699 -11.27666
 Alpha  occ. eigenvalues --  -11.27411 -11.26728 -11.26718  -1.60491  -1.59668
 Alpha  occ. eigenvalues --   -1.40042  -1.39220  -1.20315  -1.19280  -1.09657
 Alpha  occ. eigenvalues --   -1.08675  -1.05773  -1.04700  -0.96447  -0.95490
 Alpha  occ. eigenvalues --   -0.87146  -0.86109  -0.83292  -0.82322  -0.78293
 Alpha  occ. eigenvalues --   -0.77351  -0.72707  -0.71875  -0.71814  -0.71410
 Alpha  occ. eigenvalues --   -0.70991  -0.70446  -0.65963  -0.65769  -0.64941
 Alpha  occ. eigenvalues --   -0.64757  -0.63094  -0.62047  -0.56234  -0.55506
 Alpha  occ. eigenvalues --   -0.53957  -0.53800  -0.52918  -0.52805  -0.49480
 Alpha  occ. eigenvalues --   -0.49447  -0.48639  -0.48619  -0.45398  -0.44614
 Alpha  occ. eigenvalues --   -0.38322  -0.37784  -0.36816  -0.36258
 Alpha virt. eigenvalues --    0.04227   0.05233   0.09978   0.11465   0.15611
 Alpha virt. eigenvalues --    0.16656   0.19475   0.22014   0.25315   0.26366
 Alpha virt. eigenvalues --    0.28162   0.29344   0.29751   0.30874   0.32410

 Mulliken charges:
               1
     1  C   -0.172795
     2  C   -0.232901
     3  C   -0.167375
     4  C    0.163088
     5  C   -0.168299
     6  C   -0.218606
     7  H    0.227521
     8  H    0.222452
     9  H    0.273517
    10  H    0.279762
    11  H    0.226817
    12  N    0.488638
    13  O   -0.455909
    14  O   -0.460297
    15  C   -0.166464
    16  C   -0.221614
    17  C   -0.167100
    18  C    0.157854
    19  C   -0.169995
    20  C   -0.221850
    21  H    0.223038
    22  H    0.218706
    23  H    0.278651
    24  H    0.275085
    25  H    0.219702
    26  N    0.488314
    27  O   -0.461373
    28  O   -0.458567
 Sum of Mulliken charges =  -0.00000

 Dipole moment (field-independent basis, Debye):
    X=             -5.7391    Y=             -7.3779    Z=              1.1171  Tot=              9.4137
 Quadrupole moment (field-independent basis, Debye-Ang):
   XX=           -124.4742   YY=           -109.2659   ZZ=            -97.1076
   XY=              6.1237   XZ=              5.6426   YZ=              2.4861

 Normal termination of Gaussian 16 at Wed May  5 19:27:00 2021.
