 Gaussian 16, Revision A.03,
 Gaussian 16:  EM64L-G16RevA.03 25-Dec-2016

 -------------
 #p 6-31g* mp2
 -------------

 ------------------------------------------------------
 Input file generated by CHIRIPA (05-May-2021 14:57:26)
 ------------------------------------------------------
 Symbolic Z-matrix:
 Charge =  0 Multiplicity = 1

                         Standard orientation:
 ---------------------------------------------------------------------
 Center     Atomic      Atomic             Coordinates (Angstroms)
 Number     Number       Type             X           Y           Z
 ---------------------------------------------------------------------
      1          6           0        2.187642    2.671962   -0.726812
      2          6           0        3.218797    2.283322    0.134698
      3          6           0        3.419275    0.933507    0.438601
      4          6           0        2.566093   -0.005328   -0.139291
      5          6           0        1.529909    0.350457   -1.001282
      6          6           0        1.347970    1.705992   -1.291058
      7          1           0        2.039107    3.722752   -0.957404
      8          1           0        3.872433    3.031325    0.574353
      9          1           0        4.209779    0.604904    1.102334
     10          1           0        0.894506   -0.418175   -1.424232
     11          1           0        0.546345    2.004909   -1.960455
     12          7           0        2.768517   -1.437345    0.174960
     13          8           0        2.003209   -2.245055   -0.347098
     14          8           0        3.688653   -1.724934    0.937377
     15          6           0       -3.345323    2.113193    0.651360
     16          6           0       -3.843660    1.402273   -0.445351
     17          6           0       -3.400587    0.102964   -0.709986
     18          6           0       -2.454173   -0.457283    0.146586
     19          6           0       -1.938681    0.225439    1.247243
     20          6           0       -2.396097    1.523546    1.492674
     21          1           0       -3.695084    3.122060    0.849475
     22          1           0       -4.580904    1.857681   -1.100424
     23          1           0       -3.769628   -0.469981   -1.551984
     24          1           0       -1.204419   -0.255074    1.882369
     25          1           0       -2.007327    2.073289    2.345132
     26          7           0       -1.977519   -1.832167   -0.123406
     27          8           0       -1.143170   -2.303339    0.646332
     28          8           0       -2.447291   -2.412594   -1.099651
 ---------------------------------------------------------------------

 SCF Done:  E(RHF) =  -868.335494446     A.U. after   16 cycles
 E2 =    -0.2602554432D+01 EUMP2 =    -0.87093804887847D+03

 The electronic state is 1-A.
 Alpha  occ. eigenvalues --  -20.60671 -20.60550 -20.60219 -20.60074 -15.85657
 Alpha  occ. eigenvalues --  -15.85195 -11.31351 -11.30964 -11.27962 -11.27923
 Alpha  occ. eigenvalues --  -11.27742 -11.27577 -11.27548 -11.27396 -11.27032
 Alpha  occ. eigenvalues --  -11.26997 -11.26687 -11.26665  -1.59686  -1.59217
 Alpha  occ. eigenvalues --   -1.39227  -1.38753  -1.19555  -1.19172  -1.08890
 Alpha  occ. eigenvalues --   -1.08497  -1.04985  -1.04624  -0.95664  -0.95262
 Alpha  occ. eigenvalues --   -0.86368  -0.86002  -0.82480  -0.82080  -0.77484
 Alpha  occ. eigenvalues --   -0.77061  -0.71875  -0.71431  -0.71044  -0.70640
 Alpha  occ. eigenvalues --   -0.70515  -0.70267  -0.65182  -0.64974  -0.64805
 Alpha  occ. eigenvalues --   -0.64625  -0.62315  -0.61958  -0.55473  -0.55126
 Alpha  occ. eigenvalues --   -0.53389  -0.53070  -0.52879  -0.52716  -0.48645
 Alpha  occ. eigenvalues --   -0.48612  -0.48213  -0.48156  -0.44687  -0.43880
 Alpha  occ. eigenvalues --   -0.37599  -0.37174  -0.36713  -0.36116
 Alpha virt. eigenvalues --    0.04983   0.05511   0.10879   0.11540   0.16445
 Alpha virt. eigenvalues --    0.16918   0.21192   0.21458   0.27104   0.27267
 Alpha virt. eigenvalues --    0.28075   0.28307   0.30589   0.31073   0.32333

 Mulliken charges:
               1
     1  C   -0.173505
     2  C   -0.219302
     3  C   -0.172718
     4  C    0.158415
     5  C   -0.174010
     6  C   -0.217347
     7  H    0.222500
     8  H    0.221668
     9  H    0.275530
    10  H    0.279020
    11  H    0.222028
    12  N    0.486514
    13  O   -0.443987
    14  O   -0.465495
    15  C   -0.173257
    16  C   -0.220046
    17  C   -0.174353
    18  C    0.153907
    19  C   -0.170230
    20  C   -0.218282
    21  H    0.224603
    22  H    0.222972
    23  H    0.276193
    24  H    0.278402
    25  H    0.223626
    26  N    0.484871
    27  O   -0.445617
    28  O   -0.462103
 Sum of Mulliken charges =  -0.00000

 Dipole moment (field-independent basis, Debye):
    X=             -2.3982    Y=              9.5295    Z=             -0.0918  Tot=              9.8270
 Quadrupole moment (field-independent basis, Debye-Ang):
   XX=            -97.0878   YY=           -110.1079   ZZ=           -100.1565
   XY=              2.8101   XZ=             -0.1809   YZ=              0.6457

 Normal termination of Gaussian 16 at Thu May  6 11:30:30 2021.
