 Gaussian 16, Revision A.03,
 Gaussian 16:  EM64L-G16RevA.03 25-Dec-2016

 -------------
 #p 6-31g* mp2
 -------------

 ------------------------------------------------------
 Input file generated by CHIRIPA (05-May-2021 14:53:14)
 ------------------------------------------------------
 Symbolic Z-matrix:
 Charge =  0 Multiplicity = 1

                         Standard orientation:
 ---------------------------------------------------------------------
 Center     Atomic      Atomic             Coordinates (Angstroms)
 Number     Number       Type             X           Y           Z
 ---------------------------------------------------------------------
      1          6           0       -3.520273    0.606933    0.112296
      2          6           0       -3.497907    2.132796    0.016238
      3          6           0       -2.102012    2.718291    0.231799
      4          1           0       -3.141466    0.302322    1.097518
      5          1           0       -2.827658    0.189475   -0.631619
      6          1           0       -4.191395    2.547206    0.759175
      7          1           0       -3.876992    2.433816   -0.968799
      8          1           0       -1.402651    2.332647   -0.517050
      9          1           0       -1.718840    2.446681    1.220742
     10          1           0       -2.109041    3.810303    0.158862
     11          6           0       -4.908822    0.006784   -0.100967
     12          6           0       -4.931188   -1.519079   -0.004909
     13          6           0       -6.327084   -2.104574   -0.220470
     14          1           0       -5.601437    0.424241    0.642947
     15          1           0       -5.287630    0.311395   -1.086189
     16          1           0       -4.552104   -1.820100    0.980127
     17          1           0       -4.237701   -1.933490   -0.747846
     18          1           0       -6.710256   -1.832965   -1.209414
     19          1           0       -7.026445   -1.718930    0.528378
     20          1           0       -6.320055   -3.196586   -0.147534
     21          6           0        0.771694   -0.207693    0.094823
     22          6           0        1.479084    0.980405   -0.116226
     23          6           0        2.875968    0.974514   -0.173035
     24          6           0        3.536329   -0.242831   -0.014021
     25          6           0        2.859833   -1.443184    0.197627
     26          6           0        1.463108   -1.413571    0.250801
     27          1           0       -0.313378   -0.193903    0.137542
     28          1           0        0.944760    1.918376   -0.237693
     29          1           0        3.448572    1.879634   -0.335209
     30          1           0        3.420260   -2.362704    0.315193
     31          1           0        0.916355   -2.337801    0.414830
     32          7           0        5.015064   -0.261625   -0.072237
     33          8           0        5.573383   -1.347189    0.070827
     34          8           0        5.587777    0.809564   -0.259830
 ---------------------------------------------------------------------

 SCF Done:  E(RHF) =  -669.535429124     A.U. after   15 cycles
 E2 =    -0.2092080575D+01 EUMP2 =    -0.67162750969895D+03

 The electronic state is 1-A.
 Alpha  occ. eigenvalues --  -20.60670 -20.60665 -15.85722 -11.31058 -11.27629
 Alpha  occ. eigenvalues --  -11.27614 -11.27294 -11.26628 -11.26566 -11.22775
 Alpha  occ. eigenvalues --  -11.22655 -11.22477 -11.22464 -11.22338 -11.21765
 Alpha  occ. eigenvalues --   -1.59746  -1.39301  -1.19222  -1.09522  -1.08615
 Alpha  occ. eigenvalues --   -1.04636  -1.04563  -0.97054  -0.95458  -0.88077
 Alpha  occ. eigenvalues --   -0.86018  -0.82295  -0.80671  -0.79343  -0.77351
 Alpha  occ. eigenvalues --   -0.71941  -0.71070  -0.70318  -0.66141  -0.64871
 Alpha  occ. eigenvalues --   -0.64653  -0.62076  -0.61873  -0.60420  -0.58644
 Alpha  occ. eigenvalues --   -0.56353  -0.55116  -0.53707  -0.53516  -0.52954
 Alpha  occ. eigenvalues --   -0.52663  -0.50975  -0.48956  -0.48698  -0.48686
 Alpha  occ. eigenvalues --   -0.47680  -0.46852  -0.46766  -0.44836  -0.44713
 Alpha  occ. eigenvalues --   -0.37193  -0.36231
 Alpha virt. eigenvalues --    0.05175   0.11385   0.16661   0.19752   0.22222
 Alpha virt. eigenvalues --    0.23613   0.25127   0.25447   0.25896   0.27952
 Alpha virt. eigenvalues --    0.29529   0.29566   0.30661   0.31000   0.31554

 Mulliken charges:
               1
     1  C   -0.305008
     2  C   -0.299152
     3  C   -0.484969
     4  H    0.149149
     5  H    0.145797
     6  H    0.157369
     7  H    0.156454
     8  H    0.149110
     9  H    0.157647
    10  H    0.167626
    11  C   -0.298067
    12  C   -0.300805
    13  C   -0.476261
    14  H    0.153085
    15  H    0.152846
    16  H    0.151602
    17  H    0.150662
    18  H    0.156964
    19  H    0.157009
    20  H    0.162261
    21  C   -0.179161
    22  C   -0.225626
    23  C   -0.171268
    24  C    0.158372
    25  C   -0.171045
    26  C   -0.220437
    27  H    0.235943
    28  H    0.230143
    29  H    0.275256
    30  H    0.274975
    31  H    0.223175
    32  N    0.487977
    33  O   -0.460859
    34  O   -0.460765
 Sum of Mulliken charges =  -0.00000

 Dipole moment (field-independent basis, Debye):
    X=             -5.5855    Y=              0.1478    Z=              0.2220  Tot=              5.5919
 Quadrupole moment (field-independent basis, Debye-Ang):
   XX=           -131.8538   YY=            -89.8041   ZZ=            -94.5255
   XY=              0.7950   XZ=              0.4850   YZ=             -0.8899

 Normal termination of Gaussian 16 at Thu May  6 17:06:49 2021.
