 Gaussian 16, Revision A.03,
 Gaussian 16:  EM64L-G16RevA.03 25-Dec-2016

 -------------
 #p 6-31g* mp2
 -------------

 ------------------------------------------------------
 Input file generated by CHIRIPA (05-May-2021 14:57:22)
 ------------------------------------------------------
 Symbolic Z-matrix:
 Charge =  0 Multiplicity = 1

                         Standard orientation:
 ---------------------------------------------------------------------
 Center     Atomic      Atomic             Coordinates (Angstroms)
 Number     Number       Type             X           Y           Z
 ---------------------------------------------------------------------
      1          6           0       -6.057205    0.532198    0.251989
      2          6           0       -5.567301    0.037143   -0.961039
      3          6           0       -4.205917   -0.240234   -1.116739
      4          6           0       -3.358896   -0.009782   -0.033809
      5          6           0       -3.816659    0.482748    1.187320
      6          6           0       -5.181863    0.753031    1.320413
      7          1           0       -7.116244    0.744916    0.364159
      8          1           0       -6.244781   -0.135324   -1.792496
      9          1           0       -3.799880   -0.624112   -2.044742
     10          1           0       -3.116849    0.644507    1.998195
     11          1           0       -5.559522    1.137432    2.263628
     12          7           0       -1.915638   -0.299673   -0.186675
     13          8           0       -1.190067   -0.088062    0.782554
     14          8           0       -1.537311   -0.733012   -1.272826
     15          6           0        4.661138    2.236805   -0.232858
     16          6           0        5.445456    1.129438    0.106412
     17          6           0        4.866400   -0.135715    0.242906
     18          6           0        3.493863   -0.257915    0.031960
     19          6           0        2.685769    0.826221   -0.307042
     20          6           0        3.286222    2.081935   -0.438141
     21          1           0        5.119274    3.215939   -0.336796
     22          1           0        6.513482    1.246743    0.266431
     23          1           0        5.450070   -1.009908    0.504695
     24          1           0        1.623713    0.678002   -0.460300
     25          1           0        2.674644    2.940159   -0.701713
     26          7           0        2.869516   -1.592279    0.173605
     27          8           0        1.658110   -1.673527   -0.017522
     28          8           0        3.603382   -2.531640    0.473069
 ---------------------------------------------------------------------

 SCF Done:  E(RHF) =  -868.337054764     A.U. after   16 cycles
 E2 =    -0.2600779182D+01 EUMP2 =    -0.87093783394638D+03

 The electronic state is 1-A.
 Alpha  occ. eigenvalues --  -20.60505 -20.60495 -20.59255 -20.59100 -15.85532
 Alpha  occ. eigenvalues --  -15.84226 -11.31028 -11.29878 -11.27610 -11.27599
 Alpha  occ. eigenvalues --  -11.27373 -11.26649 -11.26638 -11.26594 -11.26406
 Alpha  occ. eigenvalues --  -11.26347 -11.25672 -11.25581  -1.59539  -1.58272
 Alpha  occ. eigenvalues --   -1.39096  -1.37799  -1.19206  -1.18115  -1.08576
 Alpha  occ. eigenvalues --   -1.07480  -1.04627  -1.03556  -0.95388  -0.94247
 Alpha  occ. eigenvalues --   -0.86019  -0.84941  -0.82221  -0.81065  -0.77250
 Alpha  occ. eigenvalues --   -0.76033  -0.71721  -0.70887  -0.70442  -0.70307
 Alpha  occ. eigenvalues --   -0.69612  -0.69224  -0.64856  -0.64628  -0.63760
 Alpha  occ. eigenvalues --   -0.63579  -0.61971  -0.60868  -0.55121  -0.54100
 Alpha  occ. eigenvalues --   -0.52951  -0.52719  -0.51894  -0.51653  -0.48521
 Alpha  occ. eigenvalues --   -0.48458  -0.47277  -0.47087  -0.44481  -0.43130
 Alpha  occ. eigenvalues --   -0.37197  -0.36236  -0.36159  -0.35176
 Alpha virt. eigenvalues --    0.05264   0.06477   0.11417   0.12472   0.16733
 Alpha virt. eigenvalues --    0.17882   0.21533   0.22532   0.27444   0.28345
 Alpha virt. eigenvalues --    0.28480   0.29531   0.31074   0.32036   0.32683

 Mulliken charges:
               1
     1  C   -0.171155
     2  C   -0.218587
     3  C   -0.171098
     4  C    0.158909
     5  C   -0.171325
     6  C   -0.218573
     7  H    0.224971
     8  H    0.223088
     9  H    0.276144
    10  H    0.275299
    11  H    0.222800
    12  N    0.487165
    13  O   -0.457981
    14  O   -0.454666
    15  C   -0.171776
    16  C   -0.219900
    17  C   -0.171987
    18  C    0.155016
    19  C   -0.172449
    20  C   -0.220882
    21  H    0.220264
    22  H    0.218419
    23  H    0.272287
    24  H    0.294382
    25  H    0.219383
    26  N    0.484906
    27  O   -0.440583
    28  O   -0.472072
 Sum of Mulliken charges =  -0.00000

 Dipole moment (field-independent basis, Debye):
    X=             -3.3770    Y=              5.5598    Z=             -0.0102  Tot=              6.5050
 Quadrupole moment (field-independent basis, Debye-Ang):
   XX=            -54.7018   YY=           -108.0233   ZZ=           -101.1336
   XY=             10.8046   XZ=             -1.3785   YZ=              1.4986

 Normal termination of Gaussian 16 at Thu May  6 17:54:02 2021.
