 Gaussian 16, Revision A.03,
 Gaussian 16:  EM64L-G16RevA.03 25-Dec-2016

 -------------
 #p 6-31g* mp2
 -------------

 ------------------------------------------------------
 Input file generated by CHIRIPA (05-May-2021 14:57:24)
 ------------------------------------------------------
 Symbolic Z-matrix:
 Charge =  0 Multiplicity = 1

                         Standard orientation:
 ---------------------------------------------------------------------
 Center     Atomic      Atomic             Coordinates (Angstroms)
 Number     Number       Type             X           Y           Z
 ---------------------------------------------------------------------
      1          6           0       -5.846064   -0.101680    0.704003
      2          6           0       -5.202213   -1.337399    0.581620
      3          6           0       -3.907116   -1.414713    0.060759
      4          6           0       -3.282646   -0.231111   -0.329643
      5          6           0       -3.897732    1.015077   -0.220220
      6          6           0       -5.192920    1.068550    0.303398
      7          1           0       -6.852162   -0.050881    1.109691
      8          1           0       -5.707023   -2.247850    0.891928
      9          1           0       -3.385375   -2.358118   -0.045023
     10          1           0       -3.368907    1.905438   -0.538057
     11          1           0       -5.690502    2.029614    0.397285
     12          7           0       -1.911537   -0.300341   -0.882515
     13          8           0       -1.382994    0.756954   -1.219277
     14          8           0       -1.391366   -1.410586   -0.968624
     15          6           0        1.402271    1.510221    0.752110
     16          6           0        2.005067    0.730512    1.744688
     17          6           0        3.172347    0.011277    1.471365
     18          6           0        3.712255    0.094939    0.188871
     19          6           0        3.135156    0.862969   -0.821264
     20          6           0        1.968241    1.573849   -0.525447
     21          1           0        0.495641    2.065695    0.973170
     22          1           0        1.567744    0.679224    2.737746
     23          1           0        3.659731   -0.600122    2.221076
     24          1           0        3.594472    0.894343   -1.801807
     25          1           0        1.502273    2.178565   -1.298258
     26          7           0        4.947809   -0.662061   -0.112390
     27          8           0        5.403737   -0.571678   -1.250195
     28          8           0        5.436913   -1.331445    0.794989
 ---------------------------------------------------------------------

 SCF Done:  E(RHF) =  -868.338778048     A.U. after   16 cycles
 E2 =    -0.2599850208D+01 EUMP2 =    -0.87093862825645D+03

 The electronic state is 1-A.
 Alpha  occ. eigenvalues --  -20.61660 -20.61590 -20.59791 -20.59777 -15.86657
 Alpha  occ. eigenvalues --  -15.84831 -11.31899 -11.29974 -11.28480 -11.28410
 Alpha  occ. eigenvalues --  -11.28138 -11.27436 -11.27393 -11.26573 -11.26442
 Alpha  occ. eigenvalues --  -11.26182 -11.25582 -11.25353  -1.60681  -1.58865
 Alpha  occ. eigenvalues --   -1.40247  -1.38426  -1.20051  -1.18109  -1.09465
 Alpha  occ. eigenvalues --   -1.07541  -1.05432  -1.03487  -0.96325  -0.94424
 Alpha  occ. eigenvalues --   -0.86835  -0.84896  -0.83164  -0.81274  -0.78232
 Alpha  occ. eigenvalues --   -0.76354  -0.72899  -0.72007  -0.71149  -0.71061
 Alpha  occ. eigenvalues --   -0.70180  -0.69227  -0.65705  -0.65425  -0.63771
 Alpha  occ. eigenvalues --   -0.63494  -0.62782  -0.60857  -0.55922  -0.54007
 Alpha  occ. eigenvalues --   -0.53769  -0.53517  -0.51829  -0.51594  -0.49642
 Alpha  occ. eigenvalues --   -0.49594  -0.47825  -0.47795  -0.45674  -0.43883
 Alpha  occ. eigenvalues --   -0.38021  -0.37033  -0.36014  -0.35043
 Alpha virt. eigenvalues --    0.04263   0.06187   0.10621   0.12607   0.15801
 Alpha virt. eigenvalues --    0.17749   0.20774   0.22592   0.26692   0.27581
 Alpha virt. eigenvalues --    0.28521   0.29286   0.30512   0.31721   0.32411

 Mulliken charges:
               1
     1  C   -0.170315
     2  C   -0.218390
     3  C   -0.170641
     4  C    0.157694
     5  C   -0.172651
     6  C   -0.218286
     7  H    0.227890
     8  H    0.226087
     9  H    0.277869
    10  H    0.271929
    11  H    0.224640
    12  N    0.489483
    13  O   -0.470275
    14  O   -0.452310
    15  C   -0.164369
    16  C   -0.220020
    17  C   -0.171862
    18  C    0.158663
    19  C   -0.172565
    20  C   -0.202229
    21  H    0.221098
    22  H    0.216117
    23  H    0.270725
    24  H    0.272704
    25  H    0.227721
    26  N    0.488343
    27  O   -0.462482
    28  O   -0.464570
 Sum of Mulliken charges =  -0.00000

 Dipole moment (field-independent basis, Debye):
    X=             -9.6482    Y=              2.8434    Z=              2.8413  Tot=             10.4521
 Quadrupole moment (field-independent basis, Debye-Ang):
   XX=           -107.1961   YY=            -99.4083   ZZ=           -102.4808
   XY=             10.2857   XZ=             -2.3210   YZ=             -2.5696

 Normal termination of Gaussian 16 at Thu May  6 05:04:23 2021.
