 Gaussian 16, Revision A.03,
 Gaussian 16:  EM64L-G16RevA.03 25-Dec-2016

 -------------
 #p 6-31g* mp2
 -------------

 ------------------------------------------------------
 Input file generated by CHIRIPA (05-May-2021 14:55:21)
 ------------------------------------------------------
 Symbolic Z-matrix:
 Charge =  0 Multiplicity = 1

                         Standard orientation:
 ---------------------------------------------------------------------
 Center     Atomic      Atomic             Coordinates (Angstroms)
 Number     Number       Type             X           Y           Z
 ---------------------------------------------------------------------
      1          6           0        4.033315   -1.898061    0.627801
      2          6           0        2.943057   -1.823146   -0.245265
      3          6           0        2.412910   -0.583285   -0.614367
      4          6           0        3.000278    0.566702   -0.089181
      5          6           0        4.087177    0.524837    0.782707
      6          6           0        4.600895   -0.725897    1.138101
      7          1           0        4.438765   -2.865439    0.909204
      8          1           0        2.500244   -2.731811   -0.643121
      9          1           0        1.569439   -0.496368   -1.288474
     10          1           0        4.507277    1.448054    1.162973
     11          1           0        5.447664   -0.781046    1.816323
     12          7           0        2.447731    1.885043   -0.472677
     13          8           0        2.983200    2.883480    0.003805
     14          8           0        1.489639    1.894959   -1.242481
     15          6           0       -3.232488   -0.640309    0.179410
     16          6           0       -2.696270   -1.730345   -0.749178
     17          6           0       -1.245771   -2.105736   -0.444334
     18          1           0       -2.595884    0.250984    0.094096
     19          1           0       -3.152483   -0.983090    1.220321
     20          1           0       -2.778543   -1.386165   -1.788114
     21          1           0       -3.334337   -2.619080   -0.661786
     22          1           0       -1.150769   -2.474059    0.582269
     23          1           0       -0.591817   -1.234139   -0.550458
     24          1           0       -0.882685   -2.886552   -1.119874
     25          6           0       -4.681352   -0.254215   -0.112912
     26          6           0       -5.217571    0.835821    0.815676
     27          6           0       -6.668069    1.211212    0.510833
     28          1           0       -4.761358    0.088566   -1.153822
     29          1           0       -5.317956   -1.145507   -0.027597
     30          1           0       -4.579503    1.724556    0.728284
     31          1           0       -5.135298    0.491640    1.854612
     32          1           0       -7.322024    0.339615    0.616956
     33          1           0       -6.763071    1.579535   -0.515770
     34          1           0       -7.031156    1.992028    1.186372
 ---------------------------------------------------------------------

 SCF Done:  E(RHF) =  -669.535504236     A.U. after   15 cycles
 E2 =    -0.2091345383D+01 EUMP2 =    -0.67162684961900D+03

 The electronic state is 1-A.
 Alpha  occ. eigenvalues --  -20.60781 -20.60773 -15.85831 -11.31162 -11.27734
 Alpha  occ. eigenvalues --  -11.27703 -11.27469 -11.26749 -11.26722 -11.21735
 Alpha  occ. eigenvalues --  -11.21498 -11.21407 -11.21307 -11.21231 -11.20886
 Alpha  occ. eigenvalues --   -1.59854  -1.39409  -1.19336  -1.08737  -1.08375
 Alpha  occ. eigenvalues --   -1.04734  -1.03544  -0.96022  -0.95576  -0.87051
 Alpha  occ. eigenvalues --   -0.86134  -0.82408  -0.79618  -0.78159  -0.77456
 Alpha  occ. eigenvalues --   -0.72051  -0.71175  -0.70458  -0.65019  -0.64981
 Alpha  occ. eigenvalues --   -0.64731  -0.62125  -0.60913  -0.59404  -0.57610
 Alpha  occ. eigenvalues --   -0.55389  -0.55165  -0.53098  -0.52853  -0.52736
 Alpha  occ. eigenvalues --   -0.52387  -0.49938  -0.48808  -0.48804  -0.47923
 Alpha  occ. eigenvalues --   -0.46613  -0.45712  -0.45603  -0.44819  -0.43786
 Alpha  occ. eigenvalues --   -0.37318  -0.36312
 Alpha virt. eigenvalues --    0.05041   0.11264   0.16541   0.20816   0.22984
 Alpha virt. eigenvalues --    0.24159   0.26159   0.26754   0.27359   0.28042
 Alpha virt. eigenvalues --    0.29424   0.29516   0.31454   0.31763   0.32325

 Mulliken charges:
               1
     1  C   -0.171046
     2  C   -0.218657
     3  C   -0.171893
     4  C    0.158238
     5  C   -0.171108
     6  C   -0.218401
     7  H    0.225519
     8  H    0.225132
     9  H    0.277965
    10  H    0.275408
    11  H    0.223298
    12  N    0.488233
    13  O   -0.460194
    14  O   -0.461795
    15  C   -0.300614
    16  C   -0.298569
    17  C   -0.482562
    18  H    0.157429
    19  H    0.148207
    20  H    0.154584
    21  H    0.151599
    22  H    0.156426
    23  H    0.157654
    24  H    0.153596
    25  C   -0.298554
    26  C   -0.300358
    27  C   -0.475806
    28  H    0.151112
    29  H    0.148086
    30  H    0.155654
    31  H    0.150954
    32  H    0.153958
    33  H    0.155944
    34  H    0.160560
 Sum of Mulliken charges =  -0.00000

 Dipole moment (field-independent basis, Debye):
    X=              1.9026    Y=             -4.5825    Z=              1.3698  Tot=              5.1474
 Quadrupole moment (field-independent basis, Debye-Ang):
   XX=            -81.9427   YY=            -99.3384   ZZ=            -93.5885
   XY=            -10.8522   XZ=              6.0221   YZ=              2.1675

 Normal termination of Gaussian 16 at Thu May  6 17:31:39 2021.
