 Gaussian 16, Revision A.03,
 Gaussian 16:  EM64L-G16RevA.03 25-Dec-2016

 -------------
 #p 6-31g* mp2
 -------------

 ------------------------------------------------------
 Input file generated by CHIRIPA (05-May-2021 14:57:24)
 ------------------------------------------------------
 Symbolic Z-matrix:
 Charge =  0 Multiplicity = 1

                         Standard orientation:
 ---------------------------------------------------------------------
 Center     Atomic      Atomic             Coordinates (Angstroms)
 Number     Number       Type             X           Y           Z
 ---------------------------------------------------------------------
      1          6           0       -3.086558    2.526866    0.697895
      2          6           0       -3.519157    2.160041   -0.580705
      3          6           0       -3.459437    0.826104   -0.994944
      4          6           0       -2.959241   -0.119272   -0.100876
      5          6           0       -2.520609    0.214909    1.179443
      6          6           0       -2.589541    1.554843    1.572347
      7          1           0       -3.136527    3.565430    1.011399
      8          1           0       -3.905609    2.912793   -1.261927
      9          1           0       -3.787615    0.514506   -1.979131
     10          1           0       -2.140253   -0.557960    1.836269
     11          1           0       -2.252874    1.836829    2.565918
     12          7           0       -2.891142   -1.534625   -0.528118
     13          8           0       -2.446350   -2.348517    0.278341
     14          8           0       -3.283848   -1.803288   -1.661361
     15          6           0        4.498655    1.780538   -0.633839
     16          6           0        3.133262    2.016640   -0.442848
     17          6           0        2.277185    0.974455   -0.074703
     18          6           0        2.822724   -0.297152    0.094683
     19          6           0        4.178670   -0.564080   -0.088213
     20          6           0        5.016090    0.493202   -0.456225
     21          1           0        5.156430    2.595997   -0.919772
     22          1           0        2.728640    3.015386   -0.580086
     23          1           0        1.216235    1.129272    0.079679
     24          1           0        4.552773   -1.570397    0.055976
     25          1           0        6.076063    0.306911   -0.603867
     26          7           0        1.926310   -1.408458    0.484352
     27          8           0        2.431620   -2.519697    0.627349
     28          8           0        0.735365   -1.147218    0.639399
 ---------------------------------------------------------------------

 SCF Done:  E(RHF) =  -868.336957780     A.U. after   16 cycles
 E2 =    -0.2600943799D+01 EUMP2 =    -0.87093790157856D+03

 The electronic state is 1-A.
 Alpha  occ. eigenvalues --  -20.60654 -20.60614 -20.59796 -20.59660 -15.85703
 Alpha  occ. eigenvalues --  -15.84785 -11.31184 -11.30458 -11.27785 -11.27750
 Alpha  occ. eigenvalues --  -11.27539 -11.27166 -11.27014 -11.27006 -11.26835
 Alpha  occ. eigenvalues --  -11.26794 -11.26254 -11.26192  -1.59700  -1.58790
 Alpha  occ. eigenvalues --   -1.39259  -1.38331  -1.19370  -1.18708  -1.08741
 Alpha  occ. eigenvalues --   -1.08057  -1.04794  -1.04158  -0.95556  -0.94825
 Alpha  occ. eigenvalues --   -0.86187  -0.85537  -0.82395  -0.81657  -0.77429
 Alpha  occ. eigenvalues --   -0.76616  -0.71941  -0.71037  -0.71011  -0.70483
 Alpha  occ. eigenvalues --   -0.70077  -0.69824  -0.65027  -0.64800  -0.64356
 Alpha  occ. eigenvalues --   -0.64171  -0.62142  -0.61472  -0.55290  -0.54699
 Alpha  occ. eigenvalues --   -0.53115  -0.52897  -0.52484  -0.52248  -0.48666
 Alpha  occ. eigenvalues --   -0.48652  -0.47813  -0.47718  -0.44657  -0.43633
 Alpha  occ. eigenvalues --   -0.37358  -0.36747  -0.36405  -0.35771
 Alpha virt. eigenvalues --    0.05113   0.05928   0.11247   0.11873   0.16574
 Alpha virt. eigenvalues --    0.17314   0.21338   0.21932   0.27223   0.27797
 Alpha virt. eigenvalues --    0.28226   0.28908   0.30834   0.31426   0.32387

 Mulliken charges:
               1
     1  C   -0.174221
     2  C   -0.221055
     3  C   -0.172600
     4  C    0.158186
     5  C   -0.159987
     6  C   -0.225709
     7  H    0.220921
     8  H    0.219453
     9  H    0.273894
    10  H    0.286188
    11  H    0.220954
    12  N    0.488510
    13  O   -0.445727
    14  O   -0.468328
    15  C   -0.171061
    16  C   -0.218582
    17  C   -0.172491
    18  C    0.158910
    19  C   -0.170576
    20  C   -0.218455
    21  H    0.224997
    22  H    0.221184
    23  H    0.273998
    24  H    0.276749
    25  H    0.223709
    26  N    0.490847
    27  O   -0.455752
    28  O   -0.463956
 Sum of Mulliken charges =  -0.00000

 Dipole moment (field-independent basis, Debye):
    X=              3.1042    Y=              8.4750    Z=              0.2640  Tot=              9.0295
 Quadrupole moment (field-independent basis, Debye-Ang):
   XX=            -83.4103   YY=           -107.3041   ZZ=           -102.6169
   XY=             -7.4335   XZ=             -6.5617   YZ=             -1.4850

 Normal termination of Gaussian 16 at Wed May  5 21:05:39 2021.
