 Gaussian 16, Revision A.03,
 Gaussian 16:  EM64L-G16RevA.03 25-Dec-2016

 -------------
 #p 6-31g* mp2
 -------------

 ------------------------------------------------------
 Input file generated by CHIRIPA (05-May-2021 14:57:21)
 ------------------------------------------------------
 Symbolic Z-matrix:
 Charge =  0 Multiplicity = 1

                         Standard orientation:
 ---------------------------------------------------------------------
 Center     Atomic      Atomic             Coordinates (Angstroms)
 Number     Number       Type             X           Y           Z
 ---------------------------------------------------------------------
      1          6           0        4.996809   -1.830126    0.449159
      2          6           0        5.586245   -0.727805   -0.178514
      3          6           0        4.850356    0.439861   -0.401161
      4          6           0        3.521415    0.470781    0.018659
      5          6           0        2.905909   -0.610917    0.646651
      6          6           0        3.660877   -1.768273    0.859016
      7          1           0        5.575875   -2.733192    0.618123
      8          1           0        6.623555   -0.773001   -0.497875
      9          1           0        5.281764    1.307863   -0.884769
     10          1           0        1.869841   -0.535938    0.953827
     11          1           0        3.200502   -2.622817    1.346718
     12          7           0        2.732263    1.701479   -0.211604
     13          8           0        1.563176    1.703455    0.167695
     14          8           0        3.297756    2.640821   -0.767025
     15          6           0       -5.815973    0.946173    0.398133
     16          6           0       -4.594393    1.553856    0.706331
     17          6           0       -3.388923    0.890489    0.458668
     18          6           0       -3.442221   -0.385324   -0.100573
     19          6           0       -4.643361   -1.017283   -0.418661
     20          6           0       -5.836522   -0.335197   -0.162391
     21          1           0       -6.747630    1.468764    0.593868
     22          1           0       -4.575399    2.548907    1.141713
     23          1           0       -2.429143    1.337544    0.687537
     24          1           0       -4.630307   -2.010027   -0.851914
     25          1           0       -6.783742   -0.809583   -0.402760
     26          7           0       -2.172560   -1.097509   -0.367318
     27          8           0       -2.246523   -2.220803   -0.860649
     28          8           0       -1.127479   -0.518939   -0.078011
 ---------------------------------------------------------------------

 SCF Done:  E(RHF) =  -868.339141415     A.U. after   16 cycles
 E2 =    -0.2599078102D+01 EUMP2 =    -0.87093821951687D+03

 The electronic state is 1-A.
 Alpha  occ. eigenvalues --  -20.60593 -20.60546 -20.59912 -20.59855 -15.85602
 Alpha  occ. eigenvalues --  -15.84931 -11.30868 -11.30217 -11.27480 -11.27351
 Alpha  occ. eigenvalues --  -11.27199 -11.26885 -11.26659 -11.26620 -11.26475
 Alpha  occ. eigenvalues --  -11.26399 -11.25895 -11.25768  -1.59647  -1.58963
 Alpha  occ. eigenvalues --   -1.39194  -1.38510  -1.19045  -1.18414  -1.08469
 Alpha  occ. eigenvalues --   -1.07843  -1.04427  -1.03801  -0.95313  -0.94675
 Alpha  occ. eigenvalues --   -0.85832  -0.85209  -0.82139  -0.81502  -0.77189
 Alpha  occ. eigenvalues --   -0.76528  -0.71842  -0.71144  -0.70961  -0.70277
 Alpha  occ. eigenvalues --   -0.70150  -0.69534  -0.64698  -0.64434  -0.64073
 Alpha  occ. eigenvalues --   -0.63816  -0.61759  -0.61122  -0.54956  -0.54356
 Alpha  occ. eigenvalues --   -0.52775  -0.52514  -0.52154  -0.51892  -0.48607
 Alpha  occ. eigenvalues --   -0.48580  -0.47933  -0.47887  -0.44625  -0.43923
 Alpha  occ. eigenvalues --   -0.37042  -0.36435  -0.36029  -0.35399
 Alpha virt. eigenvalues --    0.05316   0.05980   0.11625   0.12249   0.16809
 Alpha virt. eigenvalues --    0.17456   0.21738   0.22356   0.27698   0.28219
 Alpha virt. eigenvalues --    0.28580   0.29332   0.31279   0.31832   0.32849

 Mulliken charges:
               1
     1  C   -0.170794
     2  C   -0.219770
     3  C   -0.171616
     4  C    0.155096
     5  C   -0.169835
     6  C   -0.220302
     7  H    0.222482
     8  H    0.219664
     9  H    0.272313
    10  H    0.292427
    11  H    0.223991
    12  N    0.487773
    13  O   -0.456086
    14  O   -0.466987
    15  C   -0.170604
    16  C   -0.219341
    17  C   -0.171995
    18  C    0.156240
    19  C   -0.171239
    20  C   -0.219134
    21  H    0.224811
    22  H    0.225005
    23  H    0.286200
    24  H    0.273790
    25  H    0.221974
    26  N    0.490332
    27  O   -0.464935
    28  O   -0.459461
 Sum of Mulliken charges =  -0.00000

 Dipole moment (field-independent basis, Debye):
    X=             -1.9291    Y=             -1.7794    Z=              1.8306  Tot=              3.1998
 Quadrupole moment (field-independent basis, Debye-Ang):
   XX=            -52.5984   YY=           -108.0748   ZZ=           -104.9629
   XY=            -17.5190   XZ=             -0.7934   YZ=              0.2969

 Normal termination of Gaussian 16 at Wed May  5 20:56:23 2021.
