 Gaussian 16, Revision A.03,
 Gaussian 16:  EM64L-G16RevA.03 25-Dec-2016

 -------------
 #p 6-31g* mp2
 -------------

 ------------------------------------------------------
 Input file generated by CHIRIPA (05-May-2021 14:57:25)
 ------------------------------------------------------
 Symbolic Z-matrix:
 Charge =  0 Multiplicity = 1

                         Standard orientation:
 ---------------------------------------------------------------------
 Center     Atomic      Atomic             Coordinates (Angstroms)
 Number     Number       Type             X           Y           Z
 ---------------------------------------------------------------------
      1          6           0        5.251668    1.554508   -0.256535
      2          6           0        3.890555    1.872205   -0.310957
      3          6           0        2.922555    0.868885   -0.206685
      4          6           0        3.353022   -0.447483   -0.048052
      5          6           0        4.701592   -0.795775    0.009767
      6          6           0        5.652136    0.223878   -0.096629
      7          1           0        5.996854    2.340255   -0.338361
      8          1           0        3.576636    2.904722   -0.435079
      9          1           0        1.862173    1.086807   -0.245642
     10          1           0        4.983851   -1.834174    0.134167
     11          1           0        6.708497   -0.025787   -0.054031
     12          7           0        2.337483   -1.518298    0.063460
     13          8           0        2.742620   -2.670308    0.202651
     14          8           0        1.155597   -1.185317    0.009561
     15          6           0       -2.430518    2.517954    0.425996
     16          6           0       -3.701046    2.441006   -0.153965
     17          6           0       -4.314526    1.201416   -0.357953
     18          6           0       -3.625760    0.053772    0.031669
     19          6           0       -2.359029    0.097698    0.611971
     20          6           0       -1.764737    1.348116    0.806442
     21          1           0       -1.961405    3.485102    0.580762
     22          1           0       -4.220452    3.347861   -0.450404
     23          1           0       -5.297357    1.112958   -0.804759
     24          1           0       -1.866044   -0.823738    0.897169
     25          1           0       -0.777947    1.404848    1.257076
     26          7           0       -4.265067   -1.264258   -0.179246
     27          8           0       -3.637339   -2.260611    0.172712
     28          8           0       -5.381777   -1.276019   -0.692527
 ---------------------------------------------------------------------

 SCF Done:  E(RHF) =  -868.338200367     A.U. after   15 cycles
 E2 =    -0.2599623844D+01 EUMP2 =    -0.87093782421059D+03

 The electronic state is 1-A.
 Alpha  occ. eigenvalues --  -20.61391 -20.61332 -20.60046 -20.60004 -15.86414
 Alpha  occ. eigenvalues --  -15.85083 -11.31749 -11.30489 -11.28367 -11.28266
 Alpha  occ. eigenvalues --  -11.28022 -11.27345 -11.27273 -11.27180 -11.27002
 Alpha  occ. eigenvalues --  -11.26958 -11.26225 -11.26141  -1.60421  -1.59105
 Alpha  occ. eigenvalues --   -1.39983  -1.38653  -1.19911  -1.18717  -1.09304
 Alpha  occ. eigenvalues --   -1.08136  -1.05315  -1.04111  -0.96148  -0.94938
 Alpha  occ. eigenvalues --   -0.86712  -0.85534  -0.82991  -0.81753  -0.78050
 Alpha  occ. eigenvalues --   -0.76757  -0.72637  -0.71738  -0.71303  -0.71017
 Alpha  occ. eigenvalues --   -0.70430  -0.69856  -0.65568  -0.65319  -0.64375
 Alpha  occ. eigenvalues --   -0.64149  -0.62671  -0.61420  -0.55799  -0.54711
 Alpha  occ. eigenvalues --   -0.53636  -0.53413  -0.52469  -0.52209  -0.49386
 Alpha  occ. eigenvalues --   -0.49359  -0.48081  -0.48039  -0.45394  -0.44046
 Alpha  occ. eigenvalues --   -0.37875  -0.36916  -0.36777  -0.35705
 Alpha virt. eigenvalues --    0.04481   0.05753   0.10726   0.11863   0.15987
 Alpha virt. eigenvalues --    0.17132   0.20225   0.22023   0.25609   0.27182
 Alpha virt. eigenvalues --    0.28720   0.28983   0.30414   0.31169   0.32686

 Mulliken charges:
               1
     1  C   -0.170293
     2  C   -0.218264
     3  C   -0.173770
     4  C    0.158947
     5  C   -0.169932
     6  C   -0.218187
     7  H    0.227170
     8  H    0.222416
     9  H    0.271488
    10  H    0.277806
    11  H    0.225699
    12  N    0.490990
    13  O   -0.453532
    14  O   -0.469539
    15  C   -0.172119
    16  C   -0.219669
    17  C   -0.170944
    18  C    0.156289
    19  C   -0.166392
    20  C   -0.223087
    21  H    0.218968
    22  H    0.219927
    23  H    0.273801
    24  H    0.292677
    25  H    0.221080
    26  N    0.487715
    27  O   -0.454573
    28  O   -0.464673
 Sum of Mulliken charges =  -0.00000

 Dipole moment (field-independent basis, Debye):
    X=              6.1827    Y=              8.0793    Z=              0.3714  Tot=             10.1803
 Quadrupole moment (field-independent basis, Debye-Ang):
   XX=            -91.4715   YY=           -105.3968   ZZ=           -105.5732
   XY=            -10.1498   XZ=             -2.1217   YZ=             -1.3427

 Normal termination of Gaussian 16 at Thu May  6 06:44:34 2021.
