 Gaussian 16, Revision A.03,
 Gaussian 16:  EM64L-G16RevA.03 25-Dec-2016

 -------------
 #p 6-31g* mp2
 -------------

 ------------------------------------------------------
 Input file generated by CHIRIPA (05-May-2021 14:51:12)
 ------------------------------------------------------
 Symbolic Z-matrix:
 Charge =  0 Multiplicity = 1

                         Standard orientation:
 ---------------------------------------------------------------------
 Center     Atomic      Atomic             Coordinates (Angstroms)
 Number     Number       Type             X           Y           Z
 ---------------------------------------------------------------------
      1          6           0        3.038368    0.821905    0.303698
      2          6           0        2.141166    1.747852   -0.518272
      3          6           0        1.089046    2.459857    0.332543
      4          1           0        2.414215    0.077301    0.816477
      5          1           0        3.535713    1.407287    1.089428
      6          1           0        1.646726    1.161156   -1.303087
      7          1           0        2.767545    2.490219   -1.029306
      8          1           0        1.567242    3.069152    1.106293
      9          1           0        0.440054    1.732537    0.830957
     10          1           0        0.458699    3.116605   -0.275079
     11          6           0        4.095247    0.102951   -0.532867
     12          6           0        4.992450   -0.822996    0.289103
     13          6           0        6.044570   -1.535001   -0.561713
     14          1           0        3.597903   -0.482431   -1.318597
     15          1           0        4.719401    0.847555   -1.045646
     16          1           0        4.366070   -1.565363    0.800136
     17          1           0        5.486890   -0.236300    1.073917
     18          1           0        6.693561   -0.807681   -1.060127
     19          1           0        5.566373   -2.144295   -1.335463
     20          1           0        6.674916   -2.191749    0.045910
     21          6           0       -4.234646   -0.117616    0.250705
     22          6           0       -5.325379   -0.490336   -0.753967
     23          6           0       -6.655548    0.207451   -0.468420
     24          1           0       -4.574771   -0.373855    1.263425
     25          1           0       -4.089032    0.971410    0.236079
     26          1           0       -5.467923   -1.578480   -0.738447
     27          1           0       -4.982540   -0.233355   -1.764432
     28          1           0       -6.535411    1.295070   -0.503805
     29          1           0       -7.023553   -0.057697    0.528009
     30          1           0       -7.421015   -0.073255   -1.198574
     31          6           0       -2.898969   -0.807241   -0.021535
     32          6           0       -1.808237   -0.434520    0.983137
     33          6           0       -0.478067   -1.132307    0.697590
     34          1           0       -3.044584   -1.896266   -0.006909
     35          1           0       -2.558844   -0.551001   -1.034256
     36          1           0       -2.151076   -0.691500    1.993601
     37          1           0       -1.665693    0.653623    0.967616
     38          1           0       -0.110063   -0.867160   -0.298840
     39          1           0       -0.598204   -2.219926    0.732975
     40          1           0        0.287399   -0.851602    1.427744
 ---------------------------------------------------------------------

 SCF Done:  E(RHF) =  -470.732047636     A.U. after   11 cycles
 E2 =    -0.1584362298D+01 EUMP2 =    -0.47231640993358D+03

 The electronic state is 1-A.
 Alpha  occ. eigenvalues --  -11.21651 -11.21621 -11.21556 -11.21555 -11.21441
 Alpha  occ. eigenvalues --  -11.21378 -11.21330 -11.21251 -11.21166 -11.21084
 Alpha  occ. eigenvalues --  -11.21034 -11.20986  -1.08483  -1.08362  -1.03627
 Alpha  occ. eigenvalues --   -1.03444  -0.96056  -0.95915  -0.87068  -0.86943
 Alpha  occ. eigenvalues --   -0.79658  -0.79545  -0.78282  -0.78190  -0.65257
 Alpha  occ. eigenvalues --   -0.64914  -0.61319  -0.60614  -0.59465  -0.59219
 Alpha  occ. eigenvalues --   -0.57690  -0.57506  -0.55455  -0.55058  -0.52780
 Alpha  occ. eigenvalues --   -0.52628  -0.52464  -0.52348  -0.50070  -0.49807
 Alpha  occ. eigenvalues --   -0.47969  -0.47845  -0.46786  -0.46447  -0.45841
 Alpha  occ. eigenvalues --   -0.45744  -0.45689  -0.45595  -0.43776  -0.43724
 Alpha virt. eigenvalues --    0.20734   0.23102   0.23665   0.25260   0.26107
 Alpha virt. eigenvalues --    0.26236   0.26394   0.27525   0.28273   0.29274
 Alpha virt. eigenvalues --    0.30286   0.30955   0.31378   0.31934   0.32379

 Mulliken charges:
               1
     1  C   -0.304814
     2  C   -0.298861
     3  C   -0.484797
     4  H    0.157031
     5  H    0.148715
     6  H    0.151155
     7  H    0.151791
     8  H    0.154873
     9  H    0.165806
    10  H    0.158862
    11  C   -0.297759
    12  C   -0.299685
    13  C   -0.475662
    14  H    0.149265
    15  H    0.149266
    16  H    0.152073
    17  H    0.151698
    18  H    0.155041
    19  H    0.155185
    20  H    0.160068
    21  C   -0.298541
    22  C   -0.299692
    23  C   -0.475742
    24  H    0.149748
    25  H    0.150035
    26  H    0.151915
    27  H    0.151988
    28  H    0.155304
    29  H    0.155218
    30  H    0.160309
    31  C   -0.298039
    32  C   -0.305157
    33  C   -0.482937
    34  H    0.149570
    35  H    0.149722
    36  H    0.152378
    37  H    0.157031
    38  H    0.157754
    39  H    0.156539
    40  H    0.163344
 Sum of Mulliken charges =  -0.00000

 Dipole moment (field-independent basis, Debye):
    X=             -0.0517    Y=             -0.0306    Z=              0.0210  Tot=              0.0637
 Quadrupole moment (field-independent basis, Debye-Ang):
   XX=            -86.1210   YY=            -84.2096   ZZ=            -84.6433
   XY=              1.5700   XZ=              0.4155   YZ=             -0.6577

 Normal termination of Gaussian 16 at Wed May  5 21:31:07 2021.
