 Gaussian 16, Revision A.03,
 Gaussian 16:  EM64L-G16RevA.03 25-Dec-2016

 -------------
 #p 6-31g* mp2
 -------------

 ------------------------------------------------------
 Input file generated by CHIRIPA (05-May-2021 14:53:13)
 ------------------------------------------------------
 Symbolic Z-matrix:
 Charge =  0 Multiplicity = 1

                         Standard orientation:
 ---------------------------------------------------------------------
 Center     Atomic      Atomic             Coordinates (Angstroms)
 Number     Number       Type             X           Y           Z
 ---------------------------------------------------------------------
      1          6           0        2.887106    0.626547   -0.029946
      2          6           0        3.153571    1.837510   -0.924682
      3          6           0        2.380803    3.080583   -0.482651
      4          1           0        1.810170    0.409400   -0.028788
      5          1           0        3.156384    0.877966    1.005270
      6          1           0        2.885171    1.583425   -1.958132
      7          1           0        4.230021    2.051682   -0.923862
      8          1           0        2.655231    3.361640    0.539258
      9          1           0        1.302740    2.890722   -0.500888
     10          1           0        2.586033    3.934306   -1.136025
     11          6           0        3.652545   -0.623914   -0.459104
     12          6           0        3.386080   -1.834876    0.435632
     13          6           0        4.158847   -3.077950   -0.006399
     14          1           0        3.383267   -0.875333   -1.494320
     15          1           0        4.729481   -0.406767   -0.460262
     16          1           0        2.309629   -2.049049    0.434812
     17          1           0        3.654480   -1.580792    1.469081
     18          1           0        5.236911   -2.888089    0.011838
     19          1           0        3.884420   -3.359007   -1.028308
     20          1           0        3.953618   -3.931673    0.646975
     21          6           0       -0.785249    1.507215    1.171186
     22          6           0       -1.904496    2.059547    0.539733
     23          6           0       -2.891067    1.233472   -0.006917
     24          6           0       -2.725601   -0.146840    0.096277
     25          6           0       -1.621865   -0.727324    0.719252
     26          6           0       -0.647748    0.117990    1.258776
     27          1           0       -0.023694    2.156403    1.593069
     28          1           0       -2.013915    3.138085    0.470235
     29          1           0       -3.767609    1.634439   -0.501203
     30          1           0       -1.540538   -1.806172    0.773007
     31          1           0        0.220420   -0.313749    1.748602
     32          7           0       -3.763447   -1.031553   -0.478664
     33          8           0       -3.594245   -2.244478   -0.374644
     34          8           0       -4.726461   -0.495313   -1.022437
 ---------------------------------------------------------------------

 SCF Done:  E(RHF) =  -669.534389030     A.U. after   15 cycles
 E2 =    -0.2094195930D+01 EUMP2 =    -0.67162858495999D+03

 The electronic state is 1-A.
 Alpha  occ. eigenvalues --  -20.60796 -20.60791 -15.85850 -11.31230 -11.27805
 Alpha  occ. eigenvalues --  -11.27794 -11.27487 -11.26809 -11.26751 -11.22339
 Alpha  occ. eigenvalues --  -11.22323 -11.22105 -11.22013 -11.21943 -11.21583
 Alpha  occ. eigenvalues --   -1.59872  -1.39425  -1.19411  -1.09170  -1.08785
 Alpha  occ. eigenvalues --   -1.04813  -1.04247  -0.96696  -0.95627  -0.87720
 Alpha  occ. eigenvalues --   -0.86207  -0.82456  -0.80330  -0.79031  -0.77491
 Alpha  occ. eigenvalues --   -0.72067  -0.71196  -0.70499  -0.65820  -0.65053
 Alpha  occ. eigenvalues --   -0.64770  -0.62155  -0.61639  -0.60067  -0.58336
 Alpha  occ. eigenvalues --   -0.56013  -0.55258  -0.53393  -0.53184  -0.53122
 Alpha  occ. eigenvalues --   -0.52871  -0.50634  -0.48829  -0.48822  -0.48632
 Alpha  occ. eigenvalues --   -0.47350  -0.46512  -0.46432  -0.44827  -0.44484
 Alpha  occ. eigenvalues --   -0.37284  -0.36378
 Alpha virt. eigenvalues --    0.04988   0.11066   0.16357   0.20337   0.22654
 Alpha virt. eigenvalues --    0.23032   0.25462   0.25861   0.26795   0.28482
 Alpha virt. eigenvalues --    0.29320   0.30522   0.30955   0.31372   0.31799

 Mulliken charges:
               1
     1  C   -0.311374
     2  C   -0.297448
     3  C   -0.483209
     4  H    0.158466
     5  H    0.143018
     6  H    0.156170
     7  H    0.154144
     8  H    0.150483
     9  H    0.155450
    10  H    0.164348
    11  C   -0.297283
    12  C   -0.301587
    13  C   -0.476006
    14  H    0.153387
    15  H    0.151677
    16  H    0.147199
    17  H    0.150056
    18  H    0.156958
    19  H    0.158375
    20  H    0.161832
    21  C   -0.169853
    22  C   -0.220726
    23  C   -0.170430
    24  C    0.158491
    25  C   -0.173625
    26  C   -0.222963
    27  H    0.231224
    28  H    0.224387
    29  H    0.275871
    30  H    0.275685
    31  H    0.229832
    32  N    0.488095
    33  O   -0.460327
    34  O   -0.460316
 Sum of Mulliken charges =  -0.00000

 Dipole moment (field-independent basis, Debye):
    X=              3.7121    Y=              3.0701    Z=              1.9347  Tot=              5.1912
 Quadrupole moment (field-independent basis, Debye-Ang):
   XX=           -113.2278   YY=            -93.4700   ZZ=            -94.2556
   XY=            -11.1109   XZ=             -4.1379   YZ=             -1.4077

 Normal termination of Gaussian 16 at Wed May  5 21:49:02 2021.
