 Gaussian 16, Revision A.03,
 Gaussian 16:  EM64L-G16RevA.03 25-Dec-2016

 -------------
 #p 6-31g* mp2
 -------------

 ------------------------------------------------------
 Input file generated by CHIRIPA (05-May-2021 14:55:19)
 ------------------------------------------------------
 Symbolic Z-matrix:
 Charge =  0 Multiplicity = 1

                         Standard orientation:
 ---------------------------------------------------------------------
 Center     Atomic      Atomic             Coordinates (Angstroms)
 Number     Number       Type             X           Y           Z
 ---------------------------------------------------------------------
      1          6           0       -0.958335   -2.370927    1.167385
      2          6           0       -1.968314   -1.644256    1.806456
      3          6           0       -2.603721   -0.584928    1.151757
      4          6           0       -2.202332   -0.278114   -0.147490
      5          6           0       -1.199400   -0.983293   -0.810920
      6          6           0       -0.577772   -2.038712   -0.136964
      7          1           0       -0.470087   -3.192320    1.683451
      8          1           0       -2.265920   -1.900022    2.819402
      9          1           0       -3.388557   -0.005756    1.622937
     10          1           0       -0.924392   -0.704768   -1.820976
     11          1           0        0.206283   -2.601314   -0.635745
     12          7           0       -2.867715    0.841279   -0.850784
     13          8           0       -2.495804    1.091687   -1.995168
     14          8           0       -3.748555    1.447056   -0.244325
     15          6           0        2.841359    1.324243    0.185199
     16          6           0        1.623144    2.142916    0.613817
     17          6           0        1.964738    3.605534    0.899921
     18          1           0        3.605761    1.376497    0.972539
     19          1           0        3.284096    1.780430   -0.711056
     20          1           0        1.182018    1.684526    1.508189
     21          1           0        0.861477    2.088551   -0.174552
     22          1           0        2.384385    4.084450    0.009338
     23          1           0        2.706747    3.678129    1.701641
     24          1           0        1.079466    4.172363    1.204649
     25          6           0        2.515874   -0.139977   -0.104358
     26          6           0        3.734088   -0.958650   -0.532976
     27          6           0        3.392494   -2.421268   -0.819081
     28          1           0        2.073136   -0.596164    0.791896
     29          1           0        1.751472   -0.192230   -0.891699
     30          1           0        4.495755   -0.904285    0.255393
     31          1           0        4.175214   -0.500260   -1.427349
     32          1           0        2.650485   -2.493863   -1.620800
     33          1           0        2.972848   -2.900184    0.071502
     34          1           0        4.277766   -2.988096   -1.123809
 ---------------------------------------------------------------------

 SCF Done:  E(RHF) =  -669.534461268     A.U. after   15 cycles
 E2 =    -0.2094340258D+01 EUMP2 =    -0.67162880152584D+03

 The electronic state is 1-A.
 Alpha  occ. eigenvalues --  -20.60771 -20.60766 -15.85820 -11.31169 -11.27698
 Alpha  occ. eigenvalues --  -11.27690 -11.27432 -11.26749 -11.26669 -11.22177
 Alpha  occ. eigenvalues --  -11.22020 -11.21757 -11.21625 -11.21552 -11.20989
 Alpha  occ. eigenvalues --   -1.59844  -1.39398  -1.19323  -1.08792  -1.08702
 Alpha  occ. eigenvalues --   -1.04725  -1.03881  -0.96355  -0.95565  -0.87379
 Alpha  occ. eigenvalues --   -0.86123  -0.82410  -0.79972  -0.78564  -0.77423
 Alpha  occ. eigenvalues --   -0.72039  -0.71163  -0.70436  -0.65414  -0.64965
 Alpha  occ. eigenvalues --   -0.64737  -0.62091  -0.61275  -0.59737  -0.57959
 Alpha  occ. eigenvalues --   -0.55666  -0.55223  -0.53237  -0.52983  -0.52903
 Alpha  occ. eigenvalues --   -0.52614  -0.50319  -0.48799  -0.48796  -0.48260
 Alpha  occ. eigenvalues --   -0.46998  -0.46067  -0.45977  -0.44801  -0.44102
 Alpha  occ. eigenvalues --   -0.37285  -0.36205
 Alpha virt. eigenvalues --    0.05051   0.11215   0.16499   0.19969   0.22881
 Alpha virt. eigenvalues --    0.23941   0.25230   0.26246   0.26956   0.28483
 Alpha virt. eigenvalues --    0.29621   0.30145   0.31204   0.31661   0.32115

 Mulliken charges:
               1
     1  C   -0.175139
     2  C   -0.218002
     3  C   -0.172141
     4  C    0.159388
     5  C   -0.172272
     6  C   -0.214637
     7  H    0.225186
     8  H    0.223103
     9  H    0.275219
    10  H    0.273923
    11  H    0.231083
    12  N    0.487952
    13  O   -0.461139
    14  O   -0.460240
    15  C   -0.298685
    16  C   -0.301202
    17  C   -0.476056
    18  H    0.149011
    19  H    0.151095
    20  H    0.150724
    21  H    0.156137
    22  H    0.156616
    23  H    0.153301
    24  H    0.163728
    25  C   -0.298852
    26  C   -0.299324
    27  C   -0.478394
    28  H    0.149442
    29  H    0.146720
    30  H    0.153961
    31  H    0.155145
    32  H    0.149299
    33  H    0.149407
    34  H    0.165641
 Sum of Mulliken charges =  -0.00000

 Dipole moment (field-independent basis, Debye):
    X=              2.4029    Y=             -3.8588    Z=              2.4830  Tot=              5.1797
 Quadrupole moment (field-independent basis, Debye-Ang):
   XX=           -103.8183   YY=            -94.1646   ZZ=            -91.7204
   XY=              7.4306   XZ=             -8.4446   YZ=              0.0588

 Normal termination of Gaussian 16 at Thu May  6 20:37:51 2021.
