 Gaussian 16, Revision A.03,
 Gaussian 16:  EM64L-G16RevA.03 25-Dec-2016

 -------------
 #p 6-31g* mp2
 -------------

 ------------------------------------------------------
 Input file generated by CHIRIPA (05-May-2021 14:57:26)
 ------------------------------------------------------
 Symbolic Z-matrix:
 Charge =  0 Multiplicity = 1

                         Standard orientation:
 ---------------------------------------------------------------------
 Center     Atomic      Atomic             Coordinates (Angstroms)
 Number     Number       Type             X           Y           Z
 ---------------------------------------------------------------------
      1          6           0        2.326253    2.339373    1.122783
      2          6           0        3.629506    2.356394    0.615079
      3          6           0        4.174621    1.214798    0.019969
      4          6           0        3.384868    0.068260   -0.050959
      5          6           0        2.083214    0.019933    0.445683
      6          6           0        1.558620    1.173253    1.036616
      7          1           0        1.910765    3.230746    1.583456
      8          1           0        4.227967    3.260603    0.680617
      9          1           0        5.180741    1.200296   -0.381192
     10          1           0        1.510947   -0.896335    0.365809
     11          1           0        0.546202    1.157134    1.430055
     12          7           0        3.951094   -1.146502   -0.678765
     13          8           0        3.234799   -2.144017   -0.728975
     14          8           0        5.100477   -1.078116   -1.108741
     15          6           0       -1.961440   -1.945341    1.283466
     16          6           0       -1.550193   -1.593492   -0.006339
     17          6           0       -2.279453   -0.665485   -0.755692
     18          6           0       -3.420137   -0.106354   -0.181668
     19          6           0       -3.855458   -0.436476    1.100831
     20          6           0       -3.110735   -1.366730    1.831968
     21          1           0       -1.388927   -2.667113    1.858507
     22          1           0       -0.658042   -2.041245   -0.434859
     23          1           0       -1.983655   -0.375066   -1.756481
     24          1           0       -4.749074    0.026776    1.501164
     25          1           0       -3.432480   -1.638091    2.833411
     26          7           0       -4.200357    0.877275   -0.965333
     27          8           0       -5.201691    1.355592   -0.436958
     28          8           0       -3.795786    1.151300   -2.093104
 ---------------------------------------------------------------------

 SCF Done:  E(RHF) =  -868.338485223     A.U. after   16 cycles
 E2 =    -0.2600077934D+01 EUMP2 =    -0.87093856315678D+03

 The electronic state is 1-A.
 Alpha  occ. eigenvalues --  -20.61306 -20.61267 -20.61210 -20.61203 -15.86336
 Alpha  occ. eigenvalues --  -15.86266 -11.31722 -11.31608 -11.28309 -11.28299
 Alpha  occ. eigenvalues --  -11.28200 -11.28116 -11.28058 -11.27821 -11.27313
 Alpha  occ. eigenvalues --  -11.27303 -11.27119 -11.27107  -1.60359  -1.60286
 Alpha  occ. eigenvalues --   -1.39920  -1.39835  -1.19919  -1.19753  -1.09288
 Alpha  occ. eigenvalues --   -1.09155  -1.05328  -1.05133  -0.96099  -0.96016
 Alpha  occ. eigenvalues --   -0.86718  -0.86532  -0.82923  -0.82844  -0.78006
 Alpha  occ. eigenvalues --   -0.77879  -0.72558  -0.72476  -0.71676  -0.71617
 Alpha  occ. eigenvalues --   -0.70984  -0.70864  -0.65550  -0.65416  -0.65369
 Alpha  occ. eigenvalues --   -0.65056  -0.62740  -0.62395  -0.55793  -0.55620
 Alpha  occ. eigenvalues --   -0.53668  -0.53480  -0.53439  -0.53136  -0.49329
 Alpha  occ. eigenvalues --   -0.49292  -0.49244  -0.49228  -0.45345  -0.45219
 Alpha  occ. eigenvalues --   -0.37916  -0.37708  -0.37009  -0.36673
 Alpha virt. eigenvalues --    0.04491   0.04680   0.10541   0.10921   0.15941
 Alpha virt. eigenvalues --    0.16213   0.19835   0.21726   0.25325   0.27311
 Alpha virt. eigenvalues --    0.27830   0.28799   0.29933   0.31149   0.31630

 Mulliken charges:
               1
     1  C   -0.170103
     2  C   -0.218007
     3  C   -0.170363
     4  C    0.159778
     5  C   -0.174746
     6  C   -0.220137
     7  H    0.228263
     8  H    0.225463
     9  H    0.276645
    10  H    0.267711
    11  H    0.227113
    12  N    0.488495
    13  O   -0.467005
    14  O   -0.456936
    15  C   -0.174962
    16  C   -0.231850
    17  C   -0.171802
    18  C    0.157088
    19  C   -0.171310
    20  C   -0.219818
    21  H    0.230155
    22  H    0.234397
    23  H    0.279680
    24  H    0.277019
    25  H    0.225477
    26  N    0.487849
    27  O   -0.459702
    28  O   -0.458391
 Sum of Mulliken charges =  -0.00000

 Dipole moment (field-independent basis, Debye):
    X=              0.7006    Y=              0.9238    Z=              4.9655  Tot=              5.0990
 Quadrupole moment (field-independent basis, Debye-Ang):
   XX=           -131.3077   YY=           -103.1131   ZZ=           -103.9362
   XY=             28.6114   XZ=             -6.0417   YZ=              0.2382

 Normal termination of Gaussian 16 at Thu May  6 19:47:07 2021.
