 Gaussian 16, Revision A.03,
 Gaussian 16:  EM64L-G16RevA.03 25-Dec-2016

 -------------
 #p 6-31g* mp2
 -------------

 ------------------------------------------------------
 Input file generated by CHIRIPA (05-May-2021 14:55:24)
 ------------------------------------------------------
 Symbolic Z-matrix:
 Charge =  0 Multiplicity = 1

                         Standard orientation:
 ---------------------------------------------------------------------
 Center     Atomic      Atomic             Coordinates (Angstroms)
 Number     Number       Type             X           Y           Z
 ---------------------------------------------------------------------
      1          6           0       -2.902563    2.250304   -0.128244
      2          6           0       -1.737713    1.562600   -0.484204
      3          6           0       -1.700373    0.165403   -0.452678
      4          6           0       -2.851249   -0.515341   -0.058519
      5          6           0       -4.026938    0.141259    0.301924
      6          6           0       -4.041451    1.538693    0.262994
      7          1           0       -2.922704    3.335772   -0.155610
      8          1           0       -0.851742    2.112633   -0.788448
      9          1           0       -0.811926   -0.392209   -0.723140
     10          1           0       -4.894355   -0.434574    0.600962
     11          1           0       -4.947487    2.070130    0.539973
     12          7           0       -2.823802   -1.994617   -0.021225
     13          8           0       -3.851033   -2.571108    0.329617
     14          8           0       -1.775577   -2.549571   -0.343541
     15          6           0        4.104692   -0.151976   -0.280565
     16          6           0        4.440673   -1.386226    0.557127
     17          6           0        5.340253   -2.376278   -0.183379
     18          1           0        3.614298   -0.470344   -1.210673
     19          1           0        5.037875    0.348148   -0.574573
     20          1           0        3.507082   -1.883097    0.850628
     21          1           0        4.930151   -1.064871    1.485435
     22          1           0        6.286822   -1.902308   -0.462594
     23          1           0        4.855667   -2.725184   -1.101009
     24          1           0        5.567907   -3.251018    0.433763
     25          6           0        3.206086    0.847115    0.446107
     26          6           0        2.870104    2.081365   -0.391582
     27          6           0        1.970524    3.071417    0.348922
     28          1           0        2.272902    0.346992    0.740115
     29          1           0        3.696478    1.165483    1.376216
     30          1           0        2.380626    1.760010   -1.319892
     31          1           0        3.803695    2.578237   -0.685085
     32          1           0        2.455110    3.420323    1.266552
     33          1           0        1.023956    2.597447    0.628137
     34          1           0        1.742869    3.946157   -0.268220
 ---------------------------------------------------------------------

 SCF Done:  E(RHF) =  -669.535540160     A.U. after   15 cycles
 E2 =    -0.2091447614D+01 EUMP2 =    -0.67162698777474D+03

 The electronic state is 1-A.
 Alpha  occ. eigenvalues --  -20.60789 -20.60784 -15.85842 -11.31207 -11.27781
 Alpha  occ. eigenvalues --  -11.27776 -11.27507 -11.26786 -11.26740 -11.22299
 Alpha  occ. eigenvalues --  -11.21928 -11.21839 -11.21671 -11.21607 -11.21043
 Alpha  occ. eigenvalues --   -1.59864  -1.39418  -1.19379  -1.08821  -1.08768
 Alpha  occ. eigenvalues --   -1.04784  -1.03924  -0.96384  -0.95606  -0.87408
 Alpha  occ. eigenvalues --   -0.86174  -0.82441  -0.80007  -0.78567  -0.77490
 Alpha  occ. eigenvalues --   -0.72061  -0.71187  -0.70483  -0.65500  -0.65027
 Alpha  occ. eigenvalues --   -0.64783  -0.62198  -0.61255  -0.59786  -0.57961
 Alpha  occ. eigenvalues --   -0.55722  -0.55251  -0.53134  -0.53091  -0.52910
 Alpha  occ. eigenvalues --   -0.52708  -0.50306  -0.48817  -0.48816  -0.48302
 Alpha  occ. eigenvalues --   -0.47043  -0.46118  -0.46011  -0.44824  -0.44164
 Alpha  occ. eigenvalues --   -0.37351  -0.36375
 Alpha virt. eigenvalues --    0.05035   0.11192   0.16442   0.19428   0.22963
 Alpha virt. eigenvalues --    0.23849   0.25744   0.26751   0.27122   0.28611
 Alpha virt. eigenvalues --    0.29258   0.30667   0.31142   0.31578   0.32002

 Mulliken charges:
               1
     1  C   -0.172081
     2  C   -0.222571
     3  C   -0.173460
     4  C    0.158886
     5  C   -0.170751
     6  C   -0.218434
     7  H    0.226322
     8  H    0.231592
     9  H    0.275345
    10  H    0.275699
    11  H    0.223550
    12  N    0.488145
    13  O   -0.460269
    14  O   -0.460804
    15  C   -0.298604
    16  C   -0.300950
    17  C   -0.476100
    18  H    0.149923
    19  H    0.149910
    20  H    0.156565
    21  H    0.151713
    22  H    0.154101
    23  H    0.157033
    24  H    0.162239
    25  C   -0.299213
    26  C   -0.300988
    27  C   -0.482734
    28  H    0.149118
    29  H    0.152092
    30  H    0.147310
    31  H    0.156132
    32  H    0.161234
    33  H    0.152208
    34  H    0.157841
 Sum of Mulliken charges =  -0.00000

 Dipole moment (field-independent basis, Debye):
    X=              0.0083    Y=              5.1662    Z=             -0.0830  Tot=              5.1668
 Quadrupole moment (field-independent basis, Debye-Ang):
   XX=            -88.7928   YY=           -101.1452   ZZ=            -95.1146
   XY=            -14.1534   XZ=             -0.6332   YZ=             -0.3333

 Normal termination of Gaussian 16 at Thu May  6 17:42:49 2021.
