 Gaussian 16, Revision A.03,
 Gaussian 16:  EM64L-G16RevA.03 25-Dec-2016

 -------------
 #p 6-31g* mp2
 -------------

 ------------------------------------------------------
 Input file generated by CHIRIPA (05-May-2021 14:57:21)
 ------------------------------------------------------
 Symbolic Z-matrix:
 Charge =  0 Multiplicity = 1

                         Standard orientation:
 ---------------------------------------------------------------------
 Center     Atomic      Atomic             Coordinates (Angstroms)
 Number     Number       Type             X           Y           Z
 ---------------------------------------------------------------------
      1          6           0       -5.158789    0.999361   -0.560547
      2          6           0       -3.918009    1.501473   -0.966588
      3          6           0       -2.746664    0.775642   -0.730645
      4          6           0       -2.853294   -0.454304   -0.083224
      5          6           0       -4.074761   -0.981320    0.333384
      6          6           0       -5.233074   -0.238251    0.087001
      7          1           0       -6.063657    1.569900   -0.747888
      8          1           0       -3.857301    2.462330   -1.469691
      9          1           0       -1.773075    1.140755   -1.034346
     10          1           0       -4.103488   -1.942190    0.832707
     11          1           0       -6.195316   -0.630671    0.403453
     12          7           0       -1.620141   -1.231833    0.172085
     13          8           0       -1.740921   -2.312851    0.744316
     14          8           0       -0.556167   -0.745520   -0.204871
     15          6           0        1.800218    2.196986    1.260025
     16          6           0        2.491039    2.439707    0.068230
     17          6           0        3.190536    1.410658   -0.569192
     18          6           0        3.177989    0.145292    0.015601
     19          6           0        2.499211   -0.127963    1.202144
     20          6           0        1.806498    0.916183    1.822186
     21          1           0        1.259466    3.002241    1.748440
     22          1           0        2.487902    3.433403   -0.370636
     23          1           0        3.733734    1.570834   -1.492609
     24          1           0        2.520665   -1.128986    1.615557
     25          1           0        1.270876    0.724776    2.747669
     26          7           0        3.914923   -0.952107   -0.650011
     27          8           0        3.888397   -2.058068   -0.114486
     28          8           0        4.505106   -0.685511   -1.694639
 ---------------------------------------------------------------------

 SCF Done:  E(RHF) =  -868.337403189     A.U. after   16 cycles
 E2 =    -0.2600560256D+01 EUMP2 =    -0.87093796344559D+03

 The electronic state is 1-A.
 Alpha  occ. eigenvalues --  -20.61142 -20.61105 -20.59737 -20.59700 -15.86154
 Alpha  occ. eigenvalues --  -15.84774 -11.31535 -11.30062 -11.28107 -11.28091
 Alpha  occ. eigenvalues --  -11.27842 -11.27125 -11.27100 -11.26768 -11.26612
 Alpha  occ. eigenvalues --  -11.26563 -11.25829 -11.25681  -1.60199  -1.58791
 Alpha  occ. eigenvalues --   -1.39750  -1.38348  -1.19708  -1.18277  -1.09102
 Alpha  occ. eigenvalues --   -1.07723  -1.05110  -1.03698  -0.95935  -0.94558
 Alpha  occ. eigenvalues --   -0.86505  -0.85132  -0.82765  -0.81404  -0.77812
 Alpha  occ. eigenvalues --   -0.76424  -0.72391  -0.71528  -0.71014  -0.70808
 Alpha  occ. eigenvalues --   -0.70089  -0.69493  -0.65359  -0.65110  -0.63980
 Alpha  occ. eigenvalues --   -0.63777  -0.62454  -0.61075  -0.55606  -0.54316
 Alpha  occ. eigenvalues --   -0.53446  -0.53199  -0.52001  -0.51850  -0.49152
 Alpha  occ. eigenvalues --   -0.49125  -0.47772  -0.47749  -0.45150  -0.43771
 Alpha  occ. eigenvalues --   -0.37694  -0.36719  -0.36301  -0.35184
 Alpha virt. eigenvalues --    0.04693   0.06160   0.10937   0.12384   0.16187
 Alpha virt. eigenvalues --    0.17612   0.21093   0.22242   0.26993   0.27988
 Alpha virt. eigenvalues --    0.28162   0.29155   0.30646   0.31718   0.32193

 Mulliken charges:
               1
     1  C   -0.170739
     2  C   -0.218817
     3  C   -0.172327
     4  C    0.157547
     5  C   -0.171020
     6  C   -0.218572
     7  H    0.226371
     8  H    0.223076
     9  H    0.275873
    10  H    0.276512
    11  H    0.224531
    12  N    0.487814
    13  O   -0.459836
    14  O   -0.459598
    15  C   -0.173303
    16  C   -0.221427
    17  C   -0.171280
    18  C    0.160345
    19  C   -0.148937
    20  C   -0.213596
    21  H    0.218035
    22  H    0.216064
    23  H    0.271400
    24  H    0.278284
    25  H    0.219387
    26  N    0.488587
    27  O   -0.458220
    28  O   -0.466153
 Sum of Mulliken charges =  -0.00000

 Dipole moment (field-independent basis, Debye):
    X=             -7.1329    Y=              6.2911    Z=              1.4982  Tot=              9.6282
 Quadrupole moment (field-independent basis, Debye-Ang):
   XX=            -96.1830   YY=           -102.9949   ZZ=           -102.2613
   XY=              8.6159   XZ=              8.1473   YZ=             -4.0986

 Normal termination of Gaussian 16 at Thu May  6 16:10:50 2021.
