 Gaussian 16, Revision A.03,
 Gaussian 16:  EM64L-G16RevA.03 25-Dec-2016

 -------------
 #p 6-31g* mp2
 -------------

 ------------------------------------------------------
 Input file generated by CHIRIPA (05-May-2021 14:53:12)
 ------------------------------------------------------
 Symbolic Z-matrix:
 Charge =  0 Multiplicity = 1

                         Standard orientation:
 ---------------------------------------------------------------------
 Center     Atomic      Atomic             Coordinates (Angstroms)
 Number     Number       Type             X           Y           Z
 ---------------------------------------------------------------------
      1          6           0       -2.739762    0.988478    0.353772
      2          6           0       -2.421955    2.376642   -0.202991
      3          6           0       -1.618153    3.235517    0.773753
      4          1           0       -3.297538    1.096414    1.294081
      5          1           0       -1.799803    0.477726    0.604779
      6          1           0       -3.362180    2.884092   -0.454165
      7          1           0       -1.865038    2.265387   -1.142182
      8          1           0       -0.665378    2.753845    1.016266
      9          1           0       -2.171027    3.376065    1.708193
     10          1           0       -1.402030    4.223566    0.355531
     11          6           0       -3.542901    0.118049   -0.611137
     12          6           0       -3.860707   -1.270115   -0.054375
     13          6           0       -4.664510   -2.128990   -1.031119
     14          1           0       -4.482860    0.628800   -0.862144
     15          1           0       -2.985125    0.010112   -1.551446
     16          1           0       -4.417625   -1.158860    0.884817
     17          1           0       -2.920483   -1.777565    0.196799
     18          1           0       -4.111636   -2.269538   -1.965558
     19          1           0       -5.617285   -1.647318   -1.273631
     20          1           0       -4.880633   -3.117039   -0.612896
     21          6           0        1.038724   -2.273242    1.087017
     22          6           0        2.157619   -2.590561    0.309905
     23          6           0        2.949090   -1.578692   -0.241680
     24          6           0        2.591005   -0.254256    0.005164
     25          6           0        1.482304    0.093888    0.775144
     26          6           0        0.705226   -0.934391    1.316752
     27          1           0        0.429481   -3.065660    1.511626
     28          1           0        2.419006   -3.629451    0.129829
     29          1           0        3.820668   -1.796121   -0.847067
     30          1           0        1.246898    1.138758    0.937155
     31          1           0       -0.163160   -0.685000    1.919872
     32          7           0        3.421281    0.825650   -0.573493
     33          8           0        3.084569    1.984671   -0.341252
     34          8           0        4.393043    0.492614   -1.248329
 ---------------------------------------------------------------------

 SCF Done:  E(RHF) =  -669.534999872     A.U. after   15 cycles
 E2 =    -0.2093108772D+01 EUMP2 =    -0.67162810864444D+03

 The electronic state is 1-A.
 Alpha  occ. eigenvalues --  -20.60801 -20.60796 -15.85854 -11.31241 -11.27812
 Alpha  occ. eigenvalues --  -11.27807 -11.27550 -11.26828 -11.26796 -11.22202
 Alpha  occ. eigenvalues --  -11.21984 -11.21927 -11.21850 -11.21562 -11.21473
 Alpha  occ. eigenvalues --   -1.59876  -1.39429  -1.19418  -1.08945  -1.08802
 Alpha  occ. eigenvalues --   -1.04827  -1.04004  -0.96452  -0.95637  -0.87469
 Alpha  occ. eigenvalues --   -0.86216  -0.82477  -0.80072  -0.78804  -0.77501
 Alpha  occ. eigenvalues --   -0.72072  -0.71200  -0.70525  -0.65614  -0.65062
 Alpha  occ. eigenvalues --   -0.64820  -0.62222  -0.61343  -0.59812  -0.58071
 Alpha  occ. eigenvalues --   -0.55771  -0.55314  -0.53189  -0.53106  -0.53072
 Alpha  occ. eigenvalues --   -0.52697  -0.50381  -0.48836  -0.48827  -0.48388
 Alpha  occ. eigenvalues --   -0.47105  -0.46304  -0.46219  -0.44829  -0.44257
 Alpha  occ. eigenvalues --   -0.37390  -0.36386
 Alpha virt. eigenvalues --    0.04986   0.11138   0.16334   0.19648   0.22873
 Alpha virt. eigenvalues --    0.23188   0.25372   0.26109   0.26669   0.28320
 Alpha virt. eigenvalues --    0.29468   0.30382   0.31221   0.31384   0.31701

 Mulliken charges:
               1
     1  C   -0.305137
     2  C   -0.300887
     3  C   -0.477434
     4  H    0.148466
     5  H    0.145886
     6  H    0.154354
     7  H    0.157217
     8  H    0.149145
     9  H    0.154837
    10  H    0.168249
    11  C   -0.297659
    12  C   -0.299623
    13  C   -0.475949
    14  H    0.152026
    15  H    0.152978
    16  H    0.151524
    17  H    0.145386
    18  H    0.156894
    19  H    0.157456
    20  H    0.159510
    21  C   -0.172535
    22  C   -0.218846
    23  C   -0.170049
    24  C    0.158878
    25  C   -0.178365
    26  C   -0.221458
    27  H    0.226357
    28  H    0.223796
    29  H    0.275891
    30  H    0.285257
    31  H    0.226848
    32  N    0.487195
    33  O   -0.459952
    34  O   -0.460257
 Sum of Mulliken charges =  -0.00000

 Dipole moment (field-independent basis, Debye):
    X=             -2.9743    Y=             -3.7323    Z=              1.9335  Tot=              5.1493
 Quadrupole moment (field-independent basis, Debye-Ang):
   XX=           -107.9024   YY=            -90.7411   ZZ=            -94.7448
   XY=            -12.5402   XZ=              3.4378   YZ=              0.6650

 Normal termination of Gaussian 16 at Thu May  6 00:58:22 2021.
