 Gaussian 16, Revision A.03,
 Gaussian 16:  EM64L-G16RevA.03 25-Dec-2016

 -------------
 #p 6-31g* mp2
 -------------

 ------------------------------------------------------
 Input file generated by CHIRIPA (05-May-2021 14:51:14)
 ------------------------------------------------------
 Symbolic Z-matrix:
 Charge =  0 Multiplicity = 1

                         Standard orientation:
 ---------------------------------------------------------------------
 Center     Atomic      Atomic             Coordinates (Angstroms)
 Number     Number       Type             X           Y           Z
 ---------------------------------------------------------------------
      1          6           0       -3.012405    0.022516    0.812093
      2          6           0       -1.998263    1.136965    0.552273
      3          6           0       -0.940682    1.241917    1.651501
      4          1           0       -3.502851    0.199867    1.779023
      5          1           0       -2.479996   -0.934436    0.902527
      6          1           0       -2.532559    2.091329    0.460980
      7          1           0       -1.510312    0.957044   -0.414240
      8          1           0       -0.381954    0.304517    1.739291
      9          1           0       -1.410010    1.445247    2.619483
     10          1           0       -0.225992    2.044851    1.445649
     11          6           0       -4.076083   -0.094897   -0.278105
     12          6           0       -5.090224   -1.209346   -0.018286
     13          6           0       -6.147805   -1.314297   -1.117513
     14          1           0       -4.608492    0.862055   -0.368539
     15          1           0       -3.585637   -0.272248   -1.245035
     16          1           0       -5.578175   -1.029425    0.948227
     17          1           0       -4.555928   -2.163709    0.073008
     18          1           0       -5.678477   -1.517627   -2.085495
     19          1           0       -6.706533   -0.376898   -1.205303
     20          1           0       -6.862495   -2.117231   -0.911662
     21          6           0        3.570909   -0.674056    0.012774
     22          6           0        4.913693   -1.367423   -0.219951
     23          6           0        4.951525   -2.787548    0.345388
     24          1           0        3.361556   -0.646745    1.090906
     25          1           0        2.772265   -1.273584   -0.445625
     26          1           0        5.709723   -0.766058    0.237556
     27          1           0        5.119964   -1.392917   -1.297641
     28          1           0        4.177851   -3.407700   -0.118768
     29          1           0        4.770962   -2.777281    1.425153
     30          1           0        5.920440   -3.264605    0.167965
     31          6           0        3.517579    0.746437   -0.546761
     32          6           0        2.174794    1.439803   -0.314037
     33          6           0        2.136962    2.859928   -0.879375
     34          1           0        4.316222    1.345966   -0.088362
     35          1           0        3.726932    0.719126   -1.624894
     36          1           0        1.968524    1.465297    0.763654
     37          1           0        1.378765    0.838438   -0.771544
     38          1           0        2.317526    2.849661   -1.959141
     39          1           0        2.910636    3.480081   -0.415221
     40          1           0        1.168047    3.336986   -0.701952
 ---------------------------------------------------------------------

 SCF Done:  E(RHF) =  -470.732392163     A.U. after   11 cycles
 E2 =    -0.1583453448D+01 EUMP2 =    -0.47231584561114D+03

 The electronic state is 1-A.
 Alpha  occ. eigenvalues --  -11.21600 -11.21597 -11.21578 -11.21513 -11.21394
 Alpha  occ. eigenvalues --  -11.21391 -11.21334 -11.21324 -11.21075 -11.21072
 Alpha  occ. eigenvalues --  -11.21069 -11.20966  -1.08441  -1.08391  -1.03584
 Alpha  occ. eigenvalues --   -1.03447  -0.96028  -0.95906  -0.87017  -0.86953
 Alpha  occ. eigenvalues --   -0.79672  -0.79494  -0.78238  -0.78222  -0.65064
 Alpha  occ. eigenvalues --   -0.65035  -0.60944  -0.60919  -0.59643  -0.59099
 Alpha  occ. eigenvalues --   -0.57799  -0.57302  -0.55266  -0.55238  -0.52739
 Alpha  occ. eigenvalues --   -0.52586  -0.52445  -0.52317  -0.49964  -0.49867
 Alpha  occ. eigenvalues --   -0.47908  -0.47853  -0.46753  -0.46484  -0.45812
 Alpha  occ. eigenvalues --   -0.45760  -0.45697  -0.45603  -0.43797  -0.43684
 Alpha virt. eigenvalues --    0.21184   0.23106   0.23378   0.25120   0.26005
 Alpha virt. eigenvalues --    0.26320   0.26784   0.27421   0.27798   0.29253
 Alpha virt. eigenvalues --    0.30248   0.31055   0.31323   0.31924   0.32254

 Mulliken charges:
               1
     1  C   -0.298405
     2  C   -0.301821
     3  C   -0.477853
     4  H    0.149732
     5  H    0.149563
     6  H    0.151499
     7  H    0.153179
     8  H    0.155696
     9  H    0.153755
    10  H    0.165265
    11  C   -0.298253
    12  C   -0.299634
    13  C   -0.475688
    14  H    0.149518
    15  H    0.149394
    16  H    0.151970
    17  H    0.151889
    18  H    0.155101
    19  H    0.155188
    20  H    0.160241
    21  C   -0.298358
    22  C   -0.299554
    23  C   -0.475706
    24  H    0.149727
    25  H    0.148856
    26  H    0.152016
    27  H    0.151936
    28  H    0.154990
    29  H    0.155205
    30  H    0.160278
    31  C   -0.297834
    32  C   -0.303041
    33  C   -0.478374
    34  H    0.149294
    35  H    0.149067
    36  H    0.156471
    37  H    0.153125
    38  H    0.155365
    39  H    0.155208
    40  H    0.160995
 Sum of Mulliken charges =  -0.00000

 Dipole moment (field-independent basis, Debye):
    X=              0.0089    Y=              0.0067    Z=              0.0136  Tot=              0.0176
 Quadrupole moment (field-independent basis, Debye-Ang):
   XX=            -85.1668   YY=            -85.3749   ZZ=            -84.3899
   XY=             -0.2276   XZ=             -0.5850   YZ=              0.9208

 Normal termination of Gaussian 16 at Wed May  5 18:24:43 2021.
