 Gaussian 16, Revision A.03,
 Gaussian 16:  EM64L-G16RevA.03 25-Dec-2016

 -------------
 #p 6-31g* mp2
 -------------

 ------------------------------------------------------
 Input file generated by CHIRIPA (05-May-2021 14:57:22)
 ------------------------------------------------------
 Symbolic Z-matrix:
 Charge =  0 Multiplicity = 1

                         Standard orientation:
 ---------------------------------------------------------------------
 Center     Atomic      Atomic             Coordinates (Angstroms)
 Number     Number       Type             X           Y           Z
 ---------------------------------------------------------------------
      1          6           0       -5.498697   -1.431443    0.232621
      2          6           0       -4.161858   -1.842060    0.204717
      3          6           0       -3.136813   -0.910555    0.014640
      4          6           0       -3.486103    0.429530   -0.144916
      5          6           0       -4.808595    0.869730   -0.121912
      6          6           0       -5.817237   -0.079243    0.069505
      7          1           0       -6.288605   -2.161843    0.380798
      8          1           0       -3.911524   -2.891536    0.331121
      9          1           0       -2.093555   -1.201006   -0.011196
     10          1           0       -5.027032    1.922864   -0.250803
     11          1           0       -6.854570    0.242523    0.090733
     12          7           0       -2.409617    1.424919   -0.346852
     13          8           0       -2.743605    2.599656   -0.484985
     14          8           0       -1.252261    1.011519   -0.363172
     15          6           0        6.011601    0.591919   -0.230878
     16          6           0        5.172660    1.203907    0.706228
     17          6           0        3.869766    0.737258    0.904354
     18          6           0        3.436518   -0.348368    0.144748
     19          6           0        4.248466   -0.979313   -0.796495
     20          6           0        5.547644   -0.495821   -0.977932
     21          1           0        7.022277    0.960964   -0.378306
     22          1           0        5.530293    2.048834    1.287815
     23          1           0        3.199190    1.192328    1.623143
     24          1           0        3.863696   -1.819740   -1.361340
     25          1           0        6.196966   -0.973060   -1.706403
     26          7           0        2.059168   -0.851304    0.345661
     27          8           0        1.701339   -1.809293   -0.336140
     28          8           0        1.363513   -0.277993    1.181134
 ---------------------------------------------------------------------

 SCF Done:  E(RHF) =  -868.338178293     A.U. after   16 cycles
 E2 =    -0.2599665672D+01 EUMP2 =    -0.87093784396588D+03

 The electronic state is 1-A.
 Alpha  occ. eigenvalues --  -20.60234 -20.60116 -20.59724 -20.59617 -15.85201
 Alpha  occ. eigenvalues --  -15.84716 -11.30642 -11.30161 -11.27249 -11.27194
 Alpha  occ. eigenvalues --  -11.27008 -11.26837 -11.26616 -11.26595 -11.26287
 Alpha  occ. eigenvalues --  -11.26251 -11.25876 -11.25760  -1.59216  -1.58757
 Alpha  occ. eigenvalues --   -1.38773  -1.38296  -1.18825  -1.18368  -1.08212
 Alpha  occ. eigenvalues --   -1.07768  -1.04245  -1.03775  -0.95038  -0.94574
 Alpha  occ. eigenvalues --   -0.85641  -0.85173  -0.81876  -0.81393  -0.76900
 Alpha  occ. eigenvalues --   -0.76407  -0.71466  -0.70980  -0.70440  -0.70078
 Alpha  occ. eigenvalues --   -0.69949  -0.69480  -0.64486  -0.64263  -0.64018
 Alpha  occ. eigenvalues --   -0.63789  -0.61594  -0.61093  -0.54764  -0.54319
 Alpha  occ. eigenvalues --   -0.52563  -0.52347  -0.52124  -0.51862  -0.48248
 Alpha  occ. eigenvalues --   -0.48196  -0.47741  -0.47639  -0.44187  -0.43624
 Alpha  occ. eigenvalues --   -0.36813  -0.36394  -0.35848  -0.35387
 Alpha virt. eigenvalues --    0.05634   0.06129   0.11806   0.12262   0.17102
 Alpha virt. eigenvalues --    0.17577   0.21885   0.22370   0.27789   0.28280
 Alpha virt. eigenvalues --    0.28790   0.29342   0.31409   0.31881   0.33058

 Mulliken charges:
               1
     1  C   -0.171428
     2  C   -0.220281
     3  C   -0.173018
     4  C    0.156265
     5  C   -0.172024
     6  C   -0.219574
     7  H    0.222027
     8  H    0.223440
     9  H    0.293043
    10  H    0.272366
    11  H    0.219429
    12  N    0.486986
    13  O   -0.469349
    14  O   -0.449484
    15  C   -0.171089
    16  C   -0.218685
    17  C   -0.168754
    18  C    0.160457
    19  C   -0.170931
    20  C   -0.218687
    21  H    0.223860
    22  H    0.222657
    23  H    0.277894
    24  H    0.273578
    25  H    0.221357
    26  N    0.490982
    27  O   -0.469786
    28  O   -0.451251
 Sum of Mulliken charges =  -0.00000

 Dipole moment (field-independent basis, Debye):
    X=              1.2955    Y=             -1.7514    Z=              0.0992  Tot=              2.1807
 Quadrupole moment (field-independent basis, Debye-Ang):
   XX=            -46.0147   YY=           -105.2057   ZZ=           -104.1782
   XY=             12.3858   XZ=             -4.1180   YZ=              4.0192

 Normal termination of Gaussian 16 at Wed May  5 22:34:23 2021.
