 Gaussian 16, Revision A.03,
 Gaussian 16:  EM64L-G16RevA.03 25-Dec-2016

 -------------
 #p 6-31g* mp2
 -------------

 ------------------------------------------------------
 Input file generated by CHIRIPA (05-May-2021 14:57:23)
 ------------------------------------------------------
 Symbolic Z-matrix:
 Charge =  0 Multiplicity = 1

                         Standard orientation:
 ---------------------------------------------------------------------
 Center     Atomic      Atomic             Coordinates (Angstroms)
 Number     Number       Type             X           Y           Z
 ---------------------------------------------------------------------
      1          6           0       -2.108986    1.484976   -0.138016
      2          6           0       -2.275417    0.662719    0.981232
      3          6           0       -3.399010   -0.161220    1.096168
      4          6           0       -4.340674   -0.137735    0.068546
      5          6           0       -4.203191    0.670422   -1.058961
      6          6           0       -3.071707    1.486200   -1.152751
      7          1           0       -1.233087    2.121862   -0.219088
      8          1           0       -1.529375    0.659709    1.770826
      9          1           0       -3.552859   -0.807558    1.951736
     10          1           0       -4.963956    0.651724   -1.829873
     11          1           0       -2.945075    2.123751   -2.023118
     12          7           0       -5.534349   -1.005683    0.179031
     13          8           0       -6.349541   -0.966674   -0.739978
     14          8           0       -5.632157   -1.708555    1.182545
     15          6           0        2.175433    1.570910    0.029778
     16          6           0        3.215698    1.702520    0.955548
     17          6           0        4.311315    0.834795    0.920551
     18          6           0        4.334250   -0.157697   -0.058082
     19          6           0        3.313275   -0.314311   -0.994230
     20          6           0        2.227451    0.564688   -0.940446
     21          1           0        1.328135    2.249358    0.064261
     22          1           0        3.177973    2.483037    1.710143
     23          1           0        5.130300    0.914194    1.625092
     24          1           0        3.379039   -1.102145   -1.734779
     25          1           0        1.420998    0.460121   -1.660685
     26          7           0        5.488948   -1.082286   -0.105076
     27          8           0        5.485382   -1.948419   -0.977106
     28          8           0        6.375701   -0.923338    0.731011
 ---------------------------------------------------------------------

 SCF Done:  E(RHF) =  -868.336338793     A.U. after   16 cycles
 E2 =    -0.2599963775D+01 EUMP2 =    -0.87093630256765D+03

 The electronic state is 1-A.
 Alpha  occ. eigenvalues --  -20.61296 -20.61293 -20.61290 -20.61287 -15.86353
 Alpha  occ. eigenvalues --  -15.86350 -11.31889 -11.31886 -11.28451 -11.28451
 Alpha  occ. eigenvalues --  -11.28446 -11.28439 -11.28388 -11.28385 -11.27572
 Alpha  occ. eigenvalues --  -11.27571 -11.27563 -11.27555  -1.60367  -1.60363
 Alpha  occ. eigenvalues --   -1.39915  -1.39912  -1.20089  -1.20079  -1.09502
 Alpha  occ. eigenvalues --   -1.09461  -1.05499  -1.05495  -0.96320  -0.96248
 Alpha  occ. eigenvalues --   -0.86910  -0.86900  -0.83131  -0.83065  -0.78090
 Alpha  occ. eigenvalues --   -0.78081  -0.72570  -0.72566  -0.71691  -0.71687
 Alpha  occ. eigenvalues --   -0.71545  -0.71034  -0.65753  -0.65742  -0.65544
 Alpha  occ. eigenvalues --   -0.65473  -0.62829  -0.62825  -0.56423  -0.55816
 Alpha  occ. eigenvalues --   -0.53862  -0.53805  -0.53596  -0.53594  -0.49344
 Alpha  occ. eigenvalues --   -0.49338  -0.49313  -0.49309  -0.45282  -0.45278
 Alpha  occ. eigenvalues --   -0.38203  -0.38054  -0.37099  -0.37068
 Alpha virt. eigenvalues --    0.04383   0.04453   0.10483   0.10620   0.15725
 Alpha virt. eigenvalues --    0.15854   0.17787   0.21910   0.24735   0.26402
 Alpha virt. eigenvalues --    0.26808   0.29333   0.29722   0.31565   0.31985

 Mulliken charges:
               1
     1  C   -0.175602
     2  C   -0.218013
     3  C   -0.170123
     4  C    0.159671
     5  C   -0.170191
     6  C   -0.219229
     7  H    0.217465
     8  H    0.224315
     9  H    0.278427
    10  H    0.277866
    11  H    0.224278
    12  N    0.487832
    13  O   -0.458559
    14  O   -0.458110
    15  C   -0.175852
    16  C   -0.218551
    17  C   -0.170284
    18  C    0.159629
    19  C   -0.170116
    20  C   -0.218016
    21  H    0.217458
    22  H    0.224603
    23  H    0.277883
    24  H    0.278447
    25  H    0.223604
    26  N    0.487842
    27  O   -0.458127
    28  O   -0.458546
 Sum of Mulliken charges =  -0.00000

 Dipole moment (field-independent basis, Debye):
    X=              0.1358    Y=              6.1079    Z=             -0.2045  Tot=              6.1128
 Quadrupole moment (field-independent basis, Debye-Ang):
   XX=           -174.5366   YY=           -106.5278   ZZ=            -98.2340
   XY=              1.3793   XZ=              6.4660   YZ=              0.4806

 Normal termination of Gaussian 16 at Thu May  6 00:16:31 2021.
