 Gaussian 16, Revision A.03,
 Gaussian 16:  EM64L-G16RevA.03 25-Dec-2016

 -------------
 #p 6-31g* mp2
 -------------

 ------------------------------------------------------
 Input file generated by CHIRIPA (05-May-2021 14:55:22)
 ------------------------------------------------------
 Symbolic Z-matrix:
 Charge =  0 Multiplicity = 1

                         Standard orientation:
 ---------------------------------------------------------------------
 Center     Atomic      Atomic             Coordinates (Angstroms)
 Number     Number       Type             X           Y           Z
 ---------------------------------------------------------------------
      1          6           0       -1.013688   -2.150710    1.352569
      2          6           0       -2.236837   -1.649202    1.809644
      3          6           0       -2.965981   -0.741687    1.035491
      4          6           0       -2.439939   -0.355434   -0.196328
      5          6           0       -1.224224   -0.837298   -0.679168
      6          6           0       -0.512169   -1.743874    0.111809
      7          1           0       -0.453909   -2.855325    1.960485
      8          1           0       -2.628761   -1.963390    2.772829
      9          1           0       -3.915495   -0.337729    1.365126
     10          1           0       -0.859231   -0.505497   -1.643589
     11          1           0        0.437472   -2.131706   -0.245700
     12          7           0       -3.202805    0.604815   -1.024795
     13          8           0       -2.717667    0.929399   -2.106424
     14          8           0       -4.271434    1.014690   -0.576831
     15          6           0        3.627725    0.290743   -0.000677
     16          6           0        3.517678   -1.001055   -0.811314
     17          6           0        4.857340   -1.723456   -0.957037
     18          1           0        4.355153    0.957948   -0.482996
     19          1           0        4.029781    0.057480    0.994980
     20          1           0        3.114649   -0.765614   -1.804668
     21          1           0        2.790285   -1.665184   -0.327115
     22          1           0        5.261886   -1.986825    0.025602
     23          1           0        5.588093   -1.082143   -1.460345
     24          1           0        4.755638   -2.644191   -1.539930
     25          6           0        2.296651    1.024315    0.153731
     26          6           0        2.406698    2.316113    0.964369
     27          6           0        1.067035    3.038514    1.110091
     28          1           0        1.894594    1.257578   -0.841925
     29          1           0        1.569223    0.357110    0.636050
     30          1           0        3.134090    2.980242    0.480169
     31          1           0        2.809727    2.080672    1.957722
     32          1           0        0.336283    2.397201    1.613400
     33          1           0        0.662489    3.301883    0.127452
     34          1           0        1.168738    3.959250    1.692983
 ---------------------------------------------------------------------

 SCF Done:  E(RHF) =  -669.535075663     A.U. after   15 cycles
 E2 =    -0.2093195655D+01 EUMP2 =    -0.67162827131762D+03

 The electronic state is 1-A.
 Alpha  occ. eigenvalues --  -20.60757 -20.60752 -15.85811 -11.31184 -11.27753
 Alpha  occ. eigenvalues --  -11.27740 -11.27503 -11.26776 -11.26724 -11.22442
 Alpha  occ. eigenvalues --  -11.21905 -11.21803 -11.21721 -11.21675 -11.21095
 Alpha  occ. eigenvalues --   -1.59831  -1.39385  -1.19362  -1.08907  -1.08752
 Alpha  occ. eigenvalues --   -1.04762  -1.03962  -0.96370  -0.95587  -0.87391
 Alpha  occ. eigenvalues --   -0.86164  -0.82423  -0.80082  -0.78715  -0.77443
 Alpha  occ. eigenvalues --   -0.72030  -0.71153  -0.70467  -0.65596  -0.65010
 Alpha  occ. eigenvalues --   -0.64726  -0.62125  -0.61347  -0.59773  -0.57993
 Alpha  occ. eigenvalues --   -0.55646  -0.55270  -0.53181  -0.53098  -0.52867
 Alpha  occ. eigenvalues --   -0.52715  -0.50317  -0.48799  -0.48783  -0.48353
 Alpha  occ. eigenvalues --   -0.47120  -0.46211  -0.46117  -0.44788  -0.44204
 Alpha  occ. eigenvalues --   -0.37342  -0.36291
 Alpha virt. eigenvalues --    0.05066   0.11186   0.16496   0.20178   0.22823
 Alpha virt. eigenvalues --    0.23807   0.25349   0.25679   0.27607   0.28407
 Alpha virt. eigenvalues --    0.29445   0.30040   0.31254   0.31501   0.32027

 Mulliken charges:
               1
     1  C   -0.174131
     2  C   -0.218529
     3  C   -0.171292
     4  C    0.158672
     5  C   -0.170077
     6  C   -0.222805
     7  H    0.225494
     8  H    0.223372
     9  H    0.275644
    10  H    0.276185
    11  H    0.233024
    12  N    0.488240
    13  O   -0.460541
    14  O   -0.460415
    15  C   -0.297568
    16  C   -0.303809
    17  C   -0.475196
    18  H    0.152995
    19  H    0.149457
    20  H    0.153030
    21  H    0.141978
    22  H    0.155955
    23  H    0.159277
    24  H    0.160218
    25  C   -0.305868
    26  C   -0.299446
    27  C   -0.477112
    28  H    0.149840
    29  H    0.153458
    30  H    0.153015
    31  H    0.150468
    32  H    0.154989
    33  H    0.160322
    34  H    0.161156
 Sum of Mulliken charges =  -0.00000

 Dipole moment (field-independent basis, Debye):
    X=              2.7316    Y=             -3.2950    Z=              2.8952  Tot=              5.1673
 Quadrupole moment (field-independent basis, Debye-Ang):
   XX=           -106.1596   YY=            -93.1032   ZZ=            -93.1248
   XY=              7.9392   XZ=            -10.7143   YZ=             -0.8788

 Normal termination of Gaussian 16 at Wed May  5 16:00:52 2021.
