 Gaussian 16, Revision A.03,
 Gaussian 16:  EM64L-G16RevA.03 25-Dec-2016

 -------------
 #p 6-31g* mp2
 -------------

 ------------------------------------------------------
 Input file generated by CHIRIPA (05-May-2021 14:51:12)
 ------------------------------------------------------
 Symbolic Z-matrix:
 Charge =  0 Multiplicity = 1

                         Standard orientation:
 ---------------------------------------------------------------------
 Center     Atomic      Atomic             Coordinates (Angstroms)
 Number     Number       Type             X           Y           Z
 ---------------------------------------------------------------------
      1          6           0        4.782112    0.086060   -0.008820
      2          6           0        4.929052   -1.435146   -0.057031
      3          6           0        6.386870   -1.890763    0.013504
      4          1           0        5.346892    0.529158   -0.840466
      5          1           0        5.240583    0.462611    0.916063
      6          1           0        4.469217   -1.808854   -0.980887
      7          1           0        4.363700   -1.874685    0.774714
      8          1           0        6.853807   -1.545822    0.941721
      9          1           0        6.959923   -1.479617   -0.823855
     10          1           0        6.468760   -2.981570   -0.022477
     11          6           0        3.330522    0.556985   -0.078407
     12          6           0        3.183582    2.078192   -0.030196
     13          6           0        1.725764    2.533809   -0.100731
     14          1           0        2.872051    0.180434   -1.003290
     15          1           0        2.765742    0.113888    0.753239
     16          1           0        3.748934    2.517731   -0.861941
     17          1           0        3.643417    2.451900    0.893660
     18          1           0        1.152710    2.122663    0.736628
     19          1           0        1.258827    2.188868   -1.028948
     20          1           0        1.643874    3.624616   -0.064750
     21          6           0       -3.406403   -0.179604    0.418983
     22          6           0       -2.157505   -0.631653   -0.338573
     23          6           0       -0.865240   -0.340943    0.425190
     24          1           0       -3.333860    0.897422    0.623180
     25          1           0       -3.435941   -0.681672    1.395943
     26          1           0       -2.131057   -0.129935   -1.314378
     27          1           0       -2.233118   -1.707691   -0.541158
     28          1           0       -0.865500   -0.854237    1.392211
     29          1           0       -0.762859    0.732483    0.614598
     30          1           0        0.015057   -0.672167   -0.134478
     31          6           0       -4.706231   -0.463441   -0.331756
     32          6           0       -5.955129   -0.011394    0.425800
     33          6           0       -7.247394   -0.302102   -0.337963
     34          1           0       -4.676694    0.038626   -1.308716
     35          1           0       -4.778773   -1.540468   -0.535953
     36          1           0       -5.879516    1.064644    0.628385
     37          1           0       -5.981577   -0.513112    1.401605
     38          1           0       -7.349774   -1.375529   -0.527371
     39          1           0       -7.247134    0.211192   -1.304984
     40          1           0       -8.127691    0.029121    0.221705
 ---------------------------------------------------------------------

 SCF Done:  E(RHF) =  -470.732767973     A.U. after   11 cycles
 E2 =    -0.1582944164D+01 EUMP2 =    -0.47231571213725D+03

 The electronic state is 1-A.
 Alpha  occ. eigenvalues --  -11.21588 -11.21579 -11.21570 -11.21541 -11.21379
 Alpha  occ. eigenvalues --  -11.21370 -11.21318 -11.21309 -11.21060 -11.21053
 Alpha  occ. eigenvalues --  -11.20993 -11.20935  -1.08412  -1.08384  -1.03530
 Alpha  occ. eigenvalues --   -1.03457  -0.95992  -0.95895  -0.87030  -0.86898
 Alpha  occ. eigenvalues --   -0.79669  -0.79461  -0.78246  -0.78171  -0.65044
 Alpha  occ. eigenvalues --   -0.65015  -0.60957  -0.60847  -0.59403  -0.59217
 Alpha  occ. eigenvalues --   -0.57651  -0.57485  -0.55347  -0.55130  -0.52684
 Alpha  occ. eigenvalues --   -0.52616  -0.52528  -0.52204  -0.50019  -0.49753
 Alpha  occ. eigenvalues --   -0.47961  -0.47767  -0.46666  -0.46486  -0.45817
 Alpha  occ. eigenvalues --   -0.45721  -0.45677  -0.45592  -0.43767  -0.43699
 Alpha virt. eigenvalues --    0.22145   0.22990   0.23607   0.24829   0.25987
 Alpha virt. eigenvalues --    0.26622   0.26676   0.27319   0.27798   0.29403
 Alpha virt. eigenvalues --    0.30002   0.31147   0.31483   0.31982   0.32061

 Mulliken charges:
               1
     1  C   -0.298263
     2  C   -0.299676
     3  C   -0.475672
     4  H    0.149516
     5  H    0.149510
     6  H    0.151684
     7  H    0.152083
     8  H    0.155186
     9  H    0.155140
    10  H    0.160193
    11  C   -0.300026
    12  C   -0.299652
    13  C   -0.478492
    14  H    0.149167
    15  H    0.152492
    16  H    0.151536
    17  H    0.151684
    18  H    0.159966
    19  H    0.155350
    20  H    0.159108
    21  C   -0.298433
    22  C   -0.299822
    23  C   -0.480981
    24  H    0.149765
    25  H    0.149284
    26  H    0.151534
    27  H    0.151427
    28  H    0.153372
    29  H    0.159942
    30  H    0.163345
    31  C   -0.298198
    32  C   -0.299617
    33  C   -0.475679
    34  H    0.149461
    35  H    0.149546
    36  H    0.151936
    37  H    0.151837
    38  H    0.155124
    39  H    0.155153
    40  H    0.160169
 Sum of Mulliken charges =  -0.00000

 Dipole moment (field-independent basis, Debye):
    X=              0.0159    Y=              0.0114    Z=              0.0104  Tot=              0.0222
 Quadrupole moment (field-independent basis, Debye-Ang):
   XX=            -86.9905   YY=            -84.2651   ZZ=            -83.7219
   XY=              0.3466   XZ=             -0.5281   YZ=             -0.4781

 Normal termination of Gaussian 16 at Wed May  5 23:07:59 2021.
