 Gaussian 16, Revision A.03,
 Gaussian 16:  EM64L-G16RevA.03 25-Dec-2016

 -------------
 #p 6-31g* mp2
 -------------

 ------------------------------------------------------
 Input file generated by CHIRIPA (05-May-2021 14:53:16)
 ------------------------------------------------------
 Symbolic Z-matrix:
 Charge =  0 Multiplicity = 1

                         Standard orientation:
 ---------------------------------------------------------------------
 Center     Atomic      Atomic             Coordinates (Angstroms)
 Number     Number       Type             X           Y           Z
 ---------------------------------------------------------------------
      1          6           0       -3.568324    0.566947    0.047068
      2          6           0       -3.773424   -0.767461   -0.670758
      3          6           0       -5.248688   -1.146540   -0.803765
      4          1           0       -4.026051    0.513708    1.044362
      5          1           0       -4.102632    1.355753   -0.500377
      6          1           0       -3.237745   -1.553276   -0.122891
      7          1           0       -3.314988   -0.711104   -1.666386
      8          1           0       -5.793081   -0.383335   -1.369234
      9          1           0       -5.715399   -1.230293    0.183032
     10          1           0       -5.372283   -2.103742   -1.319854
     11          6           0       -2.098702    0.959567    0.187745
     12          6           0       -1.893601    2.293975    0.905570
     13          6           0       -0.418338    2.673054    1.038577
     14          1           0       -1.564393    0.170761    0.735189
     15          1           0       -1.640974    1.012806   -0.809550
     16          1           0       -2.352037    2.237618    1.901199
     17          1           0       -2.429280    3.079790    0.357703
     18          1           0        0.048373    2.756807    0.051781
     19          1           0        0.126055    1.909849    1.604046
     20          1           0       -0.294743    3.630256    1.554667
     21          6           0        0.598393   -2.193982    1.005618
     22          6           0        1.762017   -1.804021    1.676759
     23          6           0        2.664115   -0.919295    1.078406
     24          6           0        2.369842   -0.441836   -0.197810
     25          6           0        1.218974   -0.811638   -0.892101
     26          6           0        0.331056   -1.697422   -0.274413
     27          1           0       -0.096870   -2.881670    1.477943
     28          1           0        1.972217   -2.188059    2.670930
     29          1           0        3.572437   -0.600878    1.575376
     30          1           0        1.036645   -0.411974   -1.882274
     31          1           0       -0.571846   -1.998539   -0.797999
     32          7           0        3.317346    0.495344   -0.841495
     33          8           0        3.035120    0.901770   -1.966574
     34          8           0        4.324285    0.805734   -0.208747
 ---------------------------------------------------------------------

 SCF Done:  E(RHF) =  -669.534571411     A.U. after   15 cycles
 E2 =    -0.2094490895D+01 EUMP2 =    -0.67162906230657D+03

 The electronic state is 1-A.
 Alpha  occ. eigenvalues --  -20.60767 -20.60762 -15.85818 -11.31199 -11.27741
 Alpha  occ. eigenvalues --  -11.27707 -11.27477 -11.26800 -11.26718 -11.22426
 Alpha  occ. eigenvalues --  -11.21882 -11.21779 -11.21707 -11.21647 -11.21067
 Alpha  occ. eigenvalues --   -1.59839  -1.39393  -1.19360  -1.08902  -1.08745
 Alpha  occ. eigenvalues --   -1.04759  -1.03942  -0.96353  -0.95590  -0.87374
 Alpha  occ. eigenvalues --   -0.86162  -0.82422  -0.80061  -0.78715  -0.77442
 Alpha  occ. eigenvalues --   -0.72037  -0.71157  -0.70465  -0.65545  -0.65005
 Alpha  occ. eigenvalues --   -0.64746  -0.62108  -0.61340  -0.59762  -0.57979
 Alpha  occ. eigenvalues --   -0.55629  -0.55264  -0.53242  -0.53055  -0.52826
 Alpha  occ. eigenvalues --   -0.52738  -0.50305  -0.48801  -0.48791  -0.48337
 Alpha  occ. eigenvalues --   -0.47110  -0.46198  -0.46102  -0.44793  -0.44184
 Alpha  occ. eigenvalues --   -0.37308  -0.36248
 Alpha virt. eigenvalues --    0.05040   0.11179   0.16502   0.20160   0.22822
 Alpha virt. eigenvalues --    0.23693   0.25330   0.25682   0.27479   0.28511
 Alpha virt. eigenvalues --    0.29451   0.30043   0.31158   0.31506   0.31718

 Mulliken charges:
               1
     1  C   -0.297634
     2  C   -0.301184
     3  C   -0.475376
     4  H    0.150107
     5  H    0.152311
     6  H    0.142503
     7  H    0.149916
     8  H    0.158801
     9  H    0.156596
    10  H    0.160010
    11  C   -0.302568
    12  C   -0.299510
    13  C   -0.478124
    14  H    0.154005
    15  H    0.145800
    16  H    0.150539
    17  H    0.152983
    18  H    0.159576
    19  H    0.154918
    20  H    0.161912
    21  C   -0.174428
    22  C   -0.218105
    23  C   -0.172594
    24  C    0.160332
    25  C   -0.169509
    26  C   -0.217377
    27  H    0.225224
    28  H    0.223464
    29  H    0.275628
    30  H    0.274873
    31  H    0.229729
    32  N    0.488077
    33  O   -0.460800
    34  O   -0.460095
 Sum of Mulliken charges =  -0.00000

 Dipole moment (field-independent basis, Debye):
    X=             -3.3496    Y=             -3.2340    Z=              2.2627  Tot=              5.1767
 Quadrupole moment (field-independent basis, Debye-Ang):
   XX=           -110.1619   YY=            -92.4355   ZZ=            -91.9524
   XY=             -7.0593   XZ=              8.7342   YZ=             -1.1322

 Normal termination of Gaussian 16 at Thu May  6 15:32:50 2021.
