 Gaussian 16, Revision A.03,
 Gaussian 16:  EM64L-G16RevA.03 25-Dec-2016

 -------------
 #p 6-31g* mp2
 -------------

 ------------------------------------------------------
 Input file generated by CHIRIPA (05-May-2021 14:53:12)
 ------------------------------------------------------
 Symbolic Z-matrix:
 Charge =  0 Multiplicity = 1

                         Standard orientation:
 ---------------------------------------------------------------------
 Center     Atomic      Atomic             Coordinates (Angstroms)
 Number     Number       Type             X           Y           Z
 ---------------------------------------------------------------------
      1          6           0       -4.838500    0.517275   -0.254783
      2          6           0       -6.128848    0.374711    0.553092
      3          6           0       -7.163348    1.446657    0.208801
      4          1           0       -4.409994    1.513061   -0.076631
      5          1           0       -5.077426    0.466916   -1.326125
      6          1           0       -5.887387    0.423938    1.622620
      7          1           0       -6.554230   -0.620922    0.373145
      8          1           0       -7.433073    1.395442   -0.851023
      9          1           0       -6.762441    2.446239    0.405551
     10          1           0       -8.077853    1.325921    0.797836
     11          6           0       -3.794547   -0.547161    0.078183
     12          6           0       -2.504200   -0.404597   -0.729692
     13          6           0       -1.469700   -1.476543   -0.385401
     14          1           0       -3.555621   -0.496801    1.149525
     15          1           0       -4.223053   -1.542947   -0.099969
     16          1           0       -2.078817    0.591036   -0.549745
     17          1           0       -2.745661   -0.453824   -1.799220
     18          1           0       -1.870607   -2.476124   -0.582152
     19          1           0       -1.199974   -1.425328    0.674423
     20          1           0       -0.555194   -1.355807   -0.974436
     21          6           0        4.552748    2.235282   -0.098335
     22          6           0        4.316671    1.660637    1.154890
     23          6           0        3.663500    0.428988    1.259557
     24          6           0        3.258162   -0.203296    0.085160
     25          6           0        3.478828    0.343610   -1.177967
     26          6           0        4.133811    1.576096   -1.258718
     27          1           0        5.060852    3.192382   -0.170354
     28          1           0        4.640908    2.170305    2.057748
     29          1           0        3.467906   -0.038497    2.216960
     30          1           0        3.143861   -0.188309   -2.060168
     31          1           0        4.315806    2.020004   -2.233330
     32          7           0        2.565718   -1.507631    0.183308
     33          8           0        2.218536   -2.044533   -0.866377
     34          8           0        2.383277   -1.968370    1.308062
 ---------------------------------------------------------------------

 SCF Done:  E(RHF) =  -669.536101068     A.U. after   15 cycles
 E2 =    -0.2091074779D+01 EUMP2 =    -0.67162717584759D+03

 The electronic state is 1-A.
 Alpha  occ. eigenvalues --  -20.60896 -20.60888 -15.85913 -11.31258 -11.27825
 Alpha  occ. eigenvalues --  -11.27821 -11.27566 -11.26838 -11.26828 -11.21262
 Alpha  occ. eigenvalues --  -11.20968 -11.20881 -11.20815 -11.20784 -11.19872
 Alpha  occ. eigenvalues --   -1.59942  -1.39502  -1.19429  -1.08829  -1.07910
 Alpha  occ. eigenvalues --   -1.04829  -1.02941  -0.95669  -0.95356  -0.86362
 Alpha  occ. eigenvalues --   -0.86228  -0.82502  -0.79017  -0.77714  -0.77553
 Alpha  occ. eigenvalues --   -0.72140  -0.71256  -0.70539  -0.65085  -0.64833
 Alpha  occ. eigenvalues --   -0.64551  -0.62177  -0.60349  -0.58759  -0.56971
 Alpha  occ. eigenvalues --   -0.55333  -0.54654  -0.53162  -0.52922  -0.52011
 Alpha  occ. eigenvalues --   -0.51780  -0.49310  -0.48901  -0.48886  -0.47330
 Alpha  occ. eigenvalues --   -0.46080  -0.45252  -0.45185  -0.44899  -0.43124
 Alpha  occ. eigenvalues --   -0.37407  -0.36431
 Alpha virt. eigenvalues --    0.04949   0.11220   0.16416   0.21348   0.23341
 Alpha virt. eigenvalues --    0.24923   0.27132   0.27261   0.27973   0.28119
 Alpha virt. eigenvalues --    0.28735   0.30853   0.31983   0.32197   0.32282

 Mulliken charges:
               1
     1  C   -0.297463
     2  C   -0.299231
     3  C   -0.475330
     4  H    0.147391
     5  H    0.148441
     6  H    0.151500
     7  H    0.152138
     8  H    0.154634
     9  H    0.153942
    10  H    0.159356
    11  C   -0.297414
    12  C   -0.300296
    13  C   -0.480324
    14  H    0.149070
    15  H    0.149968
    16  H    0.146024
    17  H    0.149037
    18  H    0.155755
    19  H    0.156716
    20  H    0.171330
    21  C   -0.170690
    22  C   -0.218561
    23  C   -0.170911
    24  C    0.158774
    25  C   -0.171053
    26  C   -0.218486
    27  H    0.225862
    28  H    0.223674
    29  H    0.275715
    30  H    0.275618
    31  H    0.223743
    32  N    0.488742
    33  O   -0.459031
    34  O   -0.458640
 Sum of Mulliken charges =  -0.00000

 Dipole moment (field-independent basis, Debye):
    X=              2.6716    Y=              4.5048    Z=             -0.3285  Tot=              5.2477
 Quadrupole moment (field-independent basis, Debye-Ang):
   XX=            -80.8477   YY=            -97.3096   ZZ=            -89.3325
   XY=             15.8476   XZ=             -0.3463   YZ=              1.2208

 Normal termination of Gaussian 16 at Thu May  6 13:39:35 2021.
