 Gaussian 16, Revision A.03,
 Gaussian 16:  EM64L-G16RevA.03 25-Dec-2016

 -------------
 #p 6-31g* mp2
 -------------

 ------------------------------------------------------
 Input file generated by CHIRIPA (05-May-2021 14:57:24)
 ------------------------------------------------------
 Symbolic Z-matrix:
 Charge =  0 Multiplicity = 1

                         Standard orientation:
 ---------------------------------------------------------------------
 Center     Atomic      Atomic             Coordinates (Angstroms)
 Number     Number       Type             X           Y           Z
 ---------------------------------------------------------------------
      1          6           0        2.770416   -2.206116    1.132883
      2          6           0        4.046453   -1.920429    0.636261
      3          6           0        4.301357   -0.707689   -0.010913
      4          6           0        3.252301    0.200545   -0.144638
      5          6           0        1.970226   -0.054976    0.339391
      6          6           0        1.738195   -1.274121    0.983128
      7          1           0        2.581284   -3.150689    1.634288
      8          1           0        4.849997   -2.642348    0.751131
      9          1           0        5.279756   -0.460829   -0.404884
     10          1           0        1.189318    0.684486    0.209795
     11          1           0        0.746216   -1.493296    1.367815
     12          7           0        3.510049    1.487809   -0.827952
     13          8           0        2.568856    2.271232   -0.933026
     14          8           0        4.648385    1.688968   -1.245521
     15          6           0       -2.935610    1.939007    1.636972
     16          6           0       -2.209845    0.758909    1.829721
     17          6           0       -2.353835   -0.315428    0.946762
     18          6           0       -3.236331   -0.174722   -0.123142
     19          6           0       -3.973410    0.988091   -0.341931
     20          6           0       -3.813528    2.049638    0.553672
     21          1           0       -2.817582    2.768611    2.327787
     22          1           0       -1.527320    0.670172    2.670156
     23          1           0       -1.804310   -1.240447    1.072378
     24          1           0       -4.646179    1.046841   -1.188895
     25          1           0       -4.378460    2.964921    0.401507
     26          7           0       -3.397179   -1.305304   -1.064583
     27          8           0       -4.181078   -1.156261   -1.999423
     28          8           0       -2.736307   -2.319089   -0.849820
 ---------------------------------------------------------------------

 SCF Done:  E(RHF) =  -868.337492996     A.U. after   16 cycles
 E2 =    -0.2600031392D+01 EUMP2 =    -0.87093752438739D+03

 The electronic state is 1-A.
 Alpha  occ. eigenvalues --  -20.61222 -20.61199 -20.60892 -20.60882 -15.86271
 Alpha  occ. eigenvalues --  -15.85946 -11.31714 -11.31312 -11.28413 -11.28212
 Alpha  occ. eigenvalues --  -11.27968 -11.27915 -11.27882 -11.27643 -11.27376
 Alpha  occ. eigenvalues --  -11.27212 -11.26990 -11.26877  -1.60284  -1.59965
 Alpha  occ. eigenvalues --   -1.39839  -1.39518  -1.19880  -1.19497  -1.09237
 Alpha  occ. eigenvalues --   -1.08889  -1.05317  -1.04913  -0.96073  -0.95719
 Alpha  occ. eigenvalues --   -0.86689  -0.86312  -0.82922  -0.82562  -0.77986
 Alpha  occ. eigenvalues --   -0.77599  -0.72488  -0.72165  -0.71606  -0.71287
 Alpha  occ. eigenvalues --   -0.70974  -0.70593  -0.65537  -0.65328  -0.65157
 Alpha  occ. eigenvalues --   -0.64931  -0.62749  -0.62188  -0.55750  -0.55398
 Alpha  occ. eigenvalues --   -0.53597  -0.53439  -0.53219  -0.52982  -0.49255
 Alpha  occ. eigenvalues --   -0.49235  -0.48925  -0.48917  -0.45229  -0.44924
 Alpha  occ. eigenvalues --   -0.37809  -0.37463  -0.36919  -0.36513
 Alpha virt. eigenvalues --    0.04556   0.04943   0.10733   0.11136   0.15981
 Alpha virt. eigenvalues --    0.16420   0.18832   0.22071   0.24735   0.27427
 Alpha virt. eigenvalues --    0.28159   0.28972   0.30224   0.31159   0.32032

 Mulliken charges:
               1
     1  C   -0.170067
     2  C   -0.218512
     3  C   -0.170008
     4  C    0.158910
     5  C   -0.172873
     6  C   -0.217609
     7  H    0.227625
     8  H    0.224592
     9  H    0.276273
    10  H    0.275241
    11  H    0.216761
    12  N    0.488248
    13  O   -0.461412
    14  O   -0.459742
    15  C   -0.168694
    16  C   -0.221356
    17  C   -0.179923
    18  C    0.161951
    19  C   -0.168815
    20  C   -0.216830
    21  H    0.229481
    22  H    0.222084
    23  H    0.270382
    24  H    0.278398
    25  H    0.227328
    26  N    0.488221
    27  O   -0.456730
    28  O   -0.462923
 Sum of Mulliken charges =  -0.00000

 Dipole moment (field-independent basis, Debye):
    X=             -0.4832    Y=             -0.4203    Z=              5.6242  Tot=              5.6605
 Quadrupole moment (field-independent basis, Debye-Ang):
   XX=           -106.7784   YY=           -106.9536   ZZ=           -106.1616
   XY=            -32.4782   XZ=             -1.5213   YZ=             -1.1552

 Normal termination of Gaussian 16 at Thu May  6 19:39:12 2021.
