 Gaussian 16, Revision A.03,
 Gaussian 16:  EM64L-G16RevA.03 25-Dec-2016

 -------------
 #p 6-31g* mp2
 -------------

 ------------------------------------------------------
 Input file generated by CHIRIPA (05-May-2021 14:57:22)
 ------------------------------------------------------
 Symbolic Z-matrix:
 Charge =  0 Multiplicity = 1

                         Standard orientation:
 ---------------------------------------------------------------------
 Center     Atomic      Atomic             Coordinates (Angstroms)
 Number     Number       Type             X           Y           Z
 ---------------------------------------------------------------------
      1          6           0        1.721755    1.216494    1.997483
      2          6           0        1.766239   -0.181418    2.017094
      3          6           0        2.461276   -0.883616    1.027958
      4          6           0        3.103392   -0.152713    0.029581
      5          6           0        3.077409    1.240278   -0.017205
      6          6           0        2.376327    1.921637    0.982186
      7          1           0        1.179486    1.753884    2.769851
      8          1           0        1.258819   -0.731664    2.804367
      9          1           0        2.511896   -1.965641    1.019099
     10          1           0        3.593026    1.761161   -0.814851
     11          1           0        2.343476    3.007294    0.964436
     12          7           0        3.842396   -0.885068   -1.023001
     13          8           0        4.399832   -0.217815   -1.891722
     14          8           0        3.850198   -2.112475   -0.959364
     15          6           0       -2.103818    2.338963   -0.725944
     16          6           0       -1.242201    1.360307   -0.219612
     17          6           0       -1.717614    0.078705    0.073691
     18          6           0       -3.066456   -0.191015   -0.152509
     19          6           0       -3.949808    0.762651   -0.655995
     20          6           0       -3.452494    2.037542   -0.942139
     21          1           0       -1.725999    3.331936   -0.951008
     22          1           0       -0.194328    1.591566   -0.050714
     23          1           0       -1.072552   -0.697812    0.466543
     24          1           0       -4.989388    0.502308   -0.813838
     25          1           0       -4.123940    2.795600   -1.335271
     26          7           0       -3.581347   -1.544238    0.154208
     27          8           0       -4.773894   -1.756691   -0.053959
     28          8           0       -2.782622   -2.366817    0.596971
 ---------------------------------------------------------------------

 SCF Done:  E(RHF) =  -868.337070609     A.U. after   16 cycles
 E2 =    -0.2602789579D+01 EUMP2 =    -0.87093986018810D+03

 The electronic state is 1-A.
 Alpha  occ. eigenvalues --  -20.61400 -20.61381 -20.60967 -20.60953 -15.86459
 Alpha  occ. eigenvalues --  -15.86011 -11.32104 -11.31349 -11.28765 -11.28683
 Alpha  occ. eigenvalues --  -11.28496 -11.27902 -11.27856 -11.27787 -11.27697
 Alpha  occ. eigenvalues --  -11.27644 -11.26939 -11.26734  -1.60464  -1.60036
 Alpha  occ. eigenvalues --   -1.40009  -1.39592  -1.20355  -1.19505  -1.09683
 Alpha  occ. eigenvalues --   -1.08915  -1.05770  -1.04890  -0.96443  -0.95759
 Alpha  occ. eigenvalues --   -0.87132  -0.86298  -0.83253  -0.82584  -0.78251
 Alpha  occ. eigenvalues --   -0.77641  -0.72666  -0.72232  -0.71796  -0.71374
 Alpha  occ. eigenvalues --   -0.71357  -0.70646  -0.65959  -0.65707  -0.65153
 Alpha  occ. eigenvalues --   -0.64930  -0.63053  -0.62311  -0.56207  -0.55500
 Alpha  occ. eigenvalues --   -0.54150  -0.53794  -0.53246  -0.52804  -0.49449
 Alpha  occ. eigenvalues --   -0.49405  -0.48993  -0.48979  -0.45352  -0.45003
 Alpha  occ. eigenvalues --   -0.38368  -0.37506  -0.37404  -0.36444
 Alpha virt. eigenvalues --    0.04215   0.04901   0.10109   0.11175   0.15558
 Alpha virt. eigenvalues --    0.16432   0.20396   0.21662   0.26174   0.27485
 Alpha virt. eigenvalues --    0.27606   0.28253   0.30217   0.31312   0.31733

 Mulliken charges:
               1
     1  C   -0.175037
     2  C   -0.223831
     3  C   -0.171718
     4  C    0.159564
     5  C   -0.169050
     6  C   -0.234211
     7  H    0.231467
     8  H    0.233096
     9  H    0.283560
    10  H    0.278827
    11  H    0.225350
    12  N    0.488165
    13  O   -0.458852
    14  O   -0.455175
    15  C   -0.174645
    16  C   -0.227457
    17  C   -0.178310
    18  C    0.160176
    19  C   -0.171535
    20  C   -0.218021
    21  H    0.222975
    22  H    0.236118
    23  H    0.272886
    24  H    0.275745
    25  H    0.223312
    26  N    0.488253
    27  O   -0.459435
    28  O   -0.462217
 Sum of Mulliken charges =  -0.00000

 Dipole moment (field-independent basis, Debye):
    X=             -0.4545    Y=              7.1828    Z=              2.6931  Tot=              7.6845
 Quadrupole moment (field-independent basis, Debye-Ang):
   XX=           -127.7612   YY=           -104.0161   ZZ=           -103.8513
   XY=             -7.0473   XZ=             15.6598   YZ=             -3.6445

 Normal termination of Gaussian 16 at Thu May  6 14:34:59 2021.
