 Gaussian 16, Revision A.03,
 Gaussian 16:  EM64L-G16RevA.03 25-Dec-2016

 -------------
 #p 6-31g* mp2
 -------------

 ------------------------------------------------------
 Input file generated by CHIRIPA (05-May-2021 14:51:11)
 ------------------------------------------------------
 Symbolic Z-matrix:
 Charge =  0 Multiplicity = 1

                         Standard orientation:
 ---------------------------------------------------------------------
 Center     Atomic      Atomic             Coordinates (Angstroms)
 Number     Number       Type             X           Y           Z
 ---------------------------------------------------------------------
      1          6           0       -2.321284    0.734875    0.019102
      2          6           0       -2.758528    2.089077   -0.540308
      3          6           0       -2.433490    3.249991    0.400130
      4          1           0       -2.810318    0.570818    0.989089
      5          1           0       -1.240167    0.758337    0.214116
      6          1           0       -3.838256    2.062609   -0.735507
      7          1           0       -2.268545    2.249844   -1.509167
      8          1           0       -1.356020    3.304912    0.586258
      9          1           0       -2.934650    3.116614    1.364314
     10          1           0       -2.754594    4.208502   -0.019401
     11          6           0       -2.639437   -0.435548   -0.909669
     12          6           0       -2.202193   -1.789750   -0.350258
     13          6           0       -2.527231   -2.950664   -1.290697
     14          1           0       -3.720554   -0.459010   -1.104683
     15          1           0       -2.150402   -0.271491   -1.879656
     16          1           0       -2.692176   -1.950517    0.618600
     17          1           0       -1.122464   -1.763282   -0.155060
     18          1           0       -2.026070   -2.817287   -2.254880
     19          1           0       -3.604700   -3.005585   -1.476825
     20          1           0       -2.206126   -3.909175   -0.871165
     21          6           0        3.115551    0.193300    0.195601
     22          6           0        3.331891    0.046316   -1.310911
     23          6           0        4.606690    0.737729   -1.795298
     24          1           0        3.075143    1.260962    0.451350
     25          1           0        3.983462   -0.222513    0.725908
     26          1           0        2.463209    0.461031   -1.838186
     27          1           0        3.371597   -1.021122   -1.563132
     28          1           0        5.485990    0.318457   -1.295655
     29          1           0        4.572442    1.809031   -1.572271
     30          1           0        4.741730    0.620122   -2.875017
     31          6           0        1.845170   -0.492627    0.694966
     32          6           0        1.628829   -0.345643    2.201478
     33          6           0        0.354030   -1.037056    2.685865
     34          1           0        0.977259   -0.076814    0.164658
     35          1           0        1.885577   -1.560289    0.439216
     36          1           0        1.589124    0.721795    2.453699
     37          1           0        2.497512   -0.760358    2.728753
     38          1           0        0.388279   -2.108358    2.462838
     39          1           0       -0.525270   -0.617784    2.186221
     40          1           0        0.218990   -0.919449    3.765583
 ---------------------------------------------------------------------

 SCF Done:  E(RHF) =  -470.732027067     A.U. after   11 cycles
 E2 =    -0.1585297427D+01 EUMP2 =    -0.47231732449463D+03

 The electronic state is 1-A.
 Alpha  occ. eigenvalues --  -11.21655 -11.21653 -11.21592 -11.21508 -11.21450
 Alpha  occ. eigenvalues --  -11.21441 -11.21390 -11.21367 -11.21127 -11.21108
 Alpha  occ. eigenvalues --  -11.21028 -11.20922  -1.08522  -1.08411  -1.03557
 Alpha  occ. eigenvalues --   -1.03516  -0.96004  -0.95978  -0.87018  -0.86995
 Alpha  occ. eigenvalues --   -0.79681  -0.79562  -0.78526  -0.78048  -0.65320
 Alpha  occ. eigenvalues --   -0.64900  -0.60965  -0.60914  -0.59428  -0.59296
 Alpha  occ. eigenvalues --   -0.57623  -0.57587  -0.55328  -0.55241  -0.52706
 Alpha  occ. eigenvalues --   -0.52664  -0.52436  -0.52392  -0.49973  -0.49908
 Alpha  occ. eigenvalues --   -0.48116  -0.47843  -0.46840  -0.46646  -0.46341
 Alpha  occ. eigenvalues --   -0.45759  -0.45727  -0.44847  -0.43805  -0.43783
 Alpha virt. eigenvalues --    0.20724   0.23329   0.23793   0.24175   0.25675
 Alpha virt. eigenvalues --    0.25834   0.26896   0.27840   0.28293   0.30058
 Alpha virt. eigenvalues --    0.30612   0.31468   0.31538   0.31932   0.32139

 Mulliken charges:
               1
     1  C   -0.309167
     2  C   -0.298632
     3  C   -0.475724
     4  H    0.150477
     5  H    0.157195
     6  H    0.152385
     7  H    0.151747
     8  H    0.154401
     9  H    0.155537
    10  H    0.160590
    11  C   -0.297161
    12  C   -0.306831
    13  C   -0.475522
    14  H    0.149531
    15  H    0.149048
    16  H    0.152079
    17  H    0.160706
    18  H    0.154915
    19  H    0.154761
    20  H    0.160025
    21  C   -0.297531
    22  C   -0.299649
    23  C   -0.475724
    24  H    0.149504
    25  H    0.149990
    26  H    0.151198
    27  H    0.152106
    28  H    0.155408
    29  H    0.155260
    30  H    0.160360
    31  C   -0.307605
    32  C   -0.298944
    33  C   -0.483675
    34  H    0.156036
    35  H    0.150017
    36  H    0.151314
    37  H    0.151846
    38  H    0.154531
    39  H    0.166013
    40  H    0.159187
 Sum of Mulliken charges =  -0.00000

 Dipole moment (field-independent basis, Debye):
    X=             -0.0080    Y=              0.0066    Z=             -0.0030  Tot=              0.0108
 Quadrupole moment (field-independent basis, Debye-Ang):
   XX=            -84.4748   YY=            -85.1494   ZZ=            -85.2348
   XY=             -0.9566   XZ=             -0.0597   YZ=             -0.4911

 Normal termination of Gaussian 16 at Thu May  6 00:39:34 2021.
