 Gaussian 16, Revision A.03,
 Gaussian 16:  EM64L-G16RevA.03 25-Dec-2016

 -------------
 #p 6-31g* mp2
 -------------

 ------------------------------------------------------
 Input file generated by CHIRIPA (05-May-2021 14:53:13)
 ------------------------------------------------------
 Symbolic Z-matrix:
 Charge =  0 Multiplicity = 1

                         Standard orientation:
 ---------------------------------------------------------------------
 Center     Atomic      Atomic             Coordinates (Angstroms)
 Number     Number       Type             X           Y           Z
 ---------------------------------------------------------------------
      1          6           0        3.566174    0.652982   -0.739749
      2          6           0        3.000859    1.917989   -0.093097
      3          6           0        2.394627    2.882783   -1.112632
      4          1           0        4.329165    0.935736   -1.477883
      5          1           0        2.766205    0.145036   -1.296019
      6          1           0        3.801328    2.422665    0.462931
      7          1           0        2.239262    1.632181    0.643720
      8          1           0        1.577665    2.401551   -1.659980
      9          1           0        3.148606    3.196526   -1.841796
     10          1           0        1.996513    3.780149   -0.628794
     11          6           0        4.175714   -0.321348    0.266666
     12          6           0        4.741029   -1.586356   -0.379986
     13          6           0        5.347261   -2.551149    0.639548
     14          1           0        4.975683    0.186597    0.822935
     15          1           0        3.412723   -0.604102    1.004799
     16          1           0        5.502626   -1.300548   -1.116804
     17          1           0        3.940560   -2.091032   -0.936015
     18          1           0        4.593281   -2.864893    1.368713
     19          1           0        6.164223   -2.069918    1.186896
     20          1           0        5.745375   -3.448516    0.155711
     21          6           0       -1.398478    0.686339    1.933332
     22          6           0       -2.736862    0.461966    2.272309
     23          6           0       -3.646430    0.009917    1.311639
     24          6           0       -3.181341   -0.208421    0.015756
     25          6           0       -1.854139    0.005908   -0.352871
     26          6           0       -0.962157    0.457996    0.624131
     27          1           0       -0.698734    1.037516    2.685946
     28          1           0       -3.078523    0.638452    3.288265
     29          1           0       -4.688087   -0.171920    1.546804
     30          1           0       -1.543151   -0.178954   -1.373916
     31          1           0        0.076671    0.631394    0.358019
     32          7           0       -4.134951   -0.687006   -1.009907
     33          8           0       -3.700219   -0.871820   -2.144582
     34          8           0       -5.299066   -0.868244   -0.659725
 ---------------------------------------------------------------------

 SCF Done:  E(RHF) =  -669.535419882     A.U. after   15 cycles
 E2 =    -0.2091412656D+01 EUMP2 =    -0.67162683253814D+03

 The electronic state is 1-A.
 Alpha  occ. eigenvalues --  -20.60754 -20.60749 -15.85808 -11.31174 -11.27743
 Alpha  occ. eigenvalues --  -11.27739 -11.27483 -11.26760 -11.26727 -11.22675
 Alpha  occ. eigenvalues --  -11.22275 -11.22185 -11.22119 -11.21958 -11.21546
 Alpha  occ. eigenvalues --   -1.59830  -1.39383  -1.19345  -1.09258  -1.08740
 Alpha  occ. eigenvalues --   -1.04752  -1.04304  -0.96725  -0.95576  -0.87739
 Alpha  occ. eigenvalues --   -0.86151  -0.82409  -0.80383  -0.79044  -0.77459
 Alpha  occ. eigenvalues --   -0.72026  -0.71153  -0.70457  -0.65997  -0.64998
 Alpha  occ. eigenvalues --   -0.64721  -0.62210  -0.61579  -0.60102  -0.58330
 Alpha  occ. eigenvalues --   -0.56018  -0.55247  -0.53409  -0.53138  -0.53076
 Alpha  occ. eigenvalues --   -0.52839  -0.50676  -0.48802  -0.48781  -0.48659
 Alpha  occ. eigenvalues --   -0.47445  -0.46574  -0.46505  -0.44789  -0.44555
 Alpha  occ. eigenvalues --   -0.37327  -0.36351
 Alpha virt. eigenvalues --    0.05078   0.11288   0.16558   0.18405   0.22783
 Alpha virt. eigenvalues --    0.23682   0.25410   0.25900   0.27294   0.28291
 Alpha virt. eigenvalues --    0.28802   0.30508   0.31011   0.31222   0.31980

 Mulliken charges:
               1
     1  C   -0.299939
     2  C   -0.303412
     3  C   -0.476436
     4  H    0.154961
     5  H    0.146997
     6  H    0.157778
     7  H    0.139887
     8  H    0.153119
     9  H    0.160733
    10  H    0.162945
    11  C   -0.297986
    12  C   -0.300331
    13  C   -0.476174
    14  H    0.151592
    15  H    0.145626
    16  H    0.153985
    17  H    0.153268
    18  H    0.155149
    19  H    0.155748
    20  H    0.162871
    21  C   -0.172967
    22  C   -0.218445
    23  C   -0.171283
    24  C    0.159036
    25  C   -0.172682
    26  C   -0.226484
    27  H    0.225421
    28  H    0.223379
    29  H    0.275570
    30  H    0.275485
    31  H    0.235547
    32  N    0.487992
    33  O   -0.460466
    34  O   -0.460484
 Sum of Mulliken charges =  -0.00000

 Dipole moment (field-independent basis, Debye):
    X=              3.5766    Y=              1.7122    Z=              3.5588  Tot=              5.3281
 Quadrupole moment (field-independent basis, Debye-Ang):
   XX=           -112.1789   YY=            -96.3885   ZZ=            -92.9729
   XY=             -5.2092   XZ=            -15.0633   YZ=             -0.3635

 Normal termination of Gaussian 16 at Thu May  6 00:59:52 2021.
