 Gaussian 16, Revision A.03,
 Gaussian 16:  EM64L-G16RevA.03 25-Dec-2016

 -------------
 #p 6-31g* mp2
 -------------

 ------------------------------------------------------
 Input file generated by CHIRIPA (05-May-2021 14:55:24)
 ------------------------------------------------------
 Symbolic Z-matrix:
 Charge =  0 Multiplicity = 1

                         Standard orientation:
 ---------------------------------------------------------------------
 Center     Atomic      Atomic             Coordinates (Angstroms)
 Number     Number       Type             X           Y           Z
 ---------------------------------------------------------------------
      1          6           0        4.815159   -1.826097    0.303361
      2          6           0        5.179698   -0.567022   -0.184861
      3          6           0        4.215341    0.427099   -0.375355
      4          6           0        2.889748    0.126517   -0.065932
      5          6           0        2.495199   -1.118264    0.422065
      6          6           0        3.476433   -2.097222    0.604735
      7          1           0        5.570849   -2.592465    0.448303
      8          1           0        6.218610   -0.353646   -0.419758
      9          1           0        4.469893    1.410364   -0.751936
     10          1           0        1.451556   -1.301288    0.647298
     11          1           0        3.190428   -3.074143    0.984040
     12          7           0        1.859893    1.170923   -0.263458
     13          8           0        0.698801    0.881052    0.016678
     14          8           0        2.233286    2.259622   -0.694675
     15          6           0       -4.061847   -0.536942   -0.413113
     16          6           0       -4.832997   -1.659018    0.282774
     17          6           0       -5.116949   -2.843002   -0.642075
     18          1           0       -4.634422   -0.193483   -1.285545
     19          1           0       -3.114200   -0.937405   -0.799104
     20          1           0       -5.778282   -1.256237    0.668546
     21          1           0       -4.258609   -1.999715    1.153762
     22          1           0       -4.182009   -3.271761   -1.017115
     23          1           0       -5.710316   -2.524057   -1.505089
     24          1           0       -5.669035   -3.633526   -0.124261
     25          6           0       -3.770423    0.653712    0.498558
     26          6           0       -2.999273    1.775788   -0.197329
     27          6           0       -2.715320    2.959771    0.727522
     28          1           0       -4.718070    1.054176    0.884549
     29          1           0       -3.197848    0.310252    1.370991
     30          1           0       -3.573661    2.116486   -1.068316
     31          1           0       -2.053988    1.373006   -0.583100
     32          1           0       -2.121953    2.640827    1.590534
     33          1           0       -3.650260    3.388530    1.102562
     34          1           0       -2.163235    3.750297    0.209708
 ---------------------------------------------------------------------

 SCF Done:  E(RHF) =  -669.536210123     A.U. after   15 cycles
 E2 =    -0.2091039312D+01 EUMP2 =    -0.67162724943428D+03

 The electronic state is 1-A.
 Alpha  occ. eigenvalues --  -20.61002 -20.60997 -15.86037 -11.31339 -11.27902
 Alpha  occ. eigenvalues --  -11.27895 -11.27632 -11.26903 -11.26893 -11.21037
 Alpha  occ. eigenvalues --  -11.20666 -11.20569 -11.20294 -11.20003 -11.19578
 Alpha  occ. eigenvalues --   -1.60061  -1.39619  -1.19505  -1.08912  -1.07464
 Alpha  occ. eigenvalues --   -1.04899  -1.02503  -0.95758  -0.94998  -0.86300
 Alpha  occ. eigenvalues --   -0.86028  -0.82594  -0.78640  -0.77650  -0.77194
 Alpha  occ. eigenvalues --   -0.72264  -0.71374  -0.70614  -0.65164  -0.64902
 Alpha  occ. eigenvalues --   -0.64090  -0.62247  -0.59880  -0.58432  -0.56574
 Alpha  occ. eigenvalues --   -0.55403  -0.54295  -0.53231  -0.52990  -0.51704
 Alpha  occ. eigenvalues --   -0.51426  -0.49030  -0.49014  -0.48960  -0.46937
 Alpha  occ. eigenvalues --   -0.45683  -0.45064  -0.44766  -0.44516  -0.42776
 Alpha  occ. eigenvalues --   -0.37482  -0.36499
 Alpha virt. eigenvalues --    0.04875   0.11156   0.16371   0.21271   0.23708
 Alpha virt. eigenvalues --    0.25336   0.27189   0.27492   0.28180   0.28566
 Alpha virt. eigenvalues --    0.28961   0.30881   0.32259   0.32449   0.32684

 Mulliken charges:
               1
     1  C   -0.170529
     2  C   -0.218574
     3  C   -0.170433
     4  C    0.157652
     5  C   -0.170783
     6  C   -0.218498
     7  H    0.226182
     8  H    0.223993
     9  H    0.276005
    10  H    0.275274
    11  H    0.223977
    12  N    0.492147
    13  O   -0.464079
    14  O   -0.458385
    15  C   -0.297684
    16  C   -0.298599
    17  C   -0.474804
    18  H    0.147998
    19  H    0.149860
    20  H    0.150988
    21  H    0.149142
    22  H    0.152774
    23  H    0.155004
    24  H    0.157586
    25  C   -0.296901
    26  C   -0.307963
    27  C   -0.471846
    28  H    0.144490
    29  H    0.148177
    30  H    0.144092
    31  H    0.178181
    32  H    0.156819
    33  H    0.145446
    34  H    0.163294
 Sum of Mulliken charges =  -0.00000

 Dipole moment (field-independent basis, Debye):
    X=              4.0185    Y=             -3.6313    Z=              0.6488  Tot=              5.4549
 Quadrupole moment (field-independent basis, Debye-Ang):
   XX=            -72.1509   YY=            -95.1125   ZZ=            -95.4881
   XY=             -8.4452   XZ=              0.7051   YZ=             -1.6922

 Normal termination of Gaussian 16 at Wed May  5 16:04:01 2021.
