 Gaussian 16, Revision A.03,
 Gaussian 16:  EM64L-G16RevA.03 25-Dec-2016

 -------------
 #p 6-31g* mp2
 -------------

 ------------------------------------------------------
 Input file generated by CHIRIPA (05-May-2021 14:51:11)
 ------------------------------------------------------
 Symbolic Z-matrix:
 Charge =  0 Multiplicity = 1

                         Standard orientation:
 ---------------------------------------------------------------------
 Center     Atomic      Atomic             Coordinates (Angstroms)
 Number     Number       Type             X           Y           Z
 ---------------------------------------------------------------------
      1          6           0        4.878649   -0.115522    0.041263
      2          6           0        5.178651   -1.537595   -0.433807
      3          6           0        6.474762   -2.096237    0.154247
      4          1           0        5.718052    0.539465   -0.229551
      5          1           0        4.817723   -0.108099    1.138363
      6          1           0        5.237623   -1.542595   -1.529760
      7          1           0        4.338351   -2.189233   -0.161999
      8          1           0        6.422832   -2.120227    1.247558
      9          1           0        7.327213   -1.469915   -0.127974
     10          1           0        6.669855   -3.113755   -0.198537
     11          6           0        3.586093    0.456708   -0.538030
     12          6           0        3.286092    1.878781   -0.062959
     13          6           0        1.989980    2.437423   -0.651013
     14          1           0        3.647020    0.449285   -1.635129
     15          1           0        2.746690   -0.198278   -0.267215
     16          1           0        4.126392    2.530419   -0.334767
     17          1           0        3.227120    1.883782    1.032994
     18          1           0        1.137529    1.811101   -0.368792
     19          1           0        2.041910    2.461413   -1.744324
     20          1           0        1.794888    3.454941   -0.298229
     21          6           0       -4.842171   -0.627714    0.197232
     22          6           0       -5.900774   -0.119175   -0.781919
     23          6           0       -7.114610   -1.044407   -0.873268
     24          1           0       -4.517915   -1.630900   -0.111667
     25          1           0       -5.295757   -0.738309    1.191929
     26          1           0       -5.444974   -0.008255   -1.774168
     27          1           0       -6.222409    0.882997   -0.470762
     28          1           0       -7.595451   -1.146778    0.104952
     29          1           0       -6.813598   -2.043093   -1.205859
     30          1           0       -7.858808   -0.661858   -1.578737
     31          6           0       -3.622571    0.286528    0.299535
     32          6           0       -2.563969   -0.222011    1.278685
     33          6           0       -1.350133    0.703220    1.370033
     34          1           0       -3.168985    0.397122   -0.695163
     35          1           0       -3.946827    1.289714    0.608432
     36          1           0       -2.242333   -1.224183    0.967528
     37          1           0       -3.019768   -0.332932    2.270934
     38          1           0       -1.651144    1.701907    1.702626
     39          1           0       -0.869291    0.805592    0.391815
     40          1           0       -0.605934    0.320672    2.075502
 ---------------------------------------------------------------------

 SCF Done:  E(RHF) =  -470.733247586     A.U. after   11 cycles
 E2 =    -0.1582316996D+01 EUMP2 =    -0.47231556458188D+03

 The electronic state is 1-A.
 Alpha  occ. eigenvalues --  -11.21632 -11.21607 -11.21585 -11.21544 -11.21418
 Alpha  occ. eigenvalues --  -11.21374 -11.21358 -11.21314 -11.21115 -11.21075
 Alpha  occ. eigenvalues --  -11.21059 -11.20967  -1.08447  -1.08394  -1.03556
 Alpha  occ. eigenvalues --   -1.03484  -0.96019  -0.95924  -0.87052  -0.86927
 Alpha  occ. eigenvalues --   -0.79647  -0.79523  -0.78261  -0.78205  -0.65091
 Alpha  occ. eigenvalues --   -0.65014  -0.61027  -0.60825  -0.59369  -0.59306
 Alpha  occ. eigenvalues --   -0.57654  -0.57522  -0.55435  -0.55108  -0.52708
 Alpha  occ. eigenvalues --   -0.52633  -0.52516  -0.52275  -0.50101  -0.49729
 Alpha  occ. eigenvalues --   -0.48004  -0.47794  -0.46733  -0.46477  -0.45824
 Alpha  occ. eigenvalues --   -0.45752  -0.45709  -0.45617  -0.43804  -0.43746
 Alpha virt. eigenvalues --    0.22060   0.22996   0.23608   0.24733   0.25935
 Alpha virt. eigenvalues --    0.26758   0.27069   0.27580   0.27793   0.28896
 Alpha virt. eigenvalues --    0.30309   0.31612   0.31732   0.31796   0.32185

 Mulliken charges:
               1
     1  C   -0.298253
     2  C   -0.299623
     3  C   -0.475680
     4  H    0.149619
     5  H    0.149496
     6  H    0.151833
     7  H    0.151838
     8  H    0.155159
     9  H    0.155170
    10  H    0.160154
    11  C   -0.298483
    12  C   -0.298935
    13  C   -0.482941
    14  H    0.149237
    15  H    0.149599
    16  H    0.151567
    17  H    0.152010
    18  H    0.163166
    19  H    0.154252
    20  H    0.160139
    21  C   -0.298322
    22  C   -0.299689
    23  C   -0.475721
    24  H    0.149650
    25  H    0.149529
    26  H    0.152046
    27  H    0.152000
    28  H    0.155171
    29  H    0.155183
    30  H    0.160306
    31  C   -0.298507
    32  C   -0.299520
    33  C   -0.480158
    34  H    0.149881
    35  H    0.149839
    36  H    0.151845
    37  H    0.152029
    38  H    0.156122
    39  H    0.159183
    40  H    0.159807
 Sum of Mulliken charges =  -0.00000

 Dipole moment (field-independent basis, Debye):
    X=             -0.0344    Y=              0.0023    Z=              0.0098  Tot=              0.0359
 Quadrupole moment (field-independent basis, Debye-Ang):
   XX=            -86.0936   YY=            -85.0325   ZZ=            -83.7330
   XY=             -0.1214   XZ=             -1.2227   YZ=              0.2202

 Normal termination of Gaussian 16 at Thu May  6 07:02:07 2021.
