 Gaussian 16, Revision A.03,
 Gaussian 16:  EM64L-G16RevA.03 25-Dec-2016

 -------------
 #p 6-31g* mp2
 -------------

 ------------------------------------------------------
 Input file generated by CHIRIPA (05-May-2021 14:55:22)
 ------------------------------------------------------
 Symbolic Z-matrix:
 Charge =  0 Multiplicity = 1

                         Standard orientation:
 ---------------------------------------------------------------------
 Center     Atomic      Atomic             Coordinates (Angstroms)
 Number     Number       Type             X           Y           Z
 ---------------------------------------------------------------------
      1          6           0       -4.895996    0.577354   -0.823871
      2          6           0       -4.467577   -0.691295   -1.228233
      3          6           0       -3.308752   -1.255440   -0.686557
      4          6           0       -2.599393   -0.519796    0.261561
      5          6           0       -3.000570    0.746381    0.684812
      6          6           0       -4.162419    1.290885    0.129679
      7          1           0       -5.797374    1.007966   -1.249885
      8          1           0       -5.035292   -1.247720   -1.968594
      9          1           0       -2.954436   -2.235652   -0.981622
     10          1           0       -2.413669    1.276948    1.424720
     11          1           0       -4.492761    2.276337    0.445597
     12          7           0       -1.370996   -1.106635    0.842132
     13          8           0       -0.763758   -0.438180    1.675839
     14          8           0       -1.038678   -2.223942    0.452484
     15          6           0        3.988177   -0.051135   -0.478246
     16          6           0        5.414458   -0.111424    0.069543
     17          6           0        6.205713   -1.302560   -0.471662
     18          1           0        3.466014   -0.984554   -0.227208
     19          1           0        4.026022    0.000562   -1.575192
     20          1           0        5.373964   -0.161596    1.165197
     21          1           0        5.933225    0.822326   -0.182662
     22          1           0        6.275786   -1.254577   -1.563169
     23          1           0        5.713349   -2.244089   -0.207651
     24          1           0        7.222407   -1.326313   -0.067151
     25          6           0        3.184553    1.134215    0.053603
     26          6           0        1.758272    1.194504   -0.494186
     27          6           0        0.967017    2.385641    0.047019
     28          1           0        3.146707    1.082518    1.150549
     29          1           0        3.706715    2.067634   -0.197435
     30          1           0        1.239505    0.260754   -0.241980
     31          1           0        1.798764    1.244676   -1.589841
     32          1           0        1.459381    3.327170   -0.216991
     33          1           0        0.896943    2.337657    1.138527
     34          1           0       -0.049678    2.409394   -0.357492
 ---------------------------------------------------------------------

 SCF Done:  E(RHF) =  -669.536342894     A.U. after   15 cycles
 E2 =    -0.2092175098D+01 EUMP2 =    -0.67162851799256D+03

 The electronic state is 1-A.
 Alpha  occ. eigenvalues --  -20.60970 -20.60961 -15.85985 -11.31287 -11.27847
 Alpha  occ. eigenvalues --  -11.27837 -11.27582 -11.26851 -11.26840 -11.20879
 Alpha  occ. eigenvalues --  -11.20659 -11.20534 -11.20472 -11.20430 -11.20390
 Alpha  occ. eigenvalues --   -1.60027  -1.39581  -1.19453  -1.08862  -1.07586
 Alpha  occ. eigenvalues --   -1.04844  -1.02752  -0.95710  -0.95228  -0.86275
 Alpha  occ. eigenvalues --   -0.86223  -0.82542  -0.78827  -0.77597  -0.77401
 Alpha  occ. eigenvalues --   -0.72214  -0.71357  -0.70559  -0.65110  -0.64846
 Alpha  occ. eigenvalues --   -0.64184  -0.62191  -0.60115  -0.58617  -0.56853
 Alpha  occ. eigenvalues --   -0.55351  -0.54494  -0.53184  -0.52936  -0.51964
 Alpha  occ. eigenvalues --   -0.51664  -0.49220  -0.48973  -0.48915  -0.47154
 Alpha  occ. eigenvalues --   -0.45834  -0.45101  -0.44923  -0.44688  -0.43013
 Alpha  occ. eigenvalues --   -0.37427  -0.36438
 Alpha virt. eigenvalues --    0.04888   0.11160   0.16374   0.21240   0.23719
 Alpha virt. eigenvalues --    0.24780   0.27090   0.27452   0.28044   0.28304
 Alpha virt. eigenvalues --    0.28944   0.30970   0.31976   0.32061   0.32475

 Mulliken charges:
               1
     1  C   -0.170430
     2  C   -0.218560
     3  C   -0.170712
     4  C    0.158134
     5  C   -0.170486
     6  C   -0.219191
     7  H    0.226037
     8  H    0.223825
     9  H    0.275798
    10  H    0.277490
    11  H    0.224163
    12  N    0.487582
    13  O   -0.458959
    14  O   -0.459509
    15  C   -0.299917
    16  C   -0.299263
    17  C   -0.475554
    18  H    0.157854
    19  H    0.145780
    20  H    0.152940
    21  H    0.148967
    22  H    0.153212
    23  H    0.157055
    24  H    0.157902
    25  C   -0.297698
    26  C   -0.303176
    27  C   -0.475269
    28  H    0.154305
    29  H    0.144420
    30  H    0.166733
    31  H    0.145078
    32  H    0.149534
    33  H    0.162598
    34  H    0.149317
 Sum of Mulliken charges =  -0.00000

 Dipole moment (field-independent basis, Debye):
    X=             -4.5100    Y=              1.8992    Z=             -1.9088  Tot=              5.2527
 Quadrupole moment (field-independent basis, Debye-Ang):
   XX=            -73.6768   YY=            -94.5566   ZZ=            -94.3744
   XY=             -2.1696   XZ=              5.0625   YZ=              3.7934

 Normal termination of Gaussian 16 at Thu May  6 01:30:25 2021.
