 Gaussian 16, Revision A.03,
 Gaussian 16:  EM64L-G16RevA.03 25-Dec-2016

 -------------
 #p 6-31g* mp2
 -------------

 ------------------------------------------------------
 Input file generated by CHIRIPA (05-May-2021 14:51:08)
 ------------------------------------------------------
 Symbolic Z-matrix:
 Charge =  0 Multiplicity = 1

                         Standard orientation:
 ---------------------------------------------------------------------
 Center     Atomic      Atomic             Coordinates (Angstroms)
 Number     Number       Type             X           Y           Z
 ---------------------------------------------------------------------
      1          6           0       -2.568001    0.839005   -0.089787
      2          6           0       -3.686272    1.665724    0.545815
      3          6           0       -3.308948    3.137432    0.717561
      4          1           0       -1.664718    0.917434    0.530596
      5          1           0       -2.313663    1.269859   -1.068088
      6          1           0       -3.939377    1.232616    1.522018
      7          1           0       -4.587054    1.585163   -0.076051
      8          1           0       -3.076355    3.591092   -0.251302
      9          1           0       -2.424997    3.236542    1.355848
     10          1           0       -4.122650    3.709919    1.173639
     11          6           0       -2.930190   -0.634350   -0.268030
     12          6           0       -1.811918   -1.461069   -0.903632
     13          6           0       -2.189243   -2.932776   -1.075378
     14          1           0       -3.184527   -1.065204    0.710271
     15          1           0       -3.833473   -0.712779   -0.888412
     16          1           0       -0.911136   -1.380508   -0.281766
     17          1           0       -1.558814   -1.027961   -1.879835
     18          1           0       -3.073193   -3.031887   -1.713664
     19          1           0       -2.421836   -3.386436   -0.106515
     20          1           0       -1.375541   -3.505264   -1.531456
     21          6           0        2.989147    0.608982    0.319784
     22          6           0        3.425157    1.361987   -0.937541
     23          6           0        3.902764    2.783546   -0.639461
     24          1           0        2.185862    1.170749    0.815864
     25          1           0        3.829032    0.573790    1.027421
     26          1           0        2.585127    1.394545   -1.643167
     27          1           0        4.227365    0.798263   -1.430789
     28          1           0        4.756789    2.767367    0.045360
     29          1           0        3.105221    3.367036   -0.168224
     30          1           0        4.209650    3.303641   -1.552249
     31          6           0        2.509044   -0.813638    0.038033
     32          6           0        2.073034   -1.566642    1.295358
     33          6           0        1.595426   -2.988201    0.997278
     34          1           0        1.669159   -0.778445   -0.669605
     35          1           0        3.312328   -1.375405   -0.458047
     36          1           0        1.270825   -1.002918    1.788606
     37          1           0        2.913063   -1.599201    2.000984
     38          1           0        2.392970   -3.571692    0.526041
     39          1           0        0.741402   -2.972022    0.312457
     40          1           0        1.288541   -3.508298    1.910067
 ---------------------------------------------------------------------

 SCF Done:  E(RHF) =  -470.732969459     A.U. after   11 cycles
 E2 =    -0.1583851607D+01 EUMP2 =    -0.47231682106573D+03

 The electronic state is 1-A.
 Alpha  occ. eigenvalues --  -11.21658 -11.21652 -11.21615 -11.21583 -11.21471
 Alpha  occ. eigenvalues --  -11.21410 -11.21387 -11.21326 -11.21126 -11.21115
 Alpha  occ. eigenvalues --  -11.21054 -11.21029  -1.08505  -1.08412  -1.03620
 Alpha  occ. eigenvalues --   -1.03499  -0.96055  -0.95951  -0.87060  -0.86975
 Alpha  occ. eigenvalues --   -0.79679  -0.79570  -0.78343  -0.78203  -0.65291
 Alpha  occ. eigenvalues --   -0.64926  -0.61250  -0.60707  -0.59434  -0.59298
 Alpha  occ. eigenvalues --   -0.57706  -0.57525  -0.55441  -0.55124  -0.52736
 Alpha  occ. eigenvalues --   -0.52660  -0.52493  -0.52349  -0.49981  -0.49898
 Alpha  occ. eigenvalues --   -0.48040  -0.47868  -0.46790  -0.46537  -0.46012
 Alpha  occ. eigenvalues --   -0.45799  -0.45722  -0.45448  -0.43845  -0.43771
 Alpha virt. eigenvalues --    0.20114   0.23076   0.23427   0.24656   0.25858
 Alpha virt. eigenvalues --    0.26531   0.26710   0.27746   0.28862   0.29514
 Alpha virt. eigenvalues --    0.30976   0.31236   0.31570   0.31773   0.32214

 Mulliken charges:
               1
     1  C   -0.298575
     2  C   -0.299695
     3  C   -0.475754
     4  H    0.148914
     5  H    0.149543
     6  H    0.152139
     7  H    0.152226
     8  H    0.155249
     9  H    0.155032
    10  H    0.160536
    11  C   -0.297560
    12  C   -0.309174
    13  C   -0.476843
    14  H    0.149802
    15  H    0.150002
    16  H    0.160115
    17  H    0.151901
    18  H    0.155841
    19  H    0.156103
    20  H    0.160999
    21  C   -0.297972
    22  C   -0.299692
    23  C   -0.475743
    24  H    0.149283
    25  H    0.149404
    26  H    0.152334
    27  H    0.151829
    28  H    0.155067
    29  H    0.155318
    30  H    0.160190
    31  C   -0.302064
    32  C   -0.299948
    33  C   -0.482836
    34  H    0.153197
    35  H    0.149649
    36  H    0.150609
    37  H    0.152414
    38  H    0.155234
    39  H    0.163019
    40  H    0.159905
 Sum of Mulliken charges =  -0.00000

 Dipole moment (field-independent basis, Debye):
    X=             -0.0339    Y=             -0.0102    Z=             -0.0200  Tot=              0.0406
 Quadrupole moment (field-independent basis, Debye-Ang):
   XX=            -83.8400   YY=            -86.8842   ZZ=            -83.9651
   XY=             -0.9065   XZ=              0.3991   YZ=             -0.4639

 Normal termination of Gaussian 16 at Wed May  5 15:03:02 2021.
