 Gaussian 16, Revision A.03,
 Gaussian 16:  EM64L-G16RevA.03 25-Dec-2016

 -------------
 #p 6-31g* mp2
 -------------

 ------------------------------------------------------
 Input file generated by CHIRIPA (05-May-2021 14:53:13)
 ------------------------------------------------------
 Symbolic Z-matrix:
 Charge =  0 Multiplicity = 1

                         Standard orientation:
 ---------------------------------------------------------------------
 Center     Atomic      Atomic             Coordinates (Angstroms)
 Number     Number       Type             X           Y           Z
 ---------------------------------------------------------------------
      1          6           0        3.062697   -0.580177    0.370420
      2          6           0        4.219918   -1.578209    0.317926
      3          6           0        3.921577   -2.869888    1.079735
      4          1           0        2.837009   -0.344998    1.419563
      5          1           0        2.161519   -1.052131   -0.044950
      6          1           0        5.118989   -1.104046    0.732000
      7          1           0        4.443004   -1.810892   -0.731220
      8          1           0        3.040210   -3.368069    0.663070
      9          1           0        3.720036   -2.657206    2.134604
     10          1           0        4.762091   -3.569059    1.029183
     11          6           0        3.345879    0.716134   -0.386623
     12          6           0        2.188657    1.714166   -0.334129
     13          6           0        2.486999    3.005845   -1.095937
     14          1           0        4.247057    1.188089    0.028747
     15          1           0        3.571567    0.480956   -1.435766
     16          1           0        1.965572    1.946849    0.715017
     17          1           0        1.289586    1.240003   -0.748203
     18          1           0        2.688539    2.793164   -2.150806
     19          1           0        3.368366    3.504026   -0.679273
     20          1           0        1.646485    3.705017   -1.045386
     21          6           0       -2.060527    2.114836    1.218704
     22          6           0       -1.423180    1.850401    0.001993
     23          6           0       -1.661008    0.652515   -0.678489
     24          6           0       -2.546160   -0.262697   -0.110879
     25          6           0       -3.196482   -0.028239    1.099659
     26          6           0       -2.943587    1.176326    1.762694
     27          1           0       -1.869925    3.047976    1.740542
     28          1           0       -0.736890    2.577424   -0.422846
     29          1           0       -1.181109    0.422207   -1.621925
     30          1           0       -3.875408   -0.772315    1.498193
     31          1           0       -3.439976    1.379006    2.707449
     32          7           0       -2.805914   -1.534381   -0.822040
     33          8           0       -3.590126   -2.324354   -0.300896
     34          8           0       -2.220377   -1.717073   -1.887125
 ---------------------------------------------------------------------

 SCF Done:  E(RHF) =  -669.534293243     A.U. after   15 cycles
 E2 =    -0.2093091977D+01 EUMP2 =    -0.67162738522063D+03

 The electronic state is 1-A.
 Alpha  occ. eigenvalues --  -20.60775 -20.60769 -15.85826 -11.31184 -11.27725
 Alpha  occ. eigenvalues --  -11.27721 -11.27452 -11.26761 -11.26704 -11.22264
 Alpha  occ. eigenvalues --  -11.21918 -11.21785 -11.21696 -11.21569 -11.21055
 Alpha  occ. eigenvalues --   -1.59850  -1.39404  -1.19344  -1.08810  -1.08726
 Alpha  occ. eigenvalues --   -1.04760  -1.03923  -0.96369  -0.95580  -0.87379
 Alpha  occ. eigenvalues --   -0.86144  -0.82434  -0.80031  -0.78572  -0.77444
 Alpha  occ. eigenvalues --   -0.72045  -0.71172  -0.70453  -0.65450  -0.64985
 Alpha  occ. eigenvalues --   -0.64773  -0.62193  -0.61275  -0.59761  -0.57967
 Alpha  occ. eigenvalues --   -0.55629  -0.55233  -0.53164  -0.53065  -0.52864
 Alpha  occ. eigenvalues --   -0.52693  -0.50289  -0.48802  -0.48800  -0.48315
 Alpha  occ. eigenvalues --   -0.47046  -0.46099  -0.45990  -0.44810  -0.44162
 Alpha  occ. eigenvalues --   -0.37317  -0.36268
 Alpha virt. eigenvalues --    0.05035   0.11249   0.16464   0.19931   0.22820
 Alpha virt. eigenvalues --    0.23837   0.25629   0.26169   0.26869   0.28435
 Alpha virt. eigenvalues --    0.29203   0.29894   0.31089   0.31653   0.32207

 Mulliken charges:
               1
     1  C   -0.299304
     2  C   -0.300064
     3  C   -0.476524
     4  H    0.148930
     5  H    0.153418
     6  H    0.151037
     7  H    0.153530
     8  H    0.159139
     9  H    0.154267
    10  H    0.160937
    11  C   -0.298333
    12  C   -0.304131
    13  C   -0.478892
    14  H    0.150150
    15  H    0.151882
    16  H    0.151342
    17  H    0.150080
    18  H    0.159644
    19  H    0.160082
    20  H    0.151079
    21  C   -0.174092
    22  C   -0.215650
    23  C   -0.173230
    24  C    0.158014
    25  C   -0.171719
    26  C   -0.218025
    27  H    0.225486
    28  H    0.230664
    29  H    0.274646
    30  H    0.275403
    31  H    0.223304
    32  N    0.488184
    33  O   -0.460249
    34  O   -0.461004
 Sum of Mulliken charges =  -0.00000

 Dipole moment (field-independent basis, Debye):
    X=              1.0169    Y=              4.4018    Z=              2.5268  Tot=              5.1764
 Quadrupole moment (field-independent basis, Debye-Ang):
   XX=            -97.5187   YY=            -98.2389   ZZ=            -92.5751
   XY=            -10.7239   XZ=             -8.9645   YZ=             -1.3560

 Normal termination of Gaussian 16 at Thu May  6 08:54:10 2021.
