 Gaussian 16, Revision A.03,
 Gaussian 16:  EM64L-G16RevA.03 25-Dec-2016

 -------------
 #p 6-31g* mp2
 -------------

 ------------------------------------------------------
 Input file generated by CHIRIPA (05-May-2021 14:51:09)
 ------------------------------------------------------
 Symbolic Z-matrix:
 Charge =  0 Multiplicity = 1

                         Standard orientation:
 ---------------------------------------------------------------------
 Center     Atomic      Atomic             Coordinates (Angstroms)
 Number     Number       Type             X           Y           Z
 ---------------------------------------------------------------------
      1          6           0        3.156253    0.119497   -0.376219
      2          6           0        4.336881    1.081333   -0.238474
      3          6           0        4.747089    1.708444   -1.571237
      4          1           0        3.418450   -0.672852   -1.090628
      5          1           0        2.301388    0.658703   -0.807331
      6          1           0        5.188835    0.540816    0.193535
      7          1           0        4.071914    1.871378    0.475835
      8          1           0        3.914329    2.271924   -2.004367
      9          1           0        5.037596    0.933803   -2.288272
     10          1           0        5.592738    2.392515   -1.449651
     11          6           0        2.734474   -0.515444    0.947669
     12          6           0        1.553846   -1.477281    0.809925
     13          6           0        1.143639   -2.104391    2.142688
     14          1           0        3.589339   -1.054650    1.378782
     15          1           0        2.472278    0.276905    1.662079
     16          1           0        1.818813   -2.267325    0.095615
     17          1           0        0.701892   -0.936763    0.377916
     18          1           0        0.853131   -1.329750    2.859722
     19          1           0        1.976398   -2.667872    2.575818
     20          1           0        0.297989   -2.788462    2.021102
     21          6           0       -3.241935    0.899844   -0.339157
     22          6           0       -2.919333    1.787586    0.863268
     23          6           0       -3.519520    3.188581    0.741679
     24          1           0       -2.869187    1.381912   -1.253277
     25          1           0       -4.332716    0.824266   -0.448146
     26          1           0       -1.829488    1.860343    0.970786
     27          1           0       -3.292723    1.303259    1.774654
     28          1           0       -4.609749    3.134647    0.657454
     29          1           0       -3.138200    3.694897   -0.150981
     30          1           0       -3.276624    3.806304    1.611897
     31          6           0       -2.648793   -0.503897   -0.232293
     32          6           0       -2.971395   -1.391639   -1.434719
     33          6           0       -2.371208   -2.792634   -1.313130
     34          1           0       -1.558011   -0.428319   -0.123304
     35          1           0       -3.021540   -0.985965    0.681826
     36          1           0       -2.598004   -0.907311   -2.346104
     37          1           0       -4.061239   -1.464396   -1.542238
     38          1           0       -2.752527   -3.298949   -0.420471
     39          1           0       -1.280979   -2.738699   -1.228904
     40          1           0       -2.614104   -3.410357   -2.183348
 ---------------------------------------------------------------------

 SCF Done:  E(RHF) =  -470.733349448     A.U. after   11 cycles
 E2 =    -0.1583235848D+01 EUMP2 =    -0.47231658529544D+03

 The electronic state is 1-A.
 Alpha  occ. eigenvalues --  -11.21637 -11.21629 -11.21614 -11.21603 -11.21437
 Alpha  occ. eigenvalues --  -11.21418 -11.21376 -11.21354 -11.21099 -11.21096
 Alpha  occ. eigenvalues --  -11.21055 -11.21055  -1.08471  -1.08435  -1.03563
 Alpha  occ. eigenvalues --   -1.03528  -0.95994  -0.95989  -0.87014  -0.87001
 Alpha  occ. eigenvalues --   -0.79661  -0.79569  -0.78355  -0.78183  -0.65196
 Alpha  occ. eigenvalues --   -0.64988  -0.61007  -0.60889  -0.59418  -0.59301
 Alpha  occ. eigenvalues --   -0.57612  -0.57591  -0.55318  -0.55243  -0.52691
 Alpha  occ. eigenvalues --   -0.52678  -0.52440  -0.52394  -0.49993  -0.49887
 Alpha  occ. eigenvalues --   -0.48036  -0.47867  -0.46821  -0.46583  -0.46050
 Alpha  occ. eigenvalues --   -0.45780  -0.45773  -0.45278  -0.43802  -0.43796
 Alpha virt. eigenvalues --    0.20665   0.23228   0.23536   0.24741   0.25433
 Alpha virt. eigenvalues --    0.26632   0.27004   0.27578   0.28400   0.29219
 Alpha virt. eigenvalues --    0.30772   0.31368   0.31572   0.31950   0.32096

 Mulliken charges:
               1
     1  C   -0.298232
     2  C   -0.299663
     3  C   -0.475723
     4  H    0.149793
     5  H    0.148568
     6  H    0.152136
     7  H    0.151997
     8  H    0.155053
     9  H    0.155245
    10  H    0.160395
    11  C   -0.297735
    12  C   -0.308658
    13  C   -0.475594
    14  H    0.149802
    15  H    0.149627
    16  H    0.151929
    17  H    0.159072
    18  H    0.155250
    19  H    0.155064
    20  H    0.161464
    21  C   -0.297621
    22  C   -0.299505
    23  C   -0.475704
    24  H    0.149401
    25  H    0.149762
    26  H    0.150842
    27  H    0.152238
    28  H    0.155405
    29  H    0.155142
    30  H    0.160257
    31  C   -0.307563
    32  C   -0.298954
    33  C   -0.478044
    34  H    0.158081
    35  H    0.149795
    36  H    0.151753
    37  H    0.151946
    38  H    0.154798
    39  H    0.157991
    40  H    0.160192
 Sum of Mulliken charges =  -0.00000

 Dipole moment (field-independent basis, Debye):
    X=              0.0014    Y=             -0.0080    Z=              0.0078  Tot=              0.0113
 Quadrupole moment (field-independent basis, Debye-Ang):
   XX=            -83.9162   YY=            -85.4736   ZZ=            -85.3210
   XY=             -0.0771   XZ=             -0.1384   YZ=              0.3778

 Normal termination of Gaussian 16 at Thu May  6 02:07:40 2021.
