 Gaussian 16, Revision A.03,
 Gaussian 16:  EM64L-G16RevA.03 25-Dec-2016

 -------------
 #p 6-31g* mp2
 -------------

 ------------------------------------------------------
 Input file generated by CHIRIPA (05-May-2021 14:57:26)
 ------------------------------------------------------
 Symbolic Z-matrix:
 Charge =  0 Multiplicity = 1

                         Standard orientation:
 ---------------------------------------------------------------------
 Center     Atomic      Atomic             Coordinates (Angstroms)
 Number     Number       Type             X           Y           Z
 ---------------------------------------------------------------------
      1          6           0       -1.057586   -2.125484    0.591042
      2          6           0       -2.032336   -2.237277   -0.405896
      3          6           0       -2.954388   -1.207607   -0.616011
      4          6           0       -2.872450   -0.075138    0.192747
      5          6           0       -1.912924    0.065873    1.194103
      6          6           0       -1.001091   -0.976292    1.386458
      7          1           0       -0.345283   -2.930210    0.747366
      8          1           0       -2.078583   -3.128599   -1.025131
      9          1           0       -3.719278   -1.268009   -1.380676
     10          1           0       -1.891819    0.966569    1.795535
     11          1           0       -0.245164   -0.886732    2.161441
     12          7           0       -3.843176    1.021541   -0.020291
     13          8           0       -3.749884    2.008963    0.705609
     14          8           0       -4.678942    0.872931   -0.909137
     15          6           0        2.754812   -2.266789   -0.243536
     16          6           0        3.552130   -1.558920    0.661850
     17          6           0        3.536682   -0.161064    0.679466
     18          6           0        2.708369    0.499767   -0.226342
     19          6           0        1.902513   -0.177187   -1.140465
     20          6           0        1.933995   -1.574884   -1.140223
     21          1           0        2.773040   -3.352615   -0.250283
     22          1           0        4.190559   -2.093623    1.359378
     23          1           0        4.143820    0.411929    1.369741
     24          1           0        1.276341    0.383638   -1.823695
     25          1           0        1.313727   -2.122007   -1.844474
     26          7           0        2.683527    1.979530   -0.217146
     27          8           0        1.945132    2.538247   -1.025381
     28          8           0        3.402923    2.552631    0.598123
 ---------------------------------------------------------------------

 SCF Done:  E(RHF) =  -868.336030133     A.U. after   16 cycles
 E2 =    -0.2602949969D+01 EUMP2 =    -0.87093898010162D+03

 The electronic state is 1-A.
 Alpha  occ. eigenvalues --  -20.61224 -20.61206 -20.60807 -20.60782 -15.86275
 Alpha  occ. eigenvalues --  -15.85860 -11.31838 -11.31371 -11.28415 -11.28352
 Alpha  occ. eigenvalues --  -11.28235 -11.28033 -11.27937 -11.27807 -11.27520
 Alpha  occ. eigenvalues --  -11.27474 -11.27091 -11.26962  -1.60291  -1.59870
 Alpha  occ. eigenvalues --   -1.39837  -1.39419  -1.20038  -1.19588  -1.09421
 Alpha  occ. eigenvalues --   -1.08960  -1.05444  -1.05014  -0.96205  -0.95765
 Alpha  occ. eigenvalues --   -0.86848  -0.86406  -0.83015  -0.82591  -0.78019
 Alpha  occ. eigenvalues --   -0.77599  -0.72484  -0.72075  -0.71625  -0.71197
 Alpha  occ. eigenvalues --   -0.71160  -0.70723  -0.65677  -0.65462  -0.65235
 Alpha  occ. eigenvalues --   -0.65020  -0.62772  -0.62348  -0.55990  -0.55579
 Alpha  occ. eigenvalues --   -0.54100  -0.53538  -0.53121  -0.53017  -0.49263
 Alpha  occ. eigenvalues --   -0.49229  -0.48848  -0.48818  -0.45196  -0.44792
 Alpha  occ. eigenvalues --   -0.38343  -0.37816  -0.36734  -0.36380
 Alpha virt. eigenvalues --    0.04462   0.04908   0.10522   0.11018   0.15763
 Alpha virt. eigenvalues --    0.16531   0.20091   0.21570   0.26268   0.26810
 Alpha virt. eigenvalues --    0.27265   0.28779   0.29880   0.31100   0.31900

 Mulliken charges:
               1
     1  C   -0.166293
     2  C   -0.225759
     3  C   -0.170994
     4  C    0.158327
     5  C   -0.170002
     6  C   -0.217652
     7  H    0.219702
     8  H    0.219474
     9  H    0.276102
    10  H    0.279770
    11  H    0.224834
    12  N    0.488331
    13  O   -0.456531
    14  O   -0.461007
    15  C   -0.180207
    16  C   -0.220174
    17  C   -0.173847
    18  C    0.157291
    19  C   -0.166141
    20  C   -0.215062
    21  H    0.223267
    22  H    0.224622
    23  H    0.277362
    24  H    0.279683
    25  H    0.222647
    26  N    0.487348
    27  O   -0.455615
    28  O   -0.459476
 Sum of Mulliken charges =  -0.00000

 Dipole moment (field-independent basis, Debye):
    X=              3.5129    Y=             -8.7736    Z=              0.7167  Tot=              9.4778
 Quadrupole moment (field-independent basis, Debye-Ang):
   XX=           -121.9035   YY=           -109.6390   ZZ=            -99.6170
   XY=             -2.0204   XZ=              2.8723   YZ=              2.5895

 Normal termination of Gaussian 16 at Thu May  6 05:13:27 2021.
