 Gaussian 16, Revision A.03,
 Gaussian 16:  EM64L-G16RevA.03 25-Dec-2016

 -------------
 #p 6-31g* mp2
 -------------

 ------------------------------------------------------
 Input file generated by CHIRIPA (05-May-2021 14:51:14)
 ------------------------------------------------------
 Symbolic Z-matrix:
 Charge =  0 Multiplicity = 1

                         Standard orientation:
 ---------------------------------------------------------------------
 Center     Atomic      Atomic             Coordinates (Angstroms)
 Number     Number       Type             X           Y           Z
 ---------------------------------------------------------------------
      1          6           0        4.231469   -0.185275   -0.361368
      2          6           0        5.621256   -0.304999    0.264846
      3          6           0        6.721082    0.281960   -0.620398
      4          1           0        4.230203   -0.693226   -1.335498
      5          1           0        4.016791    0.873751   -0.560797
      6          1           0        5.832685   -1.363361    0.464308
      7          1           0        5.619161    0.203130    1.237685
      8          1           0        6.537401    1.344567   -0.809419
      9          1           0        6.752139   -0.230825   -1.587190
     10          1           0        7.706302    0.185768   -0.153548
     11          6           0        3.121384   -0.767635    0.511727
     12          6           0        1.731597   -0.647911   -0.114486
     13          6           0        0.631771   -1.234870    0.770757
     14          1           0        3.336062   -1.826661    0.711157
     15          1           0        3.122650   -0.259685    1.485857
     16          1           0        1.733692   -1.156041   -1.087325
     17          1           0        1.520168    0.410450   -0.313948
     18          1           0        0.600714   -0.722085    1.737550
     19          1           0        0.815451   -2.297477    0.959778
     20          1           0       -0.353449   -1.138679    0.303907
     21          6           0       -3.987836   -0.117553   -0.440707
     22          6           0       -5.224726   -0.680230    0.260355
     23          6           0       -5.836414   -1.868140   -0.482950
     24          1           0       -4.259050    0.186695   -1.460914
     25          1           0       -3.237669   -0.914148   -0.541104
     26          1           0       -5.971795    0.117545    0.360637
     27          1           0       -4.950580   -0.982996    1.279076
     28          1           0       -5.110472   -2.682960   -0.570582
     29          1           0       -6.137490   -1.576165   -1.494238
     30          1           0       -6.719341   -2.254691    0.035586
     31          6           0       -3.365016    1.070464    0.290347
     32          6           0       -2.128127    1.633141   -0.410714
     33          6           0       -1.516439    2.821051    0.332590
     34          1           0       -4.115184    1.867059    0.390744
     35          1           0       -3.093803    0.766216    1.310554
     36          1           0       -2.402272    1.935907   -1.429435
     37          1           0       -1.381057    0.835365   -0.510998
     38          1           0       -1.215363    2.529076    1.343879
     39          1           0       -2.242381    3.635871    0.420222
     40          1           0       -0.633512    3.207602   -0.185946
 ---------------------------------------------------------------------

 SCF Done:  E(RHF) =  -470.733182211     A.U. after   11 cycles
 E2 =    -0.1583127634D+01 EUMP2 =    -0.47231630984498D+03

 The electronic state is 1-A.
 Alpha  occ. eigenvalues --  -11.21647 -11.21616 -11.21591 -11.21545 -11.21433
 Alpha  occ. eigenvalues --  -11.21398 -11.21372 -11.21333 -11.21135 -11.21081
 Alpha  occ. eigenvalues --  -11.21069 -11.21060  -1.08467  -1.08411  -1.03586
 Alpha  occ. eigenvalues --   -1.03494  -0.96023  -0.95965  -0.87046  -0.86974
 Alpha  occ. eigenvalues --   -0.79627  -0.79578  -0.78277  -0.78226  -0.65145
 Alpha  occ. eigenvalues --   -0.65021  -0.61092  -0.60832  -0.59444  -0.59258
 Alpha  occ. eigenvalues --   -0.57656  -0.57544  -0.55340  -0.55209  -0.52761
 Alpha  occ. eigenvalues --   -0.52638  -0.52464  -0.52377  -0.49959  -0.49896
 Alpha  occ. eigenvalues --   -0.47980  -0.47865  -0.46673  -0.46576  -0.45814
 Alpha  occ. eigenvalues --   -0.45773  -0.45745  -0.45649  -0.43801  -0.43765
 Alpha virt. eigenvalues --    0.20305   0.22958   0.23632   0.24981   0.25877
 Alpha virt. eigenvalues --    0.26462   0.26856   0.27300   0.28011   0.29030
 Alpha virt. eigenvalues --    0.30856   0.31295   0.31757   0.31889   0.32287

 Mulliken charges:
               1
     1  C   -0.298347
     2  C   -0.299698
     3  C   -0.475735
     4  H    0.149719
     5  H    0.149680
     6  H    0.151938
     7  H    0.152018
     8  H    0.155252
     9  H    0.155203
    10  H    0.160312
    11  C   -0.298320
    12  C   -0.301756
    13  C   -0.480537
    14  H    0.149656
    15  H    0.149841
    16  H    0.152172
    17  H    0.154112
    18  H    0.155295
    19  H    0.155740
    20  H    0.163452
    21  C   -0.300168
    22  C   -0.299602
    23  C   -0.475758
    24  H    0.149798
    25  H    0.150062
    26  H    0.151981
    27  H    0.152257
    28  H    0.155276
    29  H    0.155105
    30  H    0.160259
    31  C   -0.298139
    32  C   -0.307156
    33  C   -0.475526
    34  H    0.149521
    35  H    0.150168
    36  H    0.151652
    37  H    0.160345
    38  H    0.155143
    39  H    0.155194
    40  H    0.159590
 Sum of Mulliken charges =  -0.00000

 Dipole moment (field-independent basis, Debye):
    X=              0.0188    Y=             -0.0080    Z=              0.0023  Tot=              0.0206
 Quadrupole moment (field-independent basis, Debye-Ang):
   XX=            -85.5238   YY=            -84.4820   ZZ=            -84.7566
   XY=             -1.3109   XZ=              0.4857   YZ=             -0.0813

 Normal termination of Gaussian 16 at Wed May  5 21:38:34 2021.
