 Gaussian 16, Revision A.03,
 Gaussian 16:  EM64L-G16RevA.03 25-Dec-2016

 -------------
 #p 6-31g* mp2
 -------------

 ------------------------------------------------------
 Input file generated by CHIRIPA (05-May-2021 14:55:25)
 ------------------------------------------------------
 Symbolic Z-matrix:
 Charge =  0 Multiplicity = 1

                         Standard orientation:
 ---------------------------------------------------------------------
 Center     Atomic      Atomic             Coordinates (Angstroms)
 Number     Number       Type             X           Y           Z
 ---------------------------------------------------------------------
      1          6           0       -1.269554   -2.563011    0.918964
      2          6           0       -0.569851   -1.914185   -0.103758
      3          6           0       -1.102390   -0.776461   -0.717382
      4          6           0       -2.342634   -0.312724   -0.281452
      5          6           0       -3.063983   -0.937128    0.734946
      6          6           0       -2.512196   -2.073275    1.334320
      7          1           0       -0.848389   -3.446210    1.390107
      8          1           0        0.395402   -2.292282   -0.428373
      9          1           0       -0.582072   -0.254715   -1.511402
     10          1           0       -4.024082   -0.536638    1.037000
     11          1           0       -3.057835   -2.575124    2.128342
     12          7           0       -2.916598    0.890898   -0.923525
     13          8           0       -4.011038    1.279540   -0.521287
     14          8           0       -2.261162    1.422866   -1.816863
     15          6           0        3.027182    0.002224   -0.143902
     16          6           0        4.522311   -0.286536   -0.282439
     17          6           0        4.805759   -1.594245   -1.022271
     18          1           0        2.546650   -0.831855    0.385573
     19          1           0        2.573929    0.040086   -1.144164
     20          1           0        4.972868   -0.322470    0.717723
     21          1           0        4.999373    0.548417   -0.811477
     22          1           0        4.382829   -1.565271   -2.031672
     23          1           0        4.356173   -2.441105   -0.493783
     24          1           0        5.880595   -1.781027   -1.110016
     25          6           0        2.727794    1.306182    0.593518
     26          6           0        1.232665    1.594942    0.732054
     27          6           0        0.949217    2.902650    1.471886
     28          1           0        3.181047    1.268320    1.593780
     29          1           0        3.208326    2.140261    0.064042
     30          1           0        0.755603    0.759989    1.261092
     31          1           0        0.782108    1.630876   -0.268108
     32          1           0        1.398804    3.749511    0.943398
     33          1           0        1.372148    2.873676    2.481287
     34          1           0       -0.125619    3.089433    1.559631
 ---------------------------------------------------------------------

 SCF Done:  E(RHF) =  -669.534960111     A.U. after   15 cycles
 E2 =    -0.2093845818D+01 EUMP2 =    -0.67162880592900D+03

 The electronic state is 1-A.
 Alpha  occ. eigenvalues --  -20.60791 -20.60784 -15.85833 -11.31145 -11.27745
 Alpha  occ. eigenvalues --  -11.27720 -11.27488 -11.26737 -11.26689 -11.22085
 Alpha  occ. eigenvalues --  -11.21967 -11.21643 -11.21634 -11.21572 -11.20952
 Alpha  occ. eigenvalues --   -1.59858  -1.39414  -1.19341  -1.08791  -1.08739
 Alpha  occ. eigenvalues --   -1.04739  -1.03790  -0.96266  -0.95582  -0.87279
 Alpha  occ. eigenvalues --   -0.86137  -0.82416  -0.79897  -0.78654  -0.77430
 Alpha  occ. eigenvalues --   -0.72054  -0.71176  -0.70461  -0.65446  -0.64991
 Alpha  occ. eigenvalues --   -0.64712  -0.62104  -0.61167  -0.59654  -0.57875
 Alpha  occ. eigenvalues --   -0.55565  -0.55249  -0.53180  -0.52891  -0.52852
 Alpha  occ. eigenvalues --   -0.52622  -0.50208  -0.48814  -0.48809  -0.48189
 Alpha  occ. eigenvalues --   -0.46931  -0.46134  -0.46030  -0.44804  -0.44071
 Alpha  occ. eigenvalues --   -0.37323  -0.36240
 Alpha virt. eigenvalues --    0.05055   0.11216   0.16477   0.20266   0.22903
 Alpha virt. eigenvalues --    0.23700   0.24909   0.25826   0.27577   0.28363
 Alpha virt. eigenvalues --    0.29776   0.30318   0.31245   0.31544   0.32080

 Mulliken charges:
               1
     1  C   -0.171820
     2  C   -0.220145
     3  C   -0.166043
     4  C    0.158074
     5  C   -0.170959
     6  C   -0.219017
     7  H    0.225391
     8  H    0.226419
     9  H    0.275777
    10  H    0.275409
    11  H    0.223152
    12  N    0.488529
    13  O   -0.460267
    14  O   -0.461621
    15  C   -0.301225
    16  C   -0.299346
    17  C   -0.476259
    18  H    0.144330
    19  H    0.145385
    20  H    0.153462
    21  H    0.155535
    22  H    0.155104
    23  H    0.150279
    24  H    0.163374
    25  C   -0.297581
    26  C   -0.308121
    27  C   -0.475088
    28  H    0.149643
    29  H    0.152550
    30  H    0.153889
    31  H    0.156768
    32  H    0.157284
    33  H    0.152729
    34  H    0.164409
 Sum of Mulliken charges =  -0.00000

 Dipole moment (field-independent basis, Debye):
    X=              2.0491    Y=             -4.1351    Z=              2.2617  Tot=              5.1394
 Quadrupole moment (field-independent basis, Debye-Ang):
   XX=           -101.2091   YY=            -93.2288   ZZ=            -94.3434
   XY=             10.1617   XZ=             -8.5619   YZ=             -0.7298

 Normal termination of Gaussian 16 at Thu May  6 12:43:38 2021.
