 Gaussian 16, Revision A.03,
 Gaussian 16:  EM64L-G16RevA.03 25-Dec-2016

 -------------
 #p 6-31g* mp2
 -------------

 ------------------------------------------------------
 Input file generated by CHIRIPA (05-May-2021 14:53:14)
 ------------------------------------------------------
 Symbolic Z-matrix:
 Charge =  0 Multiplicity = 1

                         Standard orientation:
 ---------------------------------------------------------------------
 Center     Atomic      Atomic             Coordinates (Angstroms)
 Number     Number       Type             X           Y           Z
 ---------------------------------------------------------------------
      1          6           0        4.051136   -0.392170   -0.617975
      2          6           0        3.872082   -1.809151   -0.071998
      3          6           0        4.553469   -2.867570   -0.939900
      4          1           0        3.648409   -0.345888   -1.639060
      5          1           0        5.124348   -0.169235   -0.694856
      6          1           0        2.799513   -2.028842    0.005134
      7          1           0        4.275108   -1.852015    0.947977
      8          1           0        5.629278   -2.676079   -1.007481
      9          1           0        4.145300   -2.853911   -1.955681
     10          1           0        4.412871   -3.873112   -0.531271
     11          6           0        3.375556    0.677052    0.238811
     12          6           0        3.554610    2.094033   -0.307166
     13          6           0        2.873222    3.152452    0.560736
     14          1           0        2.302344    0.454117    0.315692
     15          1           0        3.778282    0.630770    1.259896
     16          1           0        3.151584    2.136897   -1.327141
     17          1           0        4.627178    2.313724   -0.384297
     18          1           0        3.281392    3.138793    1.576517
     19          1           0        1.797413    2.960961    0.628317
     20          1           0        3.013820    4.157994    0.152108
     21          6           0       -4.945433    0.126462   -1.311309
     22          6           0       -3.782567    0.842698   -1.613419
     23          6           0       -2.643904    0.718719   -0.811782
     24          6           0       -2.703408   -0.134266    0.289202
     25          6           0       -3.847057   -0.861175    0.616249
     26          6           0       -4.973916   -0.721694   -0.199400
     27          1           0       -5.825389    0.228792   -1.939482
     28          1           0       -3.757568    1.502122   -2.476310
     29          1           0       -1.730468    1.261466   -1.022682
     30          1           0       -3.841643   -1.510776    1.483086
     31          1           0       -5.875631   -1.279163    0.037632
     32          7           0       -1.504204   -0.273723    1.145276
     33          8           0       -1.582238   -1.031742    2.109617
     34          8           0       -0.508942    0.377631    0.835716
 ---------------------------------------------------------------------

 SCF Done:  E(RHF) =  -669.536290745     A.U. after   15 cycles
 E2 =    -0.2091161828D+01 EUMP2 =    -0.67162745257239D+03

 The electronic state is 1-A.
 Alpha  occ. eigenvalues --  -20.61028 -20.61015 -15.86061 -11.31350 -11.27912
 Alpha  occ. eigenvalues --  -11.27905 -11.27640 -11.26910 -11.26900 -11.20641
 Alpha  occ. eigenvalues --  -11.20612 -11.20392 -11.20350 -11.20064 -11.19981
 Alpha  occ. eigenvalues --   -1.60083  -1.39641  -1.19515  -1.08924  -1.07361
 Alpha  occ. eigenvalues --   -1.04907  -1.02568  -0.95771  -0.95011  -0.86309
 Alpha  occ. eigenvalues --   -0.86033  -0.82609  -0.78630  -0.77670  -0.77124
 Alpha  occ. eigenvalues --   -0.72284  -0.71395  -0.70624  -0.65174  -0.64910
 Alpha  occ. eigenvalues --   -0.63988  -0.62256  -0.59974  -0.58387  -0.56619
 Alpha  occ. eigenvalues --   -0.55412  -0.54298  -0.53240  -0.52999  -0.51763
 Alpha  occ. eigenvalues --   -0.51431  -0.49088  -0.49034  -0.48908  -0.46946
 Alpha  occ. eigenvalues --   -0.45660  -0.45103  -0.44717  -0.44453  -0.42784
 Alpha  occ. eigenvalues --   -0.37492  -0.36507
 Alpha virt. eigenvalues --    0.04848   0.11148   0.16339   0.21218   0.23853
 Alpha virt. eigenvalues --    0.25114   0.27153   0.27482   0.28092   0.28804
 Alpha virt. eigenvalues --    0.29008   0.30837   0.31957   0.32523   0.32684

 Mulliken charges:
               1
     1  C   -0.296921
     2  C   -0.299527
     3  C   -0.475075
     4  H    0.144602
     5  H    0.144818
     6  H    0.157417
     7  H    0.152080
     8  H    0.152878
     9  H    0.152057
    10  H    0.158392
    11  C   -0.311169
    12  C   -0.297327
    13  C   -0.477462
    14  H    0.179224
    15  H    0.147600
    16  H    0.145603
    17  H    0.146951
    18  H    0.154691
    19  H    0.164189
    20  H    0.152876
    21  C   -0.170501
    22  C   -0.218495
    23  C   -0.170659
    24  C    0.157432
    25  C   -0.170438
    26  C   -0.218571
    27  H    0.226236
    28  H    0.224084
    29  H    0.275311
    30  H    0.276025
    31  H    0.224036
    32  N    0.493957
    33  O   -0.457923
    34  O   -0.466390
 Sum of Mulliken charges =  -0.00000

 Dipole moment (field-independent basis, Debye):
    X=             -4.6036    Y=              0.4236    Z=             -2.8794  Tot=              5.4464
 Quadrupole moment (field-independent basis, Debye-Ang):
   XX=            -71.8050   YY=            -94.7780   ZZ=            -95.3441
   XY=              1.3950   XZ=              6.6706   YZ=             -2.1714

 Normal termination of Gaussian 16 at Wed May  5 17:05:38 2021.
