 Gaussian 16, Revision A.03,
 Gaussian 16:  EM64L-G16RevA.03 25-Dec-2016

 -------------
 #p 6-31g* mp2
 -------------

 ------------------------------------------------------
 Input file generated by CHIRIPA (05-May-2021 14:53:17)
 ------------------------------------------------------
 Symbolic Z-matrix:
 Charge =  0 Multiplicity = 1

                         Standard orientation:
 ---------------------------------------------------------------------
 Center     Atomic      Atomic             Coordinates (Angstroms)
 Number     Number       Type             X           Y           Z
 ---------------------------------------------------------------------
      1          6           0        3.283715    1.263355    0.378636
      2          6           0        1.923449    1.939568    0.204289
      3          6           0        1.876663    3.339950    0.816282
      4          1           0        3.522654    1.205298    1.449376
      5          1           0        4.059264    1.891516   -0.081074
      6          1           0        1.150520    1.309648    0.662978
      7          1           0        1.687634    1.995850   -0.866150
      8          1           0        2.626746    3.988457    0.352153
      9          1           0        2.086579    3.298356    1.889970
     10          1           0        0.895273    3.804951    0.680234
     11          6           0        3.346155   -0.137303   -0.227982
     12          6           0        4.706421   -0.813516   -0.053634
     13          6           0        4.753208   -2.213898   -0.665627
     14          1           0        2.570607   -0.765464    0.231728
     15          1           0        3.107217   -0.079246   -1.298721
     16          1           0        4.942236   -0.869798    1.016805
     17          1           0        5.479351   -0.183596   -0.512324
     18          1           0        4.543291   -2.172304   -1.739315
     19          1           0        4.003125   -2.862405   -0.201498
     20          1           0        5.734597   -2.678899   -0.529579
     21          6           0       -1.353146   -2.571673    0.481538
     22          6           0       -0.674918   -1.498713   -0.106071
     23          6           0       -1.350006   -0.312737   -0.409828
     24          6           0       -2.709347   -0.233768   -0.111092
     25          6           0       -3.412890   -1.285308    0.474214
     26          6           0       -2.717561   -2.461740    0.769298
     27          1           0       -0.820860   -3.489260    0.714135
     28          1           0        0.384700   -1.581261   -0.330662
     29          1           0       -0.849481    0.533335   -0.864861
     30          1           0       -4.469227   -1.173236    0.686370
     31          1           0       -3.246854   -3.293399    1.225629
     32          7           0       -3.434747    1.016719   -0.428075
     33          8           0       -4.632280    1.061145   -0.154986
     34          8           0       -2.792045    1.928745   -0.943613
 ---------------------------------------------------------------------

 SCF Done:  E(RHF) =  -669.535466916     A.U. after   15 cycles
 E2 =    -0.2092630317D+01 EUMP2 =    -0.67162809723243D+03

 The electronic state is 1-A.
 Alpha  occ. eigenvalues --  -20.60726 -20.60721 -15.85778 -11.31120 -11.27708
 Alpha  occ. eigenvalues --  -11.27646 -11.27439 -11.26720 -11.26649 -11.22309
 Alpha  occ. eigenvalues --  -11.22240 -11.22077 -11.21933 -11.21800 -11.21203
 Alpha  occ. eigenvalues --   -1.59802  -1.39355  -1.19299  -1.09086  -1.08698
 Alpha  occ. eigenvalues --   -1.04696  -1.04073  -0.96517  -0.95535  -0.87529
 Alpha  occ. eigenvalues --   -0.86095  -0.82373  -0.80176  -0.78971  -0.77387
 Alpha  occ. eigenvalues --   -0.71997  -0.71125  -0.70408  -0.65738  -0.64947
 Alpha  occ. eigenvalues --   -0.64693  -0.62046  -0.61462  -0.59887  -0.58133
 Alpha  occ. eigenvalues --   -0.55817  -0.55207  -0.53164  -0.53045  -0.53020
 Alpha  occ. eigenvalues --   -0.52690  -0.50453  -0.48762  -0.48756  -0.48446
 Alpha  occ. eigenvalues --   -0.47209  -0.46427  -0.46363  -0.44765  -0.44347
 Alpha  occ. eigenvalues --   -0.37287  -0.36275
 Alpha virt. eigenvalues --    0.05076   0.11302   0.16475   0.20209   0.22732
 Alpha virt. eigenvalues --    0.23400   0.25080   0.25690   0.27289   0.28260
 Alpha virt. eigenvalues --    0.29348   0.30590   0.31106   0.31422   0.32059

 Mulliken charges:
               1
     1  C   -0.297187
     2  C   -0.307663
     3  C   -0.477171
     4  H    0.151850
     5  H    0.153164
     6  H    0.151638
     7  H    0.151886
     8  H    0.156224
     9  H    0.155403
    10  H    0.170239
    11  C   -0.305095
    12  C   -0.299138
    13  C   -0.476124
    14  H    0.143417
    15  H    0.149696
    16  H    0.154017
    17  H    0.155888
    18  H    0.156279
    19  H    0.149744
    20  H    0.163835
    21  C   -0.172037
    22  C   -0.226602
    23  C   -0.175305
    24  C    0.157591
    25  C   -0.170895
    26  C   -0.218624
    27  H    0.225420
    28  H    0.233328
    29  H    0.281181
    30  H    0.275339
    31  H    0.223110
    32  N    0.488003
    33  O   -0.460704
    34  O   -0.460709
 Sum of Mulliken charges =  -0.00000

 Dipole moment (field-independent basis, Debye):
    X=              2.7114    Y=             -4.2544    Z=              1.1359  Tot=              5.1713
 Quadrupole moment (field-independent basis, Debye-Ang):
   XX=           -104.5346   YY=            -92.8986   ZZ=            -94.4684
   XY=             13.8628   XZ=             -5.2979   YZ=             -1.3136

 Normal termination of Gaussian 16 at Thu May  6 04:24:20 2021.
