 Gaussian 16, Revision A.03,
 Gaussian 16:  EM64L-G16RevA.03 25-Dec-2016

 -------------
 #p 6-31g* mp2
 -------------

 ------------------------------------------------------
 Input file generated by CHIRIPA (05-May-2021 14:51:14)
 ------------------------------------------------------
 Symbolic Z-matrix:
 Charge =  0 Multiplicity = 1

                         Standard orientation:
 ---------------------------------------------------------------------
 Center     Atomic      Atomic             Coordinates (Angstroms)
 Number     Number       Type             X           Y           Z
 ---------------------------------------------------------------------
      1          6           0        4.571601    0.293516   -0.209231
      2          6           0        4.741314    1.728544    0.290647
      3          6           0        6.059328    2.359377   -0.159555
      4          1           0        5.412662   -0.315082    0.150170
      5          1           0        4.626797    0.285968   -1.306633
      6          1           0        4.684432    1.733570    1.386711
      7          1           0        3.899651    2.333753   -0.069826
      8          1           0        6.121330    2.383676   -1.252334
      9          1           0        6.910569    1.780083    0.212478
     10          1           0        6.159983    3.385049    0.208852
     11          6           0        3.258786   -0.350661    0.232672
     12          6           0        3.089073   -1.785689   -0.267207
     13          6           0        1.771059   -2.416521    0.182996
     14          1           0        3.203590   -0.343112    1.330074
     15          1           0        2.417725    0.257938   -0.126730
     16          1           0        3.930736   -2.390898    0.093266
     17          1           0        3.145956   -1.790715   -1.363271
     18          1           0        0.919818   -1.837228   -0.189038
     19          1           0        1.709057   -2.440821    1.275775
     20          1           0        1.670404   -3.442194   -0.185412
     21          6           0       -3.250449   -0.342538    0.050115
     22          6           0       -3.386267   -1.858400   -0.097192
     23          6           0       -2.047895   -2.586862    0.028889
     24          1           0       -2.553941    0.032597   -0.712181
     25          1           0       -2.798525   -0.114963    1.025498
     26          1           0       -3.839073   -2.082988   -1.071432
     27          1           0       -4.082680   -2.229945    0.665421
     28          1           0       -1.593806   -2.392072    1.005854
     29          1           0       -1.348815   -2.244280   -0.740867
     30          1           0       -2.168184   -3.669279   -0.079566
     31          6           0       -4.579938    0.399682   -0.073556
     32          6           0       -4.444120    1.915545    0.073752
     33          6           0       -5.782492    2.644007   -0.052330
     34          1           0       -5.031861    0.172108   -1.048938
     35          1           0       -5.276446    0.024547    0.688740
     36          1           0       -3.747707    2.287089   -0.688861
     37          1           0       -3.991314    2.140133    1.047992
     38          1           0       -6.481573    2.301424    0.717427
     39          1           0       -6.236582    2.449216   -1.029295
     40          1           0       -5.662203    3.726424    0.056126
 ---------------------------------------------------------------------

 SCF Done:  E(RHF) =  -470.732748059     A.U. after   11 cycles
 E2 =    -0.1582523831D+01 EUMP2 =    -0.47231527189035D+03

 The electronic state is 1-A.
 Alpha  occ. eigenvalues --  -11.21600 -11.21579 -11.21559 -11.21522 -11.21398
 Alpha  occ. eigenvalues --  -11.21367 -11.21338 -11.21307 -11.21070 -11.21055
 Alpha  occ. eigenvalues --  -11.20981 -11.20915  -1.08418  -1.08384  -1.03526
 Alpha  occ. eigenvalues --   -1.03459  -0.96010  -0.95873  -0.87073  -0.86845
 Alpha  occ. eigenvalues --   -0.79674  -0.79443  -0.78249  -0.78180  -0.65058
 Alpha  occ. eigenvalues --   -0.65010  -0.60971  -0.60825  -0.59341  -0.59278
 Alpha  occ. eigenvalues --   -0.57691  -0.57442  -0.55374  -0.55104  -0.52770
 Alpha  occ. eigenvalues --   -0.52611  -0.52522  -0.52106  -0.50042  -0.49725
 Alpha  occ. eigenvalues --   -0.48071  -0.47652  -0.46684  -0.46474  -0.45838
 Alpha  occ. eigenvalues --   -0.45708  -0.45680  -0.45581  -0.43787  -0.43707
 Alpha virt. eigenvalues --    0.22417   0.23032   0.23631   0.24827   0.26236
 Alpha virt. eigenvalues --    0.26614   0.26887   0.27581   0.27696   0.29295
 Alpha virt. eigenvalues --    0.30346   0.31402   0.31506   0.32071   0.32232

 Mulliken charges:
               1
     1  C   -0.298177
     2  C   -0.299600
     3  C   -0.475672
     4  H    0.149610
     5  H    0.149346
     6  H    0.151864
     7  H    0.151858
     8  H    0.155111
     9  H    0.155153
    10  H    0.160159
    11  C   -0.298217
    12  C   -0.300244
    13  C   -0.477689
    14  H    0.149334
    15  H    0.149453
    16  H    0.151358
    17  H    0.151215
    18  H    0.160542
    19  H    0.153999
    20  H    0.159914
    21  C   -0.298174
    22  C   -0.300229
    23  C   -0.476841
    24  H    0.148657
    25  H    0.149674
    26  H    0.151507
    27  H    0.151668
    28  H    0.157086
    29  H    0.157381
    30  H    0.159923
    31  C   -0.298173
    32  C   -0.299622
    33  C   -0.475700
    34  H    0.149481
    35  H    0.149736
    36  H    0.151743
    37  H    0.151977
    38  H    0.155211
    39  H    0.155157
    40  H    0.160221
 Sum of Mulliken charges =  -0.00000

 Dipole moment (field-independent basis, Debye):
    X=             -0.0243    Y=             -0.0180    Z=              0.0076  Tot=              0.0312
 Quadrupole moment (field-independent basis, Debye-Ang):
   XX=            -86.4051   YY=            -85.4599   ZZ=            -83.0893
   XY=             -0.0597   XZ=              0.3975   YZ=             -0.2100

 Normal termination of Gaussian 16 at Thu May  6 04:00:53 2021.
