 Gaussian 16, Revision A.03,
 Gaussian 16:  EM64L-G16RevA.03 25-Dec-2016

 -------------
 #p 6-31g* mp2
 -------------

 ------------------------------------------------------
 Input file generated by CHIRIPA (05-May-2021 14:51:11)
 ------------------------------------------------------
 Symbolic Z-matrix:
 Charge =  0 Multiplicity = 1

                         Standard orientation:
 ---------------------------------------------------------------------
 Center     Atomic      Atomic             Coordinates (Angstroms)
 Number     Number       Type             X           Y           Z
 ---------------------------------------------------------------------
      1          6           0        3.979849    0.134718   -0.386941
      2          6           0        4.999988    1.088063    0.236304
      3          6           0        5.910090    1.742221   -0.803689
      4          1           0        4.511734   -0.643042   -0.951859
      5          1           0        3.369061    0.686984   -1.114495
      6          1           0        5.607757    0.534480    0.963475
      7          1           0        4.465619    1.863534    0.799963
      8          1           0        5.320227    2.318702   -1.523643
      9          1           0        6.468855    0.982096   -1.359201
     10          1           0        6.631560    2.419713   -0.336414
     11          6           0        3.062776   -0.527024    0.640095
     12          6           0        2.042637   -1.480370    0.016850
     13          6           0        1.132535   -2.134528    1.056844
     14          1           0        3.673565   -1.079290    1.367649
     15          1           0        2.530891    0.250736    1.205013
     16          1           0        2.577006   -2.255840   -0.546809
     17          1           0        1.434868   -0.926787   -0.710321
     18          1           0        0.573771   -1.374403    1.612356
     19          1           0        1.722398   -2.711008    1.776797
     20          1           0        0.411066   -2.812020    0.589568
     21          6           0       -3.135022   -0.438051    0.052298
     22          6           0       -3.516407   -1.643270   -0.807920
     23          6           0       -2.735107   -2.904457   -0.438094
     24          1           0       -2.058047   -0.247575   -0.051568
     25          1           0       -3.308868   -0.681338    1.109646
     26          1           0       -3.343199   -1.397294   -1.863435
     27          1           0       -4.592635   -1.830781   -0.702144
     28          1           0       -2.916091   -3.177264    0.606618
     29          1           0       -1.659555   -2.741314   -0.561271
     30          1           0       -3.023455   -3.753733   -1.065347
     31          6           0       -3.907603    0.830358   -0.305452
     32          6           0       -3.526219    2.035577    0.554766
     33          6           0       -4.307519    3.296764    0.184940
     34          1           0       -3.733757    1.073645   -1.362800
     35          1           0       -4.984579    0.639882   -0.201586
     36          1           0       -2.449990    2.223088    0.448990
     37          1           0       -3.699427    1.789601    1.610281
     38          1           0       -5.383071    3.133620    0.308117
     39          1           0       -4.126535    3.569571   -0.859772
     40          1           0       -4.019170    4.146039    0.812192
 ---------------------------------------------------------------------

 SCF Done:  E(RHF) =  -470.733223742     A.U. after   11 cycles
 E2 =    -0.1582613087D+01 EUMP2 =    -0.47231583682901D+03

 The electronic state is 1-A.
 Alpha  occ. eigenvalues --  -11.21620 -11.21620 -11.21611 -11.21598 -11.21416
 Alpha  occ. eigenvalues --  -11.21410 -11.21357 -11.21349 -11.21087 -11.21080
 Alpha  occ. eigenvalues --  -11.21039 -11.21022  -1.08446  -1.08429  -1.03557
 Alpha  occ. eigenvalues --   -1.03512  -0.96017  -0.95948  -0.87050  -0.86949
 Alpha  occ. eigenvalues --   -0.79644  -0.79553  -0.78256  -0.78243  -0.65102
 Alpha  occ. eigenvalues --   -0.65037  -0.60994  -0.60889  -0.59444  -0.59285
 Alpha  occ. eigenvalues --   -0.57730  -0.57468  -0.55287  -0.55250  -0.52813
 Alpha  occ. eigenvalues --   -0.52675  -0.52469  -0.52213  -0.49933  -0.49900
 Alpha  occ. eigenvalues --   -0.47995  -0.47813  -0.46640  -0.46615  -0.45810
 Alpha  occ. eigenvalues --   -0.45768  -0.45724  -0.45703  -0.43791  -0.43758
 Alpha virt. eigenvalues --    0.20999   0.23183   0.23468   0.24942   0.26313
 Alpha virt. eigenvalues --    0.26642   0.26923   0.27488   0.27603   0.29220
 Alpha virt. eigenvalues --    0.30346   0.31285   0.31586   0.31768   0.32082

 Mulliken charges:
               1
     1  C   -0.298247
     2  C   -0.299673
     3  C   -0.475705
     4  H    0.149701
     5  H    0.149266
     6  H    0.152008
     7  H    0.151950
     8  H    0.155120
     9  H    0.155204
    10  H    0.160303
    11  C   -0.298210
    12  C   -0.300463
    13  C   -0.481192
    14  H    0.149799
    15  H    0.149685
    16  H    0.152073
    17  H    0.150969
    18  H    0.156099
    19  H    0.155084
    20  H    0.165871
    21  C   -0.299253
    22  C   -0.299456
    23  C   -0.480900
    24  H    0.150600
    25  H    0.149712
    26  H    0.151691
    27  H    0.151931
    28  H    0.155520
    29  H    0.160750
    30  H    0.159996
    31  C   -0.298324
    32  C   -0.299567
    33  C   -0.475696
    34  H    0.149427
    35  H    0.149786
    36  H    0.151442
    37  H    0.152009
    38  H    0.155298
    39  H    0.155166
    40  H    0.160225
 Sum of Mulliken charges =  -0.00000

 Dipole moment (field-independent basis, Debye):
    X=             -0.0036    Y=             -0.0138    Z=              0.0110  Tot=              0.0180
 Quadrupole moment (field-independent basis, Debye-Ang):
   XX=            -84.5798   YY=            -85.3966   ZZ=            -84.7533
   XY=             -0.2740   XZ=             -0.0598   YZ=              0.2314

 Normal termination of Gaussian 16 at Wed May  5 18:15:47 2021.
