 Gaussian 16, Revision A.03,
 Gaussian 16:  EM64L-G16RevA.03 25-Dec-2016

 -------------
 #p 6-31g* mp2
 -------------

 ------------------------------------------------------
 Input file generated by CHIRIPA (05-May-2021 14:55:22)
 ------------------------------------------------------
 Symbolic Z-matrix:
 Charge =  0 Multiplicity = 1

                         Standard orientation:
 ---------------------------------------------------------------------
 Center     Atomic      Atomic             Coordinates (Angstroms)
 Number     Number       Type             X           Y           Z
 ---------------------------------------------------------------------
      1          6           0       -2.603584   -1.770409   -1.835442
      2          6           0       -1.551217   -0.851091   -1.772986
      3          6           0       -1.461735    0.054674   -0.711793
      4          6           0       -2.446336    0.013152    0.274172
      5          6           0       -3.506975   -0.890822    0.240020
      6          6           0       -3.576389   -1.787310   -0.830512
      7          1           0       -2.665301   -2.470426   -2.663430
      8          1           0       -0.794302   -0.835683   -2.552016
      9          1           0       -0.657740    0.776936   -0.638669
     10          1           0       -4.246525   -0.882127    1.031479
     11          1           0       -4.394794   -2.500157   -0.876420
     12          7           0       -2.362228    0.967135    1.402553
     13          8           0       -3.242309    0.910245    2.258624
     14          8           0       -1.417815    1.753692    1.409541
     15          6           0        2.527218    0.592708   -0.286250
     16          6           0        2.828262    1.820192   -1.146853
     17          6           0        1.574235    2.626815   -1.485336
     18          1           0        1.807813   -0.049063   -0.813062
     19          1           0        2.036336    0.915926    0.642169
     20          1           0        3.319679    1.494880   -2.072756
     21          1           0        3.547180    2.459022   -0.618015
     22          1           0        1.084708    2.979370   -0.571734
     23          1           0        0.855914    2.009750   -2.034742
     24          1           0        1.812423    3.499715   -2.101106
     25          6           0        3.770890   -0.223874    0.060454
     26          6           0        3.469845   -1.451359    0.921058
     27          6           0        4.723871   -2.257981    1.259541
     28          1           0        4.261771   -0.547091   -0.867964
     29          1           0        4.490293    0.417897    0.587266
     30          1           0        2.750927   -2.090187    0.392219
     31          1           0        2.978427   -1.126046    1.846961
     32          1           0        5.442192   -1.640916    1.808946
     33          1           0        5.213399   -2.610535    0.345938
     34          1           0        4.485683   -3.130881    1.875311
 ---------------------------------------------------------------------

 SCF Done:  E(RHF) =  -669.535445729     A.U. after   15 cycles
 E2 =    -0.2092996229D+01 EUMP2 =    -0.67162844195856D+03

 The electronic state is 1-A.
 Alpha  occ. eigenvalues --  -20.60770 -20.60765 -15.85813 -11.31107 -11.27715
 Alpha  occ. eigenvalues --  -11.27601 -11.27461 -11.26717 -11.26701 -11.21807
 Alpha  occ. eigenvalues --  -11.21673 -11.21599 -11.21503 -11.21324 -11.21131
 Alpha  occ. eigenvalues --   -1.59836  -1.39392  -1.19299  -1.08711  -1.08607
 Alpha  occ. eigenvalues --   -1.04702  -1.03695  -0.96152  -0.95550  -0.87169
 Alpha  occ. eigenvalues --   -0.86101  -0.82391  -0.79768  -0.78468  -0.77397
 Alpha  occ. eigenvalues --   -0.72036  -0.71153  -0.70420  -0.65253  -0.64941
 Alpha  occ. eigenvalues --   -0.64714  -0.62103  -0.61058  -0.59498  -0.57768
 Alpha  occ. eigenvalues --   -0.55449  -0.55210  -0.53048  -0.52874  -0.52793
 Alpha  occ. eigenvalues --   -0.52529  -0.50091  -0.48796  -0.48789  -0.48037
 Alpha  occ. eigenvalues --   -0.46766  -0.45954  -0.45837  -0.44805  -0.43943
 Alpha  occ. eigenvalues --   -0.37291  -0.36286
 Alpha virt. eigenvalues --    0.05063   0.11341   0.16509   0.19957   0.22932
 Alpha virt. eigenvalues --    0.23919   0.25479   0.26675   0.27540   0.28080
 Alpha virt. eigenvalues --    0.29469   0.30573   0.31573   0.31696   0.32414

 Mulliken charges:
               1
     1  C   -0.170085
     2  C   -0.224948
     3  C   -0.177474
     4  C    0.155775
     5  C   -0.169679
     6  C   -0.219507
     7  H    0.225315
     8  H    0.222885
     9  H    0.293949
    10  H    0.275298
    11  H    0.223188
    12  N    0.488183
    13  O   -0.460187
    14  O   -0.462614
    15  C   -0.306299
    16  C   -0.298258
    17  C   -0.486429
    18  H    0.138398
    19  H    0.163838
    20  H    0.149628
    21  H    0.156333
    22  H    0.174563
    23  H    0.140674
    24  H    0.164431
    25  C   -0.297877
    26  C   -0.300231
    27  C   -0.475863
    28  H    0.147665
    29  H    0.152436
    30  H    0.149319
    31  H    0.156458
    32  H    0.156481
    33  H    0.153875
    34  H    0.160760
 Sum of Mulliken charges =  -0.00000

 Dipole moment (field-independent basis, Debye):
    X=             -0.2026    Y=             -3.2260    Z=             -3.8071  Tot=              4.9943
 Quadrupole moment (field-independent basis, Debye-Ang):
   XX=            -90.4743   YY=            -94.4931   ZZ=            -96.3912
   XY=             11.1799   XZ=              8.0190   YZ=             -0.9844

 Normal termination of Gaussian 16 at Wed May  5 17:28:58 2021.
