 Gaussian 16, Revision A.03,
 Gaussian 16:  EM64L-G16RevA.03 25-Dec-2016

 -------------
 #p 6-31g* mp2
 -------------

 ------------------------------------------------------
 Input file generated by CHIRIPA (05-May-2021 14:57:24)
 ------------------------------------------------------
 Symbolic Z-matrix:
 Charge =  0 Multiplicity = 1

                         Standard orientation:
 ---------------------------------------------------------------------
 Center     Atomic      Atomic             Coordinates (Angstroms)
 Number     Number       Type             X           Y           Z
 ---------------------------------------------------------------------
      1          6           0       -2.233051    1.884831    0.071425
      2          6           0       -2.033743    0.552906    0.449280
      3          6           0       -3.082613   -0.368945    0.381379
      4          6           0       -4.323313    0.077406   -0.071085
      5          6           0       -4.553254    1.397748   -0.454638
      6          6           0       -3.489955    2.302265   -0.378534
      7          1           0       -1.412660    2.594214    0.127358
      8          1           0       -1.058687    0.225905    0.799109
      9          1           0       -2.955991   -1.405977    0.667648
     10          1           0       -5.536528    1.694043   -0.799312
     11          1           0       -3.647641    3.336037   -0.672636
     12          7           0       -5.441342   -0.889342   -0.147311
     13          8           0       -6.524869   -0.471051   -0.549354
     14          8           0       -5.212956   -2.047063    0.196430
     15          6           0        1.855396   -1.103947    0.690030
     16          6           0        2.265440    0.163499    1.116604
     17          6           0        3.528562    0.654182    0.772659
     18          6           0        4.359823   -0.152899   -0.002530
     19          6           0        3.980052   -1.419864   -0.442826
     20          6           0        2.712499   -1.890198   -0.086954
     21          1           0        0.872451   -1.477217    0.961848
     22          1           0        1.601901    0.776306    1.720119
     23          1           0        3.871388    1.631709    1.089408
     24          1           0        4.663617   -2.007624   -1.043407
     25          1           0        2.396714   -2.874899   -0.419651
     26          7           0        5.699380    0.355794   -0.372963
     27          8           0        6.413049   -0.374762   -1.056776
     28          8           0        6.010289    1.475430    0.027520
 ---------------------------------------------------------------------

 SCF Done:  E(RHF) =  -868.336364720     A.U. after   16 cycles
 E2 =    -0.2600152542D+01 EUMP2 =    -0.87093651726181D+03

 The electronic state is 1-A.
 Alpha  occ. eigenvalues --  -20.61354 -20.61344 -20.61342 -20.61330 -15.86411
 Alpha  occ. eigenvalues --  -15.86399 -11.31932 -11.31869 -11.28555 -11.28530
 Alpha  occ. eigenvalues --  -11.28476 -11.28415 -11.28392 -11.28235 -11.27689
 Alpha  occ. eigenvalues --  -11.27617 -11.27531 -11.27431  -1.60423  -1.60412
 Alpha  occ. eigenvalues --   -1.39972  -1.39963  -1.20134  -1.20062  -1.09527
 Alpha  occ. eigenvalues --   -1.09433  -1.05559  -1.05498  -0.96327  -0.96250
 Alpha  occ. eigenvalues --   -0.86995  -0.86866  -0.83164  -0.83080  -0.78173
 Alpha  occ. eigenvalues --   -0.78105  -0.72629  -0.72613  -0.71748  -0.71737
 Alpha  occ. eigenvalues --   -0.71317  -0.71164  -0.65855  -0.65728  -0.65700
 Alpha  occ. eigenvalues --   -0.65368  -0.62950  -0.62795  -0.56173  -0.55950
 Alpha  occ. eigenvalues --   -0.53910  -0.53796  -0.53677  -0.53546  -0.49400
 Alpha  occ. eigenvalues --   -0.49383  -0.49369  -0.49362  -0.45346  -0.45342
 Alpha  occ. eigenvalues --   -0.38160  -0.38023  -0.37149  -0.37093
 Alpha virt. eigenvalues --    0.04365   0.04447   0.10385   0.10571   0.15739
 Alpha virt. eigenvalues --    0.15938   0.17809   0.22122   0.24871   0.25554
 Alpha virt. eigenvalues --    0.27865   0.29035   0.29943   0.30789   0.32004

 Mulliken charges:
               1
     1  C   -0.170999
     2  C   -0.219851
     3  C   -0.171654
     4  C    0.159305
     5  C   -0.169738
     6  C   -0.218055
     7  H    0.226303
     8  H    0.215804
     9  H    0.272963
    10  H    0.278090
    11  H    0.226474
    12  N    0.488133
    13  O   -0.457967
    14  O   -0.460583
    15  C   -0.171790
    16  C   -0.221042
    17  C   -0.170071
    18  C    0.159339
    19  C   -0.169647
    20  C   -0.217565
    21  H    0.220498
    22  H    0.217930
    23  H    0.276843
    24  H    0.278762
    25  H    0.227627
    26  N    0.487962
    27  O   -0.457721
    28  O   -0.459349
 Sum of Mulliken charges =  -0.00000

 Dipole moment (field-independent basis, Debye):
    X=             -0.7138    Y=              1.6347    Z=              1.4207  Tot=              2.2804
 Quadrupole moment (field-independent basis, Debye-Ang):
   XX=           -177.1793   YY=            -97.5746   ZZ=           -104.5457
   XY=            -25.5569   XZ=              4.9469   YZ=              0.6055

 Normal termination of Gaussian 16 at Wed May  5 17:55:20 2021.
