 Gaussian 16, Revision A.03,
 Gaussian 16:  EM64L-G16RevA.03 25-Dec-2016

 -------------
 #p 6-31g* mp2
 -------------

 ------------------------------------------------------
 Input file generated by CHIRIPA (05-May-2021 14:55:20)
 ------------------------------------------------------
 Symbolic Z-matrix:
 Charge =  0 Multiplicity = 1

                         Standard orientation:
 ---------------------------------------------------------------------
 Center     Atomic      Atomic             Coordinates (Angstroms)
 Number     Number       Type             X           Y           Z
 ---------------------------------------------------------------------
      1          6           0        0.689422   -0.854242    2.027753
      2          6           0        0.500475   -1.323133    0.723544
      3          6           0        1.409260   -0.995984   -0.287215
      4          6           0        2.500832   -0.194260    0.042934
      5          6           0        2.716486    0.288325    1.332855
      6          6           0        1.794875   -0.051425    2.327717
      7          1           0       -0.021526   -1.113274    2.806760
      8          1           0       -0.357126   -1.946783    0.487694
      9          1           0        1.287162   -1.345379   -1.305269
     10          1           0        3.580954    0.908201    1.537470
     11          1           0        1.944147    0.314148    3.339705
     12          7           0        3.469711    0.158748   -1.018696
     13          8           0        4.423310    0.866596   -0.702091
     14          8           0        3.257174   -0.279096   -2.147305
     15          6           0       -2.893923   -0.336704   -0.649730
     16          6           0       -3.526497   -1.535150    0.058482
     17          6           0       -3.312436   -2.847945   -0.695537
     18          1           0       -3.314201   -0.252927   -1.661310
     19          1           0       -1.817275   -0.518673   -0.772652
     20          1           0       -4.601390   -1.350371    0.181268
     21          1           0       -3.104804   -1.615970    1.068561
     22          1           0       -2.243851   -3.059127   -0.805668
     23          1           0       -3.748940   -2.792017   -1.698003
     24          1           0       -3.772733   -3.691472   -0.171660
     25          6           0       -3.099418    0.982952    0.091896
     26          6           0       -2.466846    2.181397   -0.616316
     27          6           0       -2.680906    3.494191    0.137703
     28          1           0       -4.176067    1.164919    0.214818
     29          1           0       -2.679141    0.899173    1.103475
     30          1           0       -2.888538    2.262216   -1.626395
     31          1           0       -1.391952    1.996617   -0.739102
     32          1           0       -2.244403    3.438264    1.140168
     33          1           0       -3.749491    3.705373    0.247834
     34          1           0       -2.220609    4.337719   -0.386175
 ---------------------------------------------------------------------

 SCF Done:  E(RHF) =  -669.534700665     A.U. after   15 cycles
 E2 =    -0.2093668659D+01 EUMP2 =    -0.67162836932353D+03

 The electronic state is 1-A.
 Alpha  occ. eigenvalues --  -20.60814 -20.60809 -15.85868 -11.31267 -11.27831
 Alpha  occ. eigenvalues --  -11.27825 -11.27573 -11.26854 -11.26822 -11.22522
 Alpha  occ. eigenvalues --  -11.22059 -11.22026 -11.21934 -11.21876 -11.21347
 Alpha  occ. eigenvalues --   -1.59889  -1.39441  -1.19442  -1.09080  -1.08817
 Alpha  occ. eigenvalues --   -1.04854  -1.04158  -0.96599  -0.95656  -0.87620
 Alpha  occ. eigenvalues --   -0.86244  -0.82499  -0.80230  -0.78841  -0.77534
 Alpha  occ. eigenvalues --   -0.72085  -0.71213  -0.70539  -0.65960  -0.65090
 Alpha  occ. eigenvalues --   -0.64701  -0.62282  -0.61423  -0.59981  -0.58191
 Alpha  occ. eigenvalues --   -0.55936  -0.55335  -0.53300  -0.53185  -0.52992
 Alpha  occ. eigenvalues --   -0.52924  -0.50575  -0.48852  -0.48839  -0.48521
 Alpha  occ. eigenvalues --   -0.47286  -0.46369  -0.46275  -0.44839  -0.44384
 Alpha  occ. eigenvalues --   -0.37411  -0.36398
 Alpha virt. eigenvalues --    0.04968   0.11140   0.16340   0.18981   0.23037
 Alpha virt. eigenvalues --    0.23646   0.25421   0.25757   0.27304   0.28674
 Alpha virt. eigenvalues --    0.28842   0.30267   0.31045   0.31349   0.31950

 Mulliken charges:
               1
     1  C   -0.174813
     2  C   -0.222097
     3  C   -0.173649
     4  C    0.158697
     5  C   -0.170975
     6  C   -0.218418
     7  H    0.226376
     8  H    0.234664
     9  H    0.276354
    10  H    0.275969
    11  H    0.223845
    12  N    0.488072
    13  O   -0.460228
    14  O   -0.459940
    15  C   -0.302845
    16  C   -0.303169
    17  C   -0.477739
    18  H    0.153685
    19  H    0.148504
    20  H    0.158116
    21  H    0.143035
    22  H    0.146851
    23  H    0.162009
    24  H    0.163765
    25  C   -0.296673
    26  C   -0.301032
    27  C   -0.475938
    28  H    0.150641
    29  H    0.145580
    30  H    0.153691
    31  H    0.155742
    32  H    0.153673
    33  H    0.155065
    34  H    0.163183
 Sum of Mulliken charges =  -0.00000

 Dipole moment (field-independent basis, Debye):
    X=             -3.4764    Y=             -1.1759    Z=              3.6800  Tot=              5.1971
 Quadrupole moment (field-independent basis, Debye-Ang):
   XX=           -109.7080   YY=            -94.3932   ZZ=            -92.4376
   XY=             -0.8225   XZ=             12.0978   YZ=              0.7158

 Normal termination of Gaussian 16 at Thu May  6 02:58:30 2021.
