 Gaussian 16, Revision A.03,
 Gaussian 16:  EM64L-G16RevA.03 25-Dec-2016

 -------------
 #p 6-31g* mp2
 -------------

 ------------------------------------------------------
 Input file generated by CHIRIPA (05-May-2021 14:55:24)
 ------------------------------------------------------
 Symbolic Z-matrix:
 Charge =  0 Multiplicity = 1

                         Standard orientation:
 ---------------------------------------------------------------------
 Center     Atomic      Atomic             Coordinates (Angstroms)
 Number     Number       Type             X           Y           Z
 ---------------------------------------------------------------------
      1          6           0        1.285412   -1.498904    1.656021
      2          6           0        2.603555   -1.932252    1.479302
      3          6           0        3.451687   -1.277863    0.580974
      4          6           0        2.946472   -0.188699   -0.127384
      5          6           0        1.638041    0.266907    0.026635
      6          6           0        0.807704   -0.402640    0.930402
      7          1           0        0.633474   -2.013137    2.355976
      8          1           0        2.977255   -2.783341    2.041477
      9          1           0        4.476444   -1.592302    0.424708
     10          1           0        1.294037    1.118308   -0.547992
     11          1           0       -0.215533   -0.063890    1.065605
     12          7           0        3.834932    0.512097   -1.081283
     13          8           0        3.365760    1.469125   -1.693339
     14          8           0        4.983657    0.091084   -1.198830
     15          6           0       -3.885441    0.061729   -0.658866
     16          6           0       -4.661680   -1.219366   -0.351892
     17          6           0       -5.258625   -1.863183   -1.603670
     18          1           0       -4.553527    0.777055   -1.157781
     19          1           0       -3.082453   -0.166666   -1.373318
     20          1           0       -5.462097   -0.988892    0.362831
     21          1           0       -3.991718   -1.931652    0.146522
     22          1           0       -4.469810   -2.121257   -2.317652
     23          1           0       -5.948543   -1.173140   -2.100114
     24          1           0       -5.809188   -2.777495   -1.361238
     25          6           0       -3.282670    0.717020    0.582500
     26          6           0       -2.506432    1.998115    0.275526
     27          6           0       -1.909486    2.641932    1.527305
     28          1           0       -4.085658    0.945414    1.296952
     29          1           0       -2.614584    0.001695    1.081414
     30          1           0       -3.176392    2.710402   -0.222888
     31          1           0       -1.706014    1.767641   -0.439198
     32          1           0       -1.219568    1.951890    2.023747
     33          1           0       -2.698300    2.900007    2.241286
     34          1           0       -1.358923    3.556243    1.284872
 ---------------------------------------------------------------------

 SCF Done:  E(RHF) =  -669.534969660     A.U. after   15 cycles
 E2 =    -0.2092506183D+01 EUMP2 =    -0.67162747584291D+03

 The electronic state is 1-A.
 Alpha  occ. eigenvalues --  -20.60750 -20.60744 -15.85802 -11.31168 -11.27742
 Alpha  occ. eigenvalues --  -11.27733 -11.27479 -11.26755 -11.26698 -11.22568
 Alpha  occ. eigenvalues --  -11.22397 -11.22245 -11.22104 -11.21969 -11.21558
 Alpha  occ. eigenvalues --   -1.59825  -1.39378  -1.19341  -1.09287  -1.08735
 Alpha  occ. eigenvalues --   -1.04753  -1.04310  -0.96751  -0.95571  -0.87761
 Alpha  occ. eigenvalues --   -0.86149  -0.82407  -0.80380  -0.79078  -0.77459
 Alpha  occ. eigenvalues --   -0.72021  -0.71148  -0.70454  -0.66111  -0.64992
 Alpha  occ. eigenvalues --   -0.64679  -0.62309  -0.61449  -0.60115  -0.58351
 Alpha  occ. eigenvalues --   -0.56067  -0.55241  -0.53412  -0.53175  -0.53058
 Alpha  occ. eigenvalues --   -0.52837  -0.50710  -0.48800  -0.48777  -0.48654
 Alpha  occ. eigenvalues --   -0.47436  -0.46595  -0.46526  -0.44784  -0.44571
 Alpha  occ. eigenvalues --   -0.37323  -0.36339
 Alpha virt. eigenvalues --    0.05077   0.11250   0.16513   0.18561   0.22910
 Alpha virt. eigenvalues --    0.23699   0.25187   0.25487   0.27240   0.28405
 Alpha virt. eigenvalues --    0.29139   0.30137   0.31058   0.31265   0.31861

 Mulliken charges:
               1
     1  C   -0.173675
     2  C   -0.218513
     3  C   -0.170943
     4  C    0.159260
     5  C   -0.175625
     6  C   -0.228306
     7  H    0.225624
     8  H    0.223349
     9  H    0.275564
    10  H    0.276716
    11  H    0.239384
    12  N    0.488116
    13  O   -0.460428
    14  O   -0.460599
    15  C   -0.298867
    16  C   -0.299773
    17  C   -0.476350
    18  H    0.153628
    19  H    0.151151
    20  H    0.153109
    21  H    0.149436
    22  H    0.156859
    23  H    0.157006
    24  H    0.161636
    25  C   -0.301375
    26  C   -0.305827
    27  C   -0.478963
    28  H    0.154626
    29  H    0.139406
    30  H    0.160209
    31  H    0.148635
    32  H    0.148669
    33  H    0.159763
    34  H    0.167099
 Sum of Mulliken charges =  -0.00000

 Dipole moment (field-independent basis, Debye):
    X=             -3.3466    Y=             -2.3844    Z=              3.3042  Tot=              5.2729
 Quadrupole moment (field-independent basis, Debye-Ang):
   XX=           -109.3417   YY=            -91.8658   ZZ=            -96.7044
   XY=            -10.5049   XZ=             11.0226   YZ=             -1.5236

 Normal termination of Gaussian 16 at Thu May  6 19:19:44 2021.
