 Gaussian 16, Revision A.03,
 Gaussian 16:  EM64L-G16RevA.03 25-Dec-2016

 -------------
 #p 6-31g* mp2
 -------------

 ------------------------------------------------------
 Input file generated by CHIRIPA (05-May-2021 14:53:11)
 ------------------------------------------------------
 Symbolic Z-matrix:
 Charge =  0 Multiplicity = 1

                         Standard orientation:
 ---------------------------------------------------------------------
 Center     Atomic      Atomic             Coordinates (Angstroms)
 Number     Number       Type             X           Y           Z
 ---------------------------------------------------------------------
      1          6           0       -4.463340   -0.052724   -0.576404
      2          6           0       -5.534987   -1.018999   -0.070568
      3          6           0       -6.075650   -1.931384   -1.171945
      4          1           0       -4.882832    0.558106   -1.387489
      5          1           0       -3.637014   -0.629356   -1.014668
      6          1           0       -6.358416   -0.440759    0.367859
      7          1           0       -5.112953   -1.627468    0.739537
      8          1           0       -5.269538   -2.533195   -1.603925
      9          1           0       -6.522077   -1.339744   -1.977715
     10          1           0       -6.840445   -2.613924   -0.788423
     11          6           0       -3.913090    0.865989    0.513055
     12          6           0       -2.841444    1.832265    0.007218
     13          6           0       -2.300780    2.744649    1.108595
     14          1           0       -4.739416    1.442622    0.951319
     15          1           0       -3.493599    0.255160    1.324140
     16          1           0       -3.263477    2.440733   -0.802887
     17          1           0       -2.018014    1.254025   -0.431208
     18          1           0       -1.854354    2.153009    1.914366
     19          1           0       -3.106893    3.346460    1.540576
     20          1           0       -1.535986    3.427190    0.725074
     21          6           0        1.161796   -1.277178    1.020810
     22          6           0        1.108893   -0.096066    0.273350
     23          6           0        2.271825    0.444643   -0.283223
     24          6           0        3.476054   -0.224921   -0.071550
     25          6           0        3.561209   -1.403311    0.668341
     26          6           0        2.385628   -1.925887    1.215577
     27          1           0        0.253489   -1.690170    1.449543
     28          1           0        0.159846    0.409879    0.120461
     29          1           0        2.259500    1.357592   -0.866137
     30          1           0        4.521987   -1.885013    0.803573
     31          1           0        2.429712   -2.843303    1.795618
     32          7           0        4.713894    0.337905   -0.655827
     33          8           0        5.762395   -0.271102   -0.454842
     34          8           0        4.612174    1.377398   -1.303703
 ---------------------------------------------------------------------

 SCF Done:  E(RHF) =  -669.535474487     A.U. after   15 cycles
 E2 =    -0.2091166078D+01 EUMP2 =    -0.67162664056529D+03

 The electronic state is 1-A.
 Alpha  occ. eigenvalues --  -20.60746 -20.60741 -15.85799 -11.31166 -11.27737
 Alpha  occ. eigenvalues --  -11.27727 -11.27484 -11.26757 -11.26721 -11.22664
 Alpha  occ. eigenvalues --  -11.22297 -11.22271 -11.22143 -11.21993 -11.21627
 Alpha  occ. eigenvalues --   -1.59821  -1.39375  -1.19338  -1.09283  -1.08735
 Alpha  occ. eigenvalues --   -1.04743  -1.04351  -0.96773  -0.95570  -0.87783
 Alpha  occ. eigenvalues --   -0.86143  -0.82402  -0.80423  -0.79075  -0.77448
 Alpha  occ. eigenvalues --   -0.72018  -0.71144  -0.70453  -0.65978  -0.64991
 Alpha  occ. eigenvalues --   -0.64741  -0.62193  -0.61648  -0.60144  -0.58379
 Alpha  occ. eigenvalues --   -0.56067  -0.55245  -0.53458  -0.53184  -0.53072
 Alpha  occ. eigenvalues --   -0.52834  -0.50717  -0.48801  -0.48772  -0.48696
 Alpha  occ. eigenvalues --   -0.47474  -0.46604  -0.46541  -0.44780  -0.44596
 Alpha  occ. eigenvalues --   -0.37324  -0.36342
 Alpha virt. eigenvalues --    0.05087   0.11291   0.16573   0.18904   0.22730
 Alpha virt. eigenvalues --    0.23576   0.25425   0.26246   0.27118   0.28314
 Alpha virt. eigenvalues --    0.28760   0.30111   0.30923   0.31065   0.31860

 Mulliken charges:
               1
     1  C   -0.298687
     2  C   -0.299877
     3  C   -0.476119
     4  H    0.152773
     5  H    0.147273
     6  H    0.153921
     7  H    0.150275
     8  H    0.155157
     9  H    0.156964
    10  H    0.162011
    11  C   -0.297955
    12  C   -0.305929
    13  C   -0.477756
    14  H    0.153947
    15  H    0.145474
    16  H    0.158547
    17  H    0.144039
    18  H    0.153266
    19  H    0.160750
    20  H    0.162642
    21  C   -0.173547
    22  C   -0.227635
    23  C   -0.173484
    24  C    0.158952
    25  C   -0.171232
    26  C   -0.218408
    27  H    0.225309
    28  H    0.237393
    29  H    0.276053
    30  H    0.275520
    31  H    0.223252
    32  N    0.488067
    33  O   -0.460585
    34  O   -0.460372
 Sum of Mulliken charges =  -0.00000

 Dipole moment (field-independent basis, Debye):
    X=             -4.5854    Y=             -1.9101    Z=              2.0535  Tot=              5.3751
 Quadrupole moment (field-independent basis, Debye-Ang):
   XX=           -122.8976   YY=            -91.0228   ZZ=            -95.4241
   XY=             -9.3827   XZ=              8.5863   YZ=             -2.6730

 Normal termination of Gaussian 16 at Thu May  6 05:40:19 2021.
