 Gaussian 16, Revision A.03,
 Gaussian 16:  EM64L-G16RevA.03 25-Dec-2016

 -------------
 #p 6-31g* mp2
 -------------

 ------------------------------------------------------
 Input file generated by CHIRIPA (05-May-2021 14:53:12)
 ------------------------------------------------------
 Symbolic Z-matrix:
 Charge =  0 Multiplicity = 1

                         Standard orientation:
 ---------------------------------------------------------------------
 Center     Atomic      Atomic             Coordinates (Angstroms)
 Number     Number       Type             X           Y           Z
 ---------------------------------------------------------------------
      1          6           0        3.095533    0.334259    0.108838
      2          6           0        3.459526   -1.138879   -0.079193
      3          6           0        4.600652   -1.587124    0.834428
      4          1           0        3.983816    0.952045   -0.081527
      5          1           0        2.815288    0.504528    1.157583
      6          1           0        3.737669   -1.306607   -1.127582
      7          1           0        2.570224   -1.753218    0.111454
      8          1           0        4.329419   -1.448365    1.885989
      9          1           0        5.503497   -0.999216    0.639913
     10          1           0        4.844522   -2.643346    0.683493
     11          6           0        1.956370    0.797289   -0.797605
     12          6           0        1.592376    2.270428   -0.609574
     13          6           0        0.451251    2.718672   -1.523196
     14          1           0        2.236615    0.627021   -1.846350
     15          1           0        1.068086    0.179504   -0.607241
     16          1           0        2.481678    2.884767   -0.800222
     17          1           0        1.314233    2.438156    0.438815
     18          1           0       -0.451594    2.130765   -1.328680
     19          1           0        0.722484    2.579914   -2.574756
     20          1           0        0.207381    3.774895   -1.372260
     21          6           0       -1.979438    1.592811    1.760822
     22          6           0       -2.528922    1.664759    0.476527
     23          6           0       -2.531037    0.543602   -0.358667
     24          6           0       -1.972815   -0.638730    0.124831
     25          6           0       -1.417796   -0.741986    1.399421
     26          6           0       -1.426604    0.391785    2.217366
     27          1           0       -1.982038    2.468653    2.402920
     28          1           0       -2.958947    2.596171    0.119321
     29          1           0       -2.949763    0.571442   -1.357322
     30          1           0       -0.996357   -1.684381    1.727599
     31          1           0       -0.999169    0.332990    3.214304
     32          7           0       -1.969273   -1.832327   -0.750220
     33          8           0       -1.471375   -2.862213   -0.300701
     34          8           0       -2.464462   -1.715381   -1.869036
 ---------------------------------------------------------------------

 SCF Done:  E(RHF) =  -669.534195093     A.U. after   15 cycles
 E2 =    -0.2095288689D+01 EUMP2 =    -0.67162948378229D+03

 The electronic state is 1-A.
 Alpha  occ. eigenvalues --  -20.60889 -20.60883 -15.85944 -11.31366 -11.27927
 Alpha  occ. eigenvalues --  -11.27890 -11.27660 -11.26966 -11.26922 -11.21678
 Alpha  occ. eigenvalues --  -11.21471 -11.21381 -11.21301 -11.21070 -11.21006
 Alpha  occ. eigenvalues --   -1.59963  -1.39514  -1.19553  -1.08923  -1.08406
 Alpha  occ. eigenvalues --   -1.04965  -1.03511  -0.95977  -0.95748  -0.87002
 Alpha  occ. eigenvalues --   -0.86336  -0.82578  -0.79584  -0.78219  -0.77617
 Alpha  occ. eigenvalues --   -0.72158  -0.71293  -0.70626  -0.65195  -0.65060
 Alpha  occ. eigenvalues --   -0.64932  -0.62290  -0.60964  -0.59350  -0.57592
 Alpha  occ. eigenvalues --   -0.55427  -0.55360  -0.53281  -0.53025  -0.52674
 Alpha  occ. eigenvalues --   -0.52377  -0.49940  -0.48923  -0.48911  -0.47877
 Alpha  occ. eigenvalues --   -0.46608  -0.45740  -0.45675  -0.44901  -0.43774
 Alpha  occ. eigenvalues --   -0.37488  -0.36419
 Alpha virt. eigenvalues --    0.04884   0.11023   0.16334   0.21099   0.22804
 Alpha virt. eigenvalues --    0.24245   0.26342   0.26856   0.27227   0.28231
 Alpha virt. eigenvalues --    0.28501   0.30842   0.31298   0.31590   0.31983

 Mulliken charges:
               1
     1  C   -0.297522
     2  C   -0.301024
     3  C   -0.475434
     4  H    0.149109
     5  H    0.144316
     6  H    0.154458
     7  H    0.155829
     8  H    0.151787
     9  H    0.154497
    10  H    0.162368
    11  C   -0.300562
    12  C   -0.297079
    13  C   -0.482659
    14  H    0.151983
    15  H    0.151219
    16  H    0.151218
    17  H    0.146728
    18  H    0.161314
    19  H    0.156520
    20  H    0.153175
    21  C   -0.170366
    22  C   -0.214958
    23  C   -0.177172
    24  C    0.163571
    25  C   -0.173404
    26  C   -0.217259
    27  H    0.226817
    28  H    0.226117
    29  H    0.277436
    30  H    0.276237
    31  H    0.224475
    32  N    0.487962
    33  O   -0.460193
    34  O   -0.459504
 Sum of Mulliken charges =  -0.00000

 Dipole moment (field-independent basis, Debye):
    X=             -0.1564    Y=              4.0886    Z=              3.0919  Tot=              5.1285
 Quadrupole moment (field-independent basis, Debye-Ang):
   XX=            -94.4141   YY=            -99.7365   ZZ=            -91.5401
   XY=             -9.5453   XZ=             -5.4332   YZ=             -3.2632

 Normal termination of Gaussian 16 at Thu May  6 08:52:29 2021.
