 Gaussian 16, Revision A.03,
 Gaussian 16:  EM64L-G16RevA.03 25-Dec-2016

 -------------
 #p 6-31g* mp2
 -------------

 ------------------------------------------------------
 Input file generated by CHIRIPA (05-May-2021 14:57:24)
 ------------------------------------------------------
 Symbolic Z-matrix:
 Charge =  0 Multiplicity = 1

                         Standard orientation:
 ---------------------------------------------------------------------
 Center     Atomic      Atomic             Coordinates (Angstroms)
 Number     Number       Type             X           Y           Z
 ---------------------------------------------------------------------
      1          6           0       -5.683523    1.220182   -0.235587
      2          6           0       -5.585397   -0.012023   -0.890234
      3          6           0       -4.487301   -0.848402   -0.668419
      4          6           0       -3.501206   -0.419194    0.218534
      5          6           0       -3.570383    0.802746    0.885894
      6          6           0       -4.677476    1.622924    0.648828
      7          1           0       -6.540045    1.863609   -0.413822
      8          1           0       -6.365203   -0.327382   -1.577618
      9          1           0       -4.386111   -1.807397   -1.161884
     10          1           0       -2.777194    1.089875    1.565471
     11          1           0       -4.751038    2.579340    1.158634
     12          7           0       -2.333938   -1.296055    0.461433
     13          8           0       -1.478560   -0.894927    1.247602
     14          8           0       -2.296514   -2.367865   -0.138952
     15          6           0        1.431309    1.286132   -0.652830
     16          6           0        1.607036   -0.099780   -0.722773
     17          6           0        2.856052   -0.671164   -0.461952
     18          6           0        3.912294    0.176892   -0.132645
     19          6           0        3.768840    1.561329   -0.054877
     20          6           0        2.510869    2.110809   -0.319692
     21          1           0        0.457566    1.721489   -0.856992
     22          1           0        0.770426   -0.742676   -0.981251
     23          1           0        3.020001   -1.740897   -0.508968
     24          1           0        4.621673    2.176461    0.205327
     25          1           0        2.377322    3.187460   -0.264625
     26          7           0        5.239311   -0.416412    0.145588
     27          8           0        6.153941    0.352457    0.433563
     28          8           0        5.339670   -1.639080    0.070425
 ---------------------------------------------------------------------

 SCF Done:  E(RHF) =  -868.338805582     A.U. after   16 cycles
 E2 =    -0.2599226568D+01 EUMP2 =    -0.87093803215009D+03

 The electronic state is 1-A.
 Alpha  occ. eigenvalues --  -20.61805 -20.61798 -20.60087 -20.60071 -15.86824
 Alpha  occ. eigenvalues --  -15.85127 -11.32046 -11.30378 -11.28599 -11.28570
 Alpha  occ. eigenvalues --  -11.28276 -11.27560 -11.27534 -11.26968 -11.26824
 Alpha  occ. eigenvalues --  -11.26673 -11.26026 -11.25785  -1.60886  -1.59158
 Alpha  occ. eigenvalues --   -1.40432  -1.38715  -1.20199  -1.18526  -1.09618
 Alpha  occ. eigenvalues --   -1.07957  -1.05570  -1.03895  -0.96474  -0.94816
 Alpha  occ. eigenvalues --   -0.86972  -0.85312  -0.83300  -0.81638  -0.78377
 Alpha  occ. eigenvalues --   -0.76694  -0.73024  -0.72225  -0.71351  -0.71284
 Alpha  occ. eigenvalues --   -0.70477  -0.69679  -0.65841  -0.65557  -0.64183
 Alpha  occ. eigenvalues --   -0.63892  -0.62912  -0.61240  -0.56058  -0.54467
 Alpha  occ. eigenvalues --   -0.53918  -0.53647  -0.52244  -0.51989  -0.49806
 Alpha  occ. eigenvalues --   -0.49782  -0.48112  -0.48098  -0.45858  -0.44146
 Alpha  occ. eigenvalues --   -0.38169  -0.37172  -0.36515  -0.35465
 Alpha virt. eigenvalues --    0.04109   0.05815   0.10475   0.12170   0.15657
 Alpha virt. eigenvalues --    0.17345   0.20673   0.22154   0.26601   0.27488
 Alpha virt. eigenvalues --    0.28149   0.28895   0.30396   0.31454   0.32068

 Mulliken charges:
               1
     1  C   -0.170105
     2  C   -0.218384
     3  C   -0.170987
     4  C    0.156300
     5  C   -0.174137
     6  C   -0.218648
     7  H    0.228410
     8  H    0.226287
     9  H    0.277124
    10  H    0.275853
    11  H    0.225418
    12  N    0.484873
    13  O   -0.459795
    14  O   -0.459957
    15  C   -0.170072
    16  C   -0.209722
    17  C   -0.172093
    18  C    0.158253
    19  C   -0.172875
    20  C   -0.218911
    21  H    0.218370
    22  H    0.232960
    23  H    0.277210
    24  H    0.272307
    25  H    0.218075
    26  N    0.488081
    27  O   -0.463554
    28  O   -0.460282
 Sum of Mulliken charges =  -0.00000

 Dipole moment (field-independent basis, Debye):
    X=             -9.2110    Y=              5.0212    Z=             -1.8233  Tot=             10.6480
 Quadrupole moment (field-independent basis, Debye-Ang):
   XX=           -112.0838   YY=           -100.8538   ZZ=           -104.1108
   XY=              0.9426   XZ=              0.8116   YZ=              4.0825

 Normal termination of Gaussian 16 at Thu May  6 14:39:21 2021.
