 Gaussian 16, Revision A.03,
 Gaussian 16:  EM64L-G16RevA.03 25-Dec-2016

 -------------
 #p 6-31g* mp2
 -------------

 ------------------------------------------------------
 Input file generated by CHIRIPA (05-May-2021 14:57:23)
 ------------------------------------------------------
 Symbolic Z-matrix:
 Charge =  0 Multiplicity = 1

                         Standard orientation:
 ---------------------------------------------------------------------
 Center     Atomic      Atomic             Coordinates (Angstroms)
 Number     Number       Type             X           Y           Z
 ---------------------------------------------------------------------
      1          6           0       -2.007828    2.719383   -0.508320
      2          6           0       -1.264666    1.668293   -1.055532
      3          6           0       -1.677284    0.343343   -0.885821
      4          6           0       -2.843225    0.104609   -0.159957
      5          6           0       -3.605205    1.130265    0.397453
      6          6           0       -3.173670    2.447494    0.215150
      7          1           0       -1.679949    3.745637   -0.645047
      8          1           0       -0.358852    1.876471   -1.617856
      9          1           0       -1.120967   -0.489410   -1.298680
     10          1           0       -4.503892    0.891404    0.953082
     11          1           0       -3.752812    3.261789    0.641251
     12          7           0       -3.290058   -1.293969    0.026373
     13          8           0       -4.320860   -1.477837    0.670016
     14          8           0       -2.601023   -2.179825   -0.474752
     15          6           0        4.186237    1.752692    0.200213
     16          6           0        4.561433    0.655744   -0.582382
     17          6           0        3.784099   -0.506206   -0.595400
     18          6           0        2.632624   -0.536953    0.189744
     19          6           0        2.232409    0.539473    0.979951
     20          6           0        3.024969    1.691163    0.977511
     21          1           0        4.796003    2.651338    0.204322
     22          1           0        5.462778    0.700701   -1.187032
     23          1           0        4.051271   -1.369976   -1.192005
     24          1           0        1.328519    0.464878    1.572266
     25          1           0        2.731145    2.541542    1.586256
     26          7           0        1.801636   -1.761627    0.184145
     27          8           0        0.791731   -1.763573    0.884664
     28          8           0        2.175946   -2.696390   -0.520657
 ---------------------------------------------------------------------

 SCF Done:  E(RHF) =  -868.336453098     A.U. after   16 cycles
 E2 =    -0.2601497721D+01 EUMP2 =    -0.87093795081888D+03

 The electronic state is 1-A.
 Alpha  occ. eigenvalues --  -20.60940 -20.60913 -20.60010 -20.59905 -15.85974
 Alpha  occ. eigenvalues --  -15.85020 -11.31538 -11.30718 -11.28122 -11.28115
 Alpha  occ. eigenvalues --  -11.27900 -11.27377 -11.27308 -11.27231 -11.27180
 Alpha  occ. eigenvalues --  -11.27154 -11.26475 -11.26458  -1.60000  -1.59026
 Alpha  occ. eigenvalues --   -1.39546  -1.38566  -1.19734  -1.18953  -1.09089
 Alpha  occ. eigenvalues --   -1.08295  -1.05150  -1.04410  -0.95883  -0.95066
 Alpha  occ. eigenvalues --   -0.86535  -0.85785  -0.82702  -0.81897  -0.77727
 Alpha  occ. eigenvalues --   -0.76863  -0.72169  -0.71395  -0.71222  -0.70814
 Alpha  occ. eigenvalues --   -0.70339  -0.70067  -0.65367  -0.65137  -0.64602
 Alpha  occ. eigenvalues --   -0.64422  -0.62479  -0.61735  -0.55635  -0.54939
 Alpha  occ. eigenvalues --   -0.53507  -0.53233  -0.52717  -0.52499  -0.48938
 Alpha  occ. eigenvalues --   -0.48923  -0.48040  -0.47963  -0.44907  -0.43872
 Alpha  occ. eigenvalues --   -0.37745  -0.37010  -0.36780  -0.35972
 Alpha virt. eigenvalues --    0.04755   0.05702   0.10863   0.11613   0.16247
 Alpha virt. eigenvalues --    0.17083   0.21056   0.21636   0.26962   0.27458
 Alpha virt. eigenvalues --    0.27964   0.28522   0.30585   0.31180   0.32192

 Mulliken charges:
               1
     1  C   -0.173817
     2  C   -0.223590
     3  C   -0.165543
     4  C    0.158996
     5  C   -0.171415
     6  C   -0.219737
     7  H    0.221018
     8  H    0.220687
     9  H    0.280871
    10  H    0.275274
    11  H    0.220920
    12  N    0.488138
    13  O   -0.465624
    14  O   -0.447710
    15  C   -0.172007
    16  C   -0.219079
    17  C   -0.171729
    18  C    0.154257
    19  C   -0.172684
    20  C   -0.221030
    21  H    0.225793
    22  H    0.224563
    23  H    0.277405
    24  H    0.278383
    25  H    0.222963
    26  N    0.484815
    27  O   -0.453561
    28  O   -0.456555
 Sum of Mulliken charges =  -0.00000

 Dipole moment (field-independent basis, Debye):
    X=              4.5810    Y=              8.8574    Z=             -0.6130  Tot=              9.9908
 Quadrupole moment (field-independent basis, Debye-Ang):
   XX=            -94.2438   YY=           -108.2433   ZZ=           -102.2838
   XY=             -6.6610   XZ=             -2.4949   YZ=              2.6586

 Normal termination of Gaussian 16 at Thu May  6 21:12:18 2021.
