 Gaussian 16, Revision A.03,
 Gaussian 16:  EM64L-G16RevA.03 25-Dec-2016

 -------------
 #p 6-31g* mp2
 -------------

 ------------------------------------------------------
 Input file generated by CHIRIPA (05-May-2021 14:53:16)
 ------------------------------------------------------
 Symbolic Z-matrix:
 Charge =  0 Multiplicity = 1

                         Standard orientation:
 ---------------------------------------------------------------------
 Center     Atomic      Atomic             Coordinates (Angstroms)
 Number     Number       Type             X           Y           Z
 ---------------------------------------------------------------------
      1          6           0        2.971856   -1.147800    0.374037
      2          6           0        1.548102   -1.579658    0.021322
      3          6           0        1.046907   -2.731889    0.892506
      4          1           0        3.646020   -2.008862    0.269062
      5          1           0        3.006201   -0.851024    1.431458
      6          1           0        1.516144   -1.874217   -1.035480
      7          1           0        0.877281   -0.717420    0.126964
      8          1           0        1.050056   -2.445516    1.949190
      9          1           0        1.692549   -3.608886    0.780142
     10          1           0        0.027222   -3.024577    0.623366
     11          6           0        3.486970    0.003202   -0.488274
     12          6           0        4.910724    0.435060   -0.135559
     13          6           0        5.411919    1.587291   -1.006743
     14          1           0        3.452625   -0.293574   -1.545695
     15          1           0        2.812807    0.864264   -0.383299
     16          1           0        5.581546   -0.427178   -0.241200
     17          1           0        4.942682    0.729619    0.921243
     18          1           0        4.766278    2.464287   -0.894378
     19          1           0        5.408771    1.300918   -2.063427
     20          1           0        6.431604    1.879979   -0.737603
     21          6           0       -1.480159    2.537364    0.998185
     22          6           0       -2.454108    2.634184   -0.001101
     23          6           0       -3.038703    1.482711   -0.536735
     24          6           0       -2.623795    0.245030   -0.047563
     25          6           0       -1.655875    0.115823    0.947286
     26          6           0       -1.084847    1.280709    1.468360
     27          1           0       -1.031302    3.437067    1.408623
     28          1           0       -2.763059    3.608792   -0.368161
     29          1           0       -3.794863    1.528773   -1.311021
     30          1           0       -1.368411   -0.869708    1.292993
     31          1           0       -0.328693    1.202489    2.244347
     32          7           0       -3.235497   -0.981083   -0.606908
     33          8           0       -2.852644   -2.059667   -0.158895
     34          8           0       -4.086222   -0.840309   -1.482743
 ---------------------------------------------------------------------

 SCF Done:  E(RHF) =  -669.534979126     A.U. after   15 cycles
 E2 =    -0.2093584035D+01 EUMP2 =    -0.67162856316061D+03

 The electronic state is 1-A.
 Alpha  occ. eigenvalues --  -20.60867 -20.60862 -15.85909 -11.31236 -11.27828
 Alpha  occ. eigenvalues --  -11.27785 -11.27573 -11.26829 -11.26819 -11.21851
 Alpha  occ. eigenvalues --  -11.21644 -11.21614 -11.21551 -11.21326 -11.21057
 Alpha  occ. eigenvalues --   -1.59931  -1.39486  -1.19433  -1.08826  -1.08631
 Alpha  occ. eigenvalues --   -1.04846  -1.03699  -0.96162  -0.95658  -0.87163
 Alpha  occ. eigenvalues --   -0.86227  -0.82505  -0.79762  -0.78450  -0.77547
 Alpha  occ. eigenvalues --   -0.72133  -0.71248  -0.70552  -0.65327  -0.65069
 Alpha  occ. eigenvalues --   -0.64832  -0.62277  -0.61048  -0.59478  -0.57736
 Alpha  occ. eigenvalues --   -0.55522  -0.55276  -0.53187  -0.52957  -0.52748
 Alpha  occ. eigenvalues --   -0.52533  -0.50115  -0.48890  -0.48882  -0.48056
 Alpha  occ. eigenvalues --   -0.46825  -0.45979  -0.45927  -0.44891  -0.43930
 Alpha  occ. eigenvalues --   -0.37412  -0.36344
 Alpha virt. eigenvalues --    0.04944   0.11177   0.16349   0.20456   0.22884
 Alpha virt. eigenvalues --    0.23964   0.26249   0.26825   0.27410   0.27897
 Alpha virt. eigenvalues --    0.29511   0.30531   0.31428   0.31810   0.31889

 Mulliken charges:
               1
     1  C   -0.296585
     2  C   -0.307337
     3  C   -0.490952
     4  H    0.151683
     5  H    0.143806
     6  H    0.157065
     7  H    0.151382
     8  H    0.145469
     9  H    0.159512
    10  H    0.180663
    11  C   -0.297975
    12  C   -0.299514
    13  C   -0.475440
    14  H    0.151935
    15  H    0.146631
    16  H    0.153504
    17  H    0.149752
    18  H    0.153027
    19  H    0.156608
    20  H    0.160651
    21  C   -0.170432
    22  C   -0.218868
    23  C   -0.170377
    24  C    0.156647
    25  C   -0.172986
    26  C   -0.220961
    27  H    0.225905
    28  H    0.223726
    29  H    0.275838
    30  H    0.286137
    31  H    0.224270
    32  N    0.489144
    33  O   -0.462451
    34  O   -0.459479
 Sum of Mulliken charges =  -0.00000

 Dipole moment (field-independent basis, Debye):
    X=              2.0563    Y=              4.2538    Z=              1.8657  Tot=              5.0798
 Quadrupole moment (field-independent basis, Debye-Ang):
   XX=           -105.1510   YY=            -91.3525   ZZ=            -93.5753
   XY=            -13.4640   XZ=             -3.5119   YZ=             -0.5592

 Normal termination of Gaussian 16 at Thu May  6 17:13:51 2021.
