 Gaussian 16, Revision A.03,
 Gaussian 16:  EM64L-G16RevA.03 25-Dec-2016

 -------------
 #p 6-31g* mp2
 -------------

 ------------------------------------------------------
 Input file generated by CHIRIPA (05-May-2021 14:57:24)
 ------------------------------------------------------
 Symbolic Z-matrix:
 Charge =  0 Multiplicity = 1

                         Standard orientation:
 ---------------------------------------------------------------------
 Center     Atomic      Atomic             Coordinates (Angstroms)
 Number     Number       Type             X           Y           Z
 ---------------------------------------------------------------------
      1          6           0       -2.787246    2.485294   -0.022379
      2          6           0       -3.873106    1.916420    0.651275
      3          6           0       -4.146591    0.550634    0.531339
      4          6           0       -3.309839   -0.220211   -0.274225
      5          6           0       -2.220384    0.317208   -0.958007
      6          6           0       -1.965799    1.685283   -0.823458
      7          1           0       -2.582137    3.547159    0.076466
      8          1           0       -4.512748    2.535293    1.274091
      9          1           0       -4.980534    0.084319    1.041738
     10          1           0       -1.600615   -0.325275   -1.571620
     11          1           0       -1.121804    2.124363   -1.347792
     12          7           0       -3.589361   -1.667319   -0.408931
     13          8           0       -2.837105   -2.324856   -1.124747
     14          8           0       -4.555414   -2.116624    0.203853
     15          6           0        5.337283   -0.129920   -1.181157
     16          6           0        4.202425    0.544664   -1.643272
     17          6           0        3.047976    0.612894   -0.857688
     18          6           0        3.063311   -0.007498    0.390578
     19          6           0        4.178239   -0.687089    0.878822
     20          6           0        5.321597   -0.742564    0.076199
     21          1           0        6.229779   -0.177969   -1.798036
     22          1           0        4.211743    1.021376   -2.619338
     23          1           0        2.155500    1.128531   -1.190889
     24          1           0        4.138773   -1.152552    1.856168
     25          1           0        6.201486   -1.267148    0.437658
     26          7           0        1.847019    0.057983    1.231260
     27          8           0        1.886006   -0.496813    2.327308
     28          8           0        0.877733    0.662862    0.778221
 ---------------------------------------------------------------------

 SCF Done:  E(RHF) =  -868.337640588     A.U. after   16 cycles
 E2 =    -0.2600135904D+01 EUMP2 =    -0.87093777649161D+03

 The electronic state is 1-A.
 Alpha  occ. eigenvalues --  -20.61184 -20.61136 -20.59917 -20.59910 -15.86203
 Alpha  occ. eigenvalues --  -15.84964 -11.31553 -11.30136 -11.28187 -11.28068
 Alpha  occ. eigenvalues --  -11.27821 -11.27143 -11.27079 -11.26713 -11.26695
 Alpha  occ. eigenvalues --  -11.26443 -11.25733 -11.25703  -1.60227  -1.58989
 Alpha  occ. eigenvalues --   -1.39789  -1.38551  -1.19713  -1.18292  -1.09105
 Alpha  occ. eigenvalues --   -1.07741  -1.05119  -1.03688  -0.95951  -0.94610
 Alpha  occ. eigenvalues --   -0.86517  -0.85120  -0.82796  -0.81461  -0.77857
 Alpha  occ. eigenvalues --   -0.76524  -0.72435  -0.71542  -0.71199  -0.70826
 Alpha  occ. eigenvalues --   -0.70296  -0.69466  -0.65372  -0.65122  -0.63980
 Alpha  occ. eigenvalues --   -0.63752  -0.62483  -0.61082  -0.55604  -0.54252
 Alpha  occ. eigenvalues --   -0.53436  -0.53216  -0.51973  -0.51840  -0.49196
 Alpha  occ. eigenvalues --   -0.49162  -0.47956  -0.47937  -0.45201  -0.44001
 Alpha  occ. eigenvalues --   -0.37675  -0.36717  -0.36258  -0.35186
 Alpha virt. eigenvalues --    0.04668   0.06053   0.10937   0.12408   0.16196
 Alpha virt. eigenvalues --    0.17556   0.20446   0.22174   0.25755   0.27379
 Alpha virt. eigenvalues --    0.28882   0.29187   0.30602   0.31418   0.33111

 Mulliken charges:
               1
     1  C   -0.169821
     2  C   -0.217834
     3  C   -0.171069
     4  C    0.158194
     5  C   -0.159618
     6  C   -0.200048
     7  H    0.221386
     8  H    0.219642
     9  H    0.272400
    10  H    0.269224
    11  H    0.214941
    12  N    0.488714
    13  O   -0.463895
    14  O   -0.462955
    15  C   -0.170362
    16  C   -0.217741
    17  C   -0.170137
    18  C    0.159712
    19  C   -0.169910
    20  C   -0.217963
    21  H    0.227046
    22  H    0.223185
    23  H    0.266606
    24  H    0.277424
    25  H    0.225315
    26  N    0.492447
    27  O   -0.455695
    28  O   -0.469187
 Sum of Mulliken charges =  -0.00000

 Dipole moment (field-independent basis, Debye):
    X=              5.6019    Y=              4.8277    Z=             -2.3578  Tot=              7.7619
 Quadrupole moment (field-independent basis, Debye-Ang):
   XX=            -81.7907   YY=           -107.1953   ZZ=           -103.9224
   XY=            -20.1327   XZ=            -10.3438   YZ=             -3.4902

 Normal termination of Gaussian 16 at Thu May  6 05:04:43 2021.
