 Gaussian 16, Revision A.03,
 Gaussian 16:  EM64L-G16RevA.03 25-Dec-2016

 -------------
 #p 6-31g* mp2
 -------------

 ------------------------------------------------------
 Input file generated by CHIRIPA (05-May-2021 14:51:12)
 ------------------------------------------------------
 Symbolic Z-matrix:
 Charge =  0 Multiplicity = 1

                         Standard orientation:
 ---------------------------------------------------------------------
 Center     Atomic      Atomic             Coordinates (Angstroms)
 Number     Number       Type             X           Y           Z
 ---------------------------------------------------------------------
      1          6           0       -2.843244   -0.283076   -0.112485
      2          6           0       -2.719569   -1.239954   -1.298686
      3          6           0       -3.076674   -2.681500   -0.935073
      4          1           0       -2.190456   -0.630239    0.700098
      5          1           0       -3.870985   -0.320765    0.274457
      6          1           0       -1.692731   -1.199439   -1.684145
      7          1           0       -3.372583   -0.890365   -2.108610
      8          1           0       -4.107255   -2.742906   -0.570746
      9          1           0       -2.417858   -3.053735   -0.143869
     10          1           0       -2.981446   -3.348468   -1.797595
     11          6           0       -2.489531    1.161804   -0.460243
     12          6           0       -2.613207    2.118682    0.725958
     13          6           0       -2.256101    3.560228    0.362345
     14          1           0       -1.461791    1.199493   -0.847185
     15          1           0       -3.142320    1.508967   -1.272826
     16          1           0       -1.960193    1.769094    1.535882
     17          1           0       -3.640045    2.078167    1.111417
     18          1           0       -2.914917    3.932463   -0.428859
     19          1           0       -1.225520    3.621634   -0.001982
     20          1           0       -2.351329    4.227196    1.224867
     21          6           0        2.995908    0.202415    0.035430
     22          6           0        4.403539   -0.015955   -0.520335
     23          6           0        5.049639    1.277205   -1.018418
     24          1           0        2.366221    0.651782   -0.744640
     25          1           0        3.042556    0.930281    0.857275
     26          1           0        4.354447   -0.744236   -1.339977
     27          1           0        5.029897   -0.465032    0.261089
     28          1           0        5.127834    2.006636   -0.205757
     29          1           0        4.448546    1.725845   -1.815919
     30          1           0        6.055277    1.098061   -1.411431
     31          6           0        2.336867   -1.081143    0.537298
     32          6           0        0.929236   -0.862773    1.093062
     33          6           0        0.283136   -2.155933    1.591146
     34          1           0        2.290219   -1.809009   -0.284547
     35          1           0        2.966554   -1.530511    1.317368
     36          1           0        0.302878   -0.413697    0.311638
     37          1           0        0.978329   -0.134493    1.912705
     38          1           0        0.884229   -2.604573    2.388647
     39          1           0        0.204942   -2.885364    0.778485
     40          1           0       -0.722501   -1.976790    1.984159
 ---------------------------------------------------------------------

 SCF Done:  E(RHF) =  -470.732337740     A.U. after   11 cycles
 E2 =    -0.1585034364D+01 EUMP2 =    -0.47231737210384D+03

 The electronic state is 1-A.
 Alpha  occ. eigenvalues --  -11.21699 -11.21653 -11.21582 -11.21571 -11.21486
 Alpha  occ. eigenvalues --  -11.21425 -11.21364 -11.21274 -11.21181 -11.21109
 Alpha  occ. eigenvalues --  -11.21045 -11.21009  -1.08541  -1.08378  -1.03633
 Alpha  occ. eigenvalues --   -1.03483  -0.96073  -0.95943  -0.87085  -0.86962
 Alpha  occ. eigenvalues --   -0.79687  -0.79560  -0.78332  -0.78221  -0.65425
 Alpha  occ. eigenvalues --   -0.64856  -0.61172  -0.60728  -0.59465  -0.59275
 Alpha  occ. eigenvalues --   -0.57736  -0.57524  -0.55348  -0.55222  -0.52785
 Alpha  occ. eigenvalues --   -0.52639  -0.52549  -0.52323  -0.50072  -0.49816
 Alpha  occ. eigenvalues --   -0.48013  -0.47860  -0.46708  -0.46587  -0.45982
 Alpha  occ. eigenvalues --   -0.45813  -0.45636  -0.45553  -0.43851  -0.43747
 Alpha virt. eigenvalues --    0.19739   0.23082   0.23264   0.24751   0.25401
 Alpha virt. eigenvalues --    0.26285   0.26775   0.27721   0.29086   0.29651
 Alpha virt. eigenvalues --    0.30567   0.30749   0.31679   0.32071   0.32491

 Mulliken charges:
               1
     1  C   -0.307603
     2  C   -0.299446
     3  C   -0.479938
     4  H    0.159632
     5  H    0.149699
     6  H    0.150744
     7  H    0.151999
     8  H    0.154897
     9  H    0.160000
    10  H    0.159590
    11  C   -0.299299
    12  C   -0.300111
    13  C   -0.475781
    14  H    0.149518
    15  H    0.149718
    16  H    0.152701
    17  H    0.151793
    18  H    0.155014
    19  H    0.155432
    20  H    0.160082
    21  C   -0.298402
    22  C   -0.299726
    23  C   -0.475798
    24  H    0.149067
    25  H    0.149743
    26  H    0.152099
    27  H    0.152164
    28  H    0.155291
    29  H    0.155282
    30  H    0.160486
    31  C   -0.298083
    32  C   -0.307894
    33  C   -0.481057
    34  H    0.149799
    35  H    0.150110
    36  H    0.159662
    37  H    0.152217
    38  H    0.156555
    39  H    0.157327
    40  H    0.162516
 Sum of Mulliken charges =  -0.00000

 Dipole moment (field-independent basis, Debye):
    X=              0.0438    Y=             -0.0169    Z=              0.0345  Tot=              0.0583
 Quadrupole moment (field-independent basis, Debye-Ang):
   XX=            -84.1349   YY=            -86.6343   ZZ=            -84.0348
   XY=             -0.8748   XZ=              0.8144   YZ=              0.5132

 Normal termination of Gaussian 16 at Thu May  6 02:19:26 2021.
