 Gaussian 16, Revision A.03,
 Gaussian 16:  EM64L-G16RevA.03 25-Dec-2016

 -------------
 #p 6-31g* mp2
 -------------

 ------------------------------------------------------
 Input file generated by CHIRIPA (05-May-2021 14:55:18)
 ------------------------------------------------------
 Symbolic Z-matrix:
 Charge =  0 Multiplicity = 1

                         Standard orientation:
 ---------------------------------------------------------------------
 Center     Atomic      Atomic             Coordinates (Angstroms)
 Number     Number       Type             X           Y           Z
 ---------------------------------------------------------------------
      1          6           0       -0.792430   -0.695630    1.309102
      2          6           0       -1.909887   -1.511170    1.515754
      3          6           0       -3.120269   -1.233147    0.873705
      4          6           0       -3.178006   -0.126534    0.027914
      5          6           0       -2.082183    0.704890   -0.198350
      6          6           0       -0.881986    0.407852    0.454217
      7          1           0        0.143868   -0.918990    1.811947
      8          1           0       -1.843248   -2.368813    2.179118
      9          1           0       -4.000832   -1.847851    1.015711
     10          1           0       -2.179301    1.552827   -0.865426
     11          1           0       -0.015775    1.042957    0.291845
     12          7           0       -4.453992    0.177862   -0.657362
     13          8           0       -4.478948    1.158704   -1.397607
     14          8           0       -5.404993   -0.570159   -0.441260
     15          6           0        4.264206   -0.370275   -0.075663
     16          6           0        3.886034   -1.589595   -0.917226
     17          6           0        4.826663   -2.774701   -0.696918
     18          1           0        5.294090   -0.072323   -0.315470
     19          1           0        4.259337   -0.650902    0.986703
     20          1           0        3.890267   -1.306393   -1.977602
     21          1           0        2.856863   -1.884562   -0.675527
     22          1           0        4.815849   -3.085146    0.352896
     23          1           0        5.855123   -2.503691   -0.956577
     24          1           0        4.537989   -3.635421   -1.308219
     25          6           0        3.333127    0.822632   -0.284928
     26          6           0        3.711299    2.041952    0.556635
     27          6           0        2.770669    3.227056    0.336327
     28          1           0        3.337996    1.103258   -1.347293
     29          1           0        2.303243    0.524679   -0.045121
     30          1           0        4.740470    2.336919    0.314936
     31          1           0        3.707066    1.758749    1.617010
     32          1           0        1.742209    2.956046    0.595986
     33          1           0        2.781483    3.537501   -0.713486
     34          1           0        3.059344    4.087777    0.947628
 ---------------------------------------------------------------------

 SCF Done:  E(RHF) =  -669.535237219     A.U. after   15 cycles
 E2 =    -0.2091914721D+01 EUMP2 =    -0.67162715194057D+03

 The electronic state is 1-A.
 Alpha  occ. eigenvalues --  -20.60748 -20.60743 -15.85801 -11.31173 -11.27744
 Alpha  occ. eigenvalues --  -11.27731 -11.27495 -11.26764 -11.26722 -11.22563
 Alpha  occ. eigenvalues --  -11.22447 -11.22356 -11.22244 -11.22082 -11.21707
 Alpha  occ. eigenvalues --   -1.59823  -1.39376  -1.19345  -1.09362  -1.08742
 Alpha  occ. eigenvalues --   -1.04749  -1.04394  -0.96851  -0.95576  -0.87863
 Alpha  occ. eigenvalues --   -0.86156  -0.82407  -0.80456  -0.79180  -0.77449
 Alpha  occ. eigenvalues --   -0.72020  -0.71146  -0.70462  -0.66070  -0.64997
 Alpha  occ. eigenvalues --   -0.64731  -0.62163  -0.61727  -0.60208  -0.58454
 Alpha  occ. eigenvalues --   -0.56164  -0.55257  -0.53505  -0.53281  -0.53070
 Alpha  occ. eigenvalues --   -0.52868  -0.50809  -0.48829  -0.48774  -0.48715
 Alpha  occ. eigenvalues --   -0.47484  -0.46685  -0.46619  -0.44780  -0.44660
 Alpha  occ. eigenvalues --   -0.37329  -0.36345
 Alpha virt. eigenvalues --    0.05078   0.11220   0.16550   0.18728   0.22402
 Alpha virt. eigenvalues --    0.23404   0.25145   0.25969   0.26446   0.28318
 Alpha virt. eigenvalues --    0.29593   0.30217   0.31032   0.31266   0.31868

 Mulliken charges:
               1
     1  C   -0.173838
     2  C   -0.218393
     3  C   -0.171160
     4  C    0.159013
     5  C   -0.172609
     6  C   -0.227029
     7  H    0.225256
     8  H    0.223312
     9  H    0.275586
    10  H    0.276316
    11  H    0.235907
    12  N    0.487968
    13  O   -0.460247
    14  O   -0.460523
    15  C   -0.298471
    16  C   -0.300172
    17  C   -0.476139
    18  H    0.153657
    19  H    0.147616
    20  H    0.155049
    21  H    0.149476
    22  H    0.154248
    23  H    0.157242
    24  H    0.162844
    25  C   -0.302762
    26  C   -0.300792
    27  C   -0.478956
    28  H    0.154274
    29  H    0.141090
    30  H    0.156979
    31  H    0.151508
    32  H    0.148523
    33  H    0.159167
    34  H    0.166059
 Sum of Mulliken charges =  -0.00000

 Dipole moment (field-independent basis, Debye):
    X=              4.7182    Y=             -1.0412    Z=              2.3442  Tot=              5.3703
 Quadrupole moment (field-independent basis, Debye-Ang):
   XX=           -121.9819   YY=            -91.9969   ZZ=            -93.6901
   XY=              5.7781   XZ=             -9.3777   YZ=             -2.5860

 Normal termination of Gaussian 16 at Thu May  6 10:46:15 2021.
