 Gaussian 16, Revision A.03,
 Gaussian 16:  EM64L-G16RevA.03 25-Dec-2016

 -------------
 #p 6-31g* mp2
 -------------

 ------------------------------------------------------
 Input file generated by CHIRIPA (05-May-2021 14:53:14)
 ------------------------------------------------------
 Symbolic Z-matrix:
 Charge =  0 Multiplicity = 1

                         Standard orientation:
 ---------------------------------------------------------------------
 Center     Atomic      Atomic             Coordinates (Angstroms)
 Number     Number       Type             X           Y           Z
 ---------------------------------------------------------------------
      1          6           0        2.907796    0.781443    0.087685
      2          6           0        2.041036    1.693390   -0.781260
      3          6           0        2.170391    3.168922   -0.401962
      4          1           0        2.628789    0.916390    1.141672
      5          1           0        3.957912    1.092830   -0.000003
      6          1           0        0.993034    1.379503   -0.693038
      7          1           0        2.322008    1.556115   -1.833318
      8          1           0        3.207161    3.504391   -0.507649
      9          1           0        1.870636    3.326776    0.639110
     10          1           0        1.542408    3.802884   -1.035673
     11          6           0        2.789283   -0.696713   -0.279383
     12          6           0        3.656043   -1.608660    0.589562
     13          6           0        3.526688   -3.084192    0.210264
     14          1           0        1.739167   -1.008101   -0.191695
     15          1           0        3.068290   -0.831660   -1.333370
     16          1           0        3.375071   -1.471385    1.641620
     17          1           0        4.704045   -1.294773    0.501340
     18          1           0        3.826443   -3.242046   -0.830808
     19          1           0        2.489918   -3.419661    0.315951
     20          1           0        4.154671   -3.718154    0.843975
     21          6           0       -1.609248    2.319878    0.745520
     22          6           0       -1.831547    1.347889    1.726510
     23          6           0       -2.173468    0.040977    1.366484
     24          6           0       -2.284991   -0.260575    0.010047
     25          6           0       -2.069754    0.685668   -0.990747
     26          6           0       -1.728850    1.986254   -0.607592
     27          1           0       -1.344030    3.332662    1.034181
     28          1           0       -1.739369    1.604134    2.778121
     29          1           0       -2.351076   -0.731071    2.105276
     30          1           0       -2.169086    0.400168   -2.030959
     31          1           0       -1.556786    2.739063   -1.371606
     32          7           0       -2.646429   -1.640795   -0.383340
     33          8           0       -2.738394   -1.881083   -1.585188
     34          8           0       -2.830915   -2.456190    0.517623
 ---------------------------------------------------------------------

 SCF Done:  E(RHF) =  -669.534887923     A.U. after   15 cycles
 E2 =    -0.2093658613D+01 EUMP2 =    -0.67162854653587D+03

 The electronic state is 1-A.
 Alpha  occ. eigenvalues --  -20.60860 -20.60854 -15.85915 -11.31324 -11.27881
 Alpha  occ. eigenvalues --  -11.27864 -11.27596 -11.26897 -11.26868 -11.21774
 Alpha  occ. eigenvalues --  -11.21676 -11.21583 -11.21559 -11.21402 -11.20909
 Alpha  occ. eigenvalues --   -1.59935  -1.39487  -1.19497  -1.08883  -1.08549
 Alpha  occ. eigenvalues --   -1.04901  -1.03683  -0.96159  -0.95698  -0.87168
 Alpha  occ. eigenvalues --   -0.86285  -0.82530  -0.79756  -0.78350  -0.77575
 Alpha  occ. eigenvalues --   -0.72129  -0.71261  -0.70571  -0.65215  -0.65131
 Alpha  occ. eigenvalues --   -0.64879  -0.62235  -0.61114  -0.59566  -0.57760
 Alpha  occ. eigenvalues --   -0.55503  -0.55327  -0.53273  -0.52979  -0.52845
 Alpha  occ. eigenvalues --   -0.52566  -0.50078  -0.48892  -0.48883  -0.48061
 Alpha  occ. eigenvalues --   -0.46765  -0.45894  -0.45787  -0.44883  -0.43933
 Alpha  occ. eigenvalues --   -0.37432  -0.36425
 Alpha virt. eigenvalues --    0.04935   0.11107   0.16371   0.20602   0.22866
 Alpha virt. eigenvalues --    0.24199   0.26364   0.26593   0.26983   0.27872
 Alpha virt. eigenvalues --    0.29197   0.29838   0.31413   0.31734   0.32136

 Mulliken charges:
               1
     1  C   -0.296647
     2  C   -0.309320
     3  C   -0.475077
     4  H    0.147164
     5  H    0.148949
     6  H    0.163365
     7  H    0.151040
     8  H    0.158563
     9  H    0.149992
    10  H    0.151811
    11  C   -0.298680
    12  C   -0.299621
    13  C   -0.476555
    14  H    0.150902
    15  H    0.150561
    16  H    0.150533
    17  H    0.151055
    18  H    0.155726
    19  H    0.159549
    20  H    0.159986
    21  C   -0.168460
    22  C   -0.218860
    23  C   -0.171444
    24  C    0.159075
    25  C   -0.170781
    26  C   -0.220663
    27  H    0.227632
    28  H    0.224068
    29  H    0.276055
    30  H    0.276588
    31  H    0.225498
    32  N    0.487915
    33  O   -0.459684
    34  O   -0.460235
 Sum of Mulliken charges =  -0.00000

 Dipole moment (field-independent basis, Debye):
    X=              1.1728    Y=              4.7696    Z=              1.3815  Tot=              5.1022
 Quadrupole moment (field-independent basis, Debye-Ang):
   XX=           -100.9115   YY=            -98.9423   ZZ=            -89.7124
   XY=            -11.6854   XZ=             -3.9481   YZ=             -1.9222

 Normal termination of Gaussian 16 at Thu May  6 07:25:23 2021.
