 Gaussian 16, Revision A.03,
 Gaussian 16:  EM64L-G16RevA.03 25-Dec-2016

 -------------
 #p 6-31g* mp2
 -------------

 ------------------------------------------------------
 Input file generated by CHIRIPA (05-May-2021 14:57:26)
 ------------------------------------------------------
 Symbolic Z-matrix:
 Charge =  0 Multiplicity = 1

                         Standard orientation:
 ---------------------------------------------------------------------
 Center     Atomic      Atomic             Coordinates (Angstroms)
 Number     Number       Type             X           Y           Z
 ---------------------------------------------------------------------
      1          6           0       -0.982907    1.312094    2.151469
      2          6           0       -0.850060   -0.079252    2.096432
      3          6           0       -1.563547   -0.823829    1.152456
      4          6           0       -2.404741   -0.141538    0.274867
      5          6           0       -2.558398    1.243665    0.304720
      6          6           0       -1.835150    1.967956    1.257014
      7          1           0       -0.424862    1.882620    2.888003
      8          1           0       -0.188930   -0.591270    2.789822
      9          1           0       -1.479495   -1.901870    1.087807
     10          1           0       -3.225160    1.725965   -0.399718
     11          1           0       -1.940290    3.048398    1.297445
     12          7           0       -3.165244   -0.919050   -0.728881
     13          8           0       -3.899823   -0.294222   -1.490866
     14          8           0       -3.012348   -2.138569   -0.734627
     15          6           0        1.409425    2.212742   -1.318898
     16          6           0        2.649277    2.157888   -0.673699
     17          6           0        3.141211    0.944765   -0.182901
     18          6           0        2.363507   -0.199230   -0.355357
     19          6           0        1.124450   -0.176902   -0.993738
     20          6           0        0.652304    1.047227   -1.476581
     21          1           0        1.034965    3.159400   -1.697071
     22          1           0        3.239427    3.061448   -0.549821
     23          1           0        4.097742    0.873778    0.320513
     24          1           0        0.558930   -1.094413   -1.102265
     25          1           0       -0.310929    1.086838   -1.977240
     26          7           0        2.873821   -1.489334    0.160017
     27          8           0        2.169437   -2.483014   -0.004548
     28          8           0        3.968526   -1.482410    0.718775
 ---------------------------------------------------------------------

 SCF Done:  E(RHF) =  -868.336733560     A.U. after   16 cycles
 E2 =    -0.2605458861D+01 EUMP2 =    -0.87094219242050D+03

 The electronic state is 1-A.
 Alpha  occ. eigenvalues --  -20.61332 -20.61301 -20.61097 -20.61090 -15.86360
 Alpha  occ. eigenvalues --  -15.86140 -11.31654 -11.31382 -11.28286 -11.28125
 Alpha  occ. eigenvalues --  -11.27992 -11.27918 -11.27903 -11.27709 -11.27279
 Alpha  occ. eigenvalues --  -11.27117 -11.26992 -11.26875  -1.60405  -1.60179
 Alpha  occ. eigenvalues --   -1.39953  -1.39733  -1.19877  -1.19545  -1.09238
 Alpha  occ. eigenvalues --   -1.08994  -1.05229  -1.04954  -0.96081  -0.95841
 Alpha  occ. eigenvalues --   -0.86634  -0.86356  -0.82900  -0.82673  -0.77964
 Alpha  occ. eigenvalues --   -0.77736  -0.72559  -0.72358  -0.71771  -0.71516
 Alpha  occ. eigenvalues --   -0.70925  -0.70689  -0.65476  -0.65230  -0.65195
 Alpha  occ. eigenvalues --   -0.64965  -0.62555  -0.62321  -0.55697  -0.55504
 Alpha  occ. eigenvalues --   -0.54341  -0.53289  -0.53055  -0.52505  -0.49335
 Alpha  occ. eigenvalues --   -0.49317  -0.49121  -0.49107  -0.45356  -0.45164
 Alpha  occ. eigenvalues --   -0.38019  -0.37802  -0.36607  -0.36215
 Alpha virt. eigenvalues --    0.04439   0.04855   0.10590   0.11233   0.15910
 Alpha virt. eigenvalues --    0.16403   0.20783   0.21356   0.26560   0.26747
 Alpha virt. eigenvalues --    0.27966   0.28250   0.30328   0.30929   0.31568

 Mulliken charges:
               1
     1  C   -0.167081
     2  C   -0.216808
     3  C   -0.177085
     4  C    0.154826
     5  C   -0.178590
     6  C   -0.215816
     7  H    0.227299
     8  H    0.231225
     9  H    0.284692
    10  H    0.273531
    11  H    0.221821
    12  N    0.485597
    13  O   -0.462326
    14  O   -0.455719
    15  C   -0.172552
    16  C   -0.220934
    17  C   -0.173622
    18  C    0.155379
    19  C   -0.168758
    20  C   -0.213187
    21  H    0.223826
    22  H    0.221896
    23  H    0.274294
    24  H    0.277726
    25  H    0.225884
    26  N    0.486852
    27  O   -0.461102
    28  O   -0.461267
 Sum of Mulliken charges =  -0.00000

 Dipole moment (field-independent basis, Debye):
    X=              0.8071    Y=              7.1736    Z=              1.8808  Tot=              7.4599
 Quadrupole moment (field-independent basis, Debye-Ang):
   XX=           -123.6180   YY=           -103.4676   ZZ=           -101.3733
   XY=              4.5090   XZ=             -9.2807   YZ=             -1.8027

 Normal termination of Gaussian 16 at Thu May  6 14:47:24 2021.
