 Gaussian 16, Revision A.03,
 Gaussian 16:  EM64L-G16RevA.03 25-Dec-2016

 -------------
 #p 6-31g* mp2
 -------------

 ------------------------------------------------------
 Input file generated by CHIRIPA (05-May-2021 14:51:10)
 ------------------------------------------------------
 Symbolic Z-matrix:
 Charge =  0 Multiplicity = 1

                         Standard orientation:
 ---------------------------------------------------------------------
 Center     Atomic      Atomic             Coordinates (Angstroms)
 Number     Number       Type             X           Y           Z
 ---------------------------------------------------------------------
      1          6           0       -1.964179    1.758104    0.189854
      2          6           0       -0.471286    2.032162    0.374649
      3          6           0       -0.188535    3.444825    0.886733
      4          1           0       -2.381597    2.494072   -0.510901
      5          1           0       -2.479433    1.911720    1.148140
      6          1           0        0.041204    1.876731   -0.583375
      7          1           0       -0.057333    1.295338    1.074899
      8          1           0       -0.673797    3.608121    1.854439
      9          1           0       -0.574699    4.192817    0.186743
     10          1           0        0.884698    3.619249    1.011659
     11          6           0       -2.262849    0.349935   -0.321599
     12          6           0       -3.755741    0.075878   -0.506394
     13          6           0       -4.038493   -1.336785   -1.018477
     14          1           0       -1.747595    0.196320   -1.279884
     15          1           0       -1.845430   -0.386032    0.379157
     16          1           0       -4.169695    0.812702   -1.206643
     17          1           0       -4.268232    0.231308    0.451630
     18          1           0       -3.652328   -2.084778   -0.318488
     19          1           0       -3.553231   -1.500081   -1.986184
     20          1           0       -5.111726   -1.511210   -1.143404
     21          6           0        2.610686   -0.486522    0.185027
     22          6           0        3.476039   -0.172173   -1.035765
     23          6           0        4.465655    0.965347   -0.781794
     24          1           0        2.062982    0.418611    0.481171
     25          1           0        3.262376   -0.748079    1.030178
     26          1           0        2.822860    0.087371   -1.878743
     27          1           0        4.021599   -1.078209   -1.329155
     28          1           0        5.140894    0.711823    0.041842
     29          1           0        3.935345    1.884027   -0.510869
     30          1           0        5.074042    1.173431   -1.667473
     31          6           0        1.616342   -1.621518   -0.053282
     32          6           0        0.750989   -1.935866    1.167510
     33          6           0       -0.238627   -3.073387    0.913539
     34          1           0        0.964652   -1.359960   -0.898434
     35          1           0        2.164045   -2.526651   -0.349427
     36          1           0        0.205429   -1.029830    1.460900
     37          1           0        1.404168   -2.195410    2.010488
     38          1           0        0.291683   -3.992066    0.642614
     39          1           0       -0.913867   -2.819863    0.089902
     40          1           0       -0.847015   -3.281471    1.799217
 ---------------------------------------------------------------------

 SCF Done:  E(RHF) =  -470.731355098     A.U. after   11 cycles
 E2 =    -0.1586572753D+01 EUMP2 =    -0.47231792785144D+03

 The electronic state is 1-A.
 Alpha  occ. eigenvalues --  -11.21689 -11.21647 -11.21554 -11.21550 -11.21471
 Alpha  occ. eigenvalues --  -11.21401 -11.21312 -11.21217 -11.21164 -11.21104
 Alpha  occ. eigenvalues --  -11.21044 -11.21044  -1.08564  -1.08326  -1.03617
 Alpha  occ. eigenvalues --   -1.03492  -0.96060  -0.95934  -0.87071  -0.86956
 Alpha  occ. eigenvalues --   -0.79722  -0.79564  -0.78463  -0.78081  -0.65373
 Alpha  occ. eigenvalues --   -0.64829  -0.61021  -0.60921  -0.59434  -0.59304
 Alpha  occ. eigenvalues --   -0.57733  -0.57496  -0.55393  -0.55179  -0.52753
 Alpha  occ. eigenvalues --   -0.52655  -0.52464  -0.52364  -0.49997  -0.49888
 Alpha  occ. eigenvalues --   -0.48113  -0.47911  -0.46905  -0.46562  -0.46294
 Alpha  occ. eigenvalues --   -0.45848  -0.45547  -0.44875  -0.43844  -0.43721
 Alpha virt. eigenvalues --    0.20478   0.21824   0.23688   0.23966   0.25333
 Alpha virt. eigenvalues --    0.25659   0.27029   0.27812   0.28635   0.29826
 Alpha virt. eigenvalues --    0.31081   0.31133   0.31552   0.31963   0.32553

 Mulliken charges:
               1
     1  C   -0.297155
     2  C   -0.308893
     3  C   -0.476067
     4  H    0.149901
     5  H    0.149467
     6  H    0.152462
     7  H    0.159259
     8  H    0.155735
     9  H    0.155796
    10  H    0.160375
    11  C   -0.307813
    12  C   -0.299025
    13  C   -0.478515
    14  H    0.148911
    15  H    0.160371
    16  H    0.152002
    17  H    0.151999
    18  H    0.158110
    19  H    0.154872
    20  H    0.160646
    21  C   -0.306310
    22  C   -0.299310
    23  C   -0.475619
    24  H    0.159994
    25  H    0.148338
    26  H    0.151094
    27  H    0.151661
    28  H    0.155160
    29  H    0.154647
    30  H    0.160031
    31  C   -0.298865
    32  C   -0.306872
    33  C   -0.480715
    34  H    0.151110
    35  H    0.149473
    36  H    0.156727
    37  H    0.152213
    38  H    0.155770
    39  H    0.160051
    40  H    0.158982
 Sum of Mulliken charges =  -0.00000

 Dipole moment (field-independent basis, Debye):
    X=             -0.0506    Y=              0.0276    Z=              0.0118  Tot=              0.0588
 Quadrupole moment (field-independent basis, Debye-Ang):
   XX=            -85.1323   YY=            -85.8807   ZZ=            -83.9269
   XY=             -1.3853   XZ=             -0.0093   YZ=             -0.8544

 Normal termination of Gaussian 16 at Thu May  6 00:37:08 2021.
