 Gaussian 16, Revision A.03,
 Gaussian 16:  EM64L-G16RevA.03 25-Dec-2016

 -------------
 #p 6-31g* mp2
 -------------

 ------------------------------------------------------
 Input file generated by CHIRIPA (05-May-2021 14:51:11)
 ------------------------------------------------------
 Symbolic Z-matrix:
 Charge =  0 Multiplicity = 1

                         Standard orientation:
 ---------------------------------------------------------------------
 Center     Atomic      Atomic             Coordinates (Angstroms)
 Number     Number       Type             X           Y           Z
 ---------------------------------------------------------------------
      1          6           0       -3.858347   -0.440200    0.369964
      2          6           0       -2.816765   -1.125118   -0.515461
      3          6           0       -1.476656   -1.323364    0.193483
      4          1           0       -3.468212    0.532853    0.698458
      5          1           0       -4.008288   -1.039709    1.278535
      6          1           0       -2.669849   -0.525209   -1.422733
      7          1           0       -3.209503   -2.096569   -0.842042
      8          1           0       -1.602161   -1.940582    1.088967
      9          1           0       -1.059441   -0.360294    0.504977
     10          1           0       -0.746844   -1.814611   -0.457601
     11          6           0       -5.203334   -0.235023   -0.324761
     12          6           0       -6.244916    0.449895    0.560664
     13          6           0       -7.585024    0.648141   -0.148280
     14          1           0       -5.053393    0.364486   -1.233332
     15          1           0       -5.593469   -1.208076   -0.653255
     16          1           0       -5.852178    1.421346    0.887245
     17          1           0       -6.391832   -0.150014    1.467936
     18          1           0       -8.002240   -0.314929   -0.459773
     19          1           0       -7.459520    1.265359   -1.043764
     20          1           0       -8.314837    1.139388    0.502804
     21          6           0        5.040300   -0.231468   -0.028239
     22          6           0        6.485389    0.246924    0.116136
     23          6           0        7.492899   -0.903097    0.103101
     24          1           0        4.809655   -0.932144    0.785886
     25          1           0        4.940492   -0.797010   -0.965039
     26          1           0        6.582117    0.812575    1.051710
     27          1           0        6.712560    0.946690   -0.698318
     28          1           0        7.425578   -1.463627   -0.834917
     29          1           0        7.294393   -1.598503    0.925055
     30          1           0        8.519582   -0.538585    0.207562
     31          6           0        4.021381    0.906691   -0.016964
     32          6           0        2.576291    0.428299   -0.161340
     33          6           0        1.568783    1.578320   -0.148304
     34          1           0        4.121188    1.472233    0.919837
     35          1           0        4.252026    1.607367   -0.831089
     36          1           0        2.349120   -0.271467    0.653115
     37          1           0        2.479564   -0.137353   -1.096912
     38          1           0        1.767288    2.273725   -0.970258
     39          1           0        1.636103    2.138849    0.789714
     40          1           0        0.542099    1.213808   -0.252765
 ---------------------------------------------------------------------

 SCF Done:  E(RHF) =  -470.733240446     A.U. after   11 cycles
 E2 =    -0.1582343912D+01 EUMP2 =    -0.47231558435791D+03

 The electronic state is 1-A.
 Alpha  occ. eigenvalues --  -11.21609 -11.21600 -11.21584 -11.21558 -11.21407
 Alpha  occ. eigenvalues --  -11.21379 -11.21347 -11.21320 -11.21069 -11.21060
 Alpha  occ. eigenvalues --  -11.21057 -11.21024  -1.08434  -1.08401  -1.03547
 Alpha  occ. eigenvalues --   -1.03489  -0.96017  -0.95922  -0.87038  -0.86936
 Alpha  occ. eigenvalues --   -0.79598  -0.79561  -0.78246  -0.78212  -0.65070
 Alpha  occ. eigenvalues --   -0.65031  -0.60982  -0.60891  -0.59373  -0.59307
 Alpha  occ. eigenvalues --   -0.57646  -0.57536  -0.55290  -0.55220  -0.52749
 Alpha  occ. eigenvalues --   -0.52635  -0.52446  -0.52282  -0.49913  -0.49874
 Alpha  occ. eigenvalues --   -0.47966  -0.47821  -0.46614  -0.46596  -0.45785
 Alpha  occ. eigenvalues --   -0.45757  -0.45710  -0.45680  -0.43786  -0.43741
 Alpha virt. eigenvalues --    0.21622   0.23018   0.23489   0.25023   0.26461
 Alpha virt. eigenvalues --    0.26670   0.27077   0.27401   0.27734   0.29050
 Alpha virt. eigenvalues --    0.30365   0.31311   0.31414   0.31818   0.32329

 Mulliken charges:
               1
     1  C   -0.298364
     2  C   -0.300062
     3  C   -0.481126
     4  H    0.149723
     5  H    0.149561
     6  H    0.151911
     7  H    0.152117
     8  H    0.155275
     9  H    0.160135
    10  H    0.161084
    11  C   -0.298309
    12  C   -0.299681
    13  C   -0.475714
    14  H    0.149586
    15  H    0.149645
    16  H    0.152038
    17  H    0.151909
    18  H    0.155158
    19  H    0.155213
    20  H    0.160263
    21  C   -0.298255
    22  C   -0.299627
    23  C   -0.475692
    24  H    0.149749
    25  H    0.149428
    26  H    0.151899
    27  H    0.151873
    28  H    0.155140
    29  H    0.155188
    30  H    0.160185
    31  C   -0.298362
    32  C   -0.299237
    33  C   -0.481229
    34  H    0.149430
    35  H    0.149489
    36  H    0.153147
    37  H    0.151635
    38  H    0.154801
    39  H    0.154667
    40  H    0.165409
 Sum of Mulliken charges =  -0.00000

 Dipole moment (field-independent basis, Debye):
    X=             -0.0134    Y=             -0.0118    Z=              0.0050  Tot=              0.0186
 Quadrupole moment (field-independent basis, Debye-Ang):
   XX=            -86.5406   YY=            -84.5394   ZZ=            -83.7662
   XY=              1.0941   XZ=             -0.5736   YZ=             -0.3130

 Normal termination of Gaussian 16 at Wed May  5 16:46:24 2021.
