 Gaussian 16, Revision A.03,
 Gaussian 16:  EM64L-G16RevA.03 25-Dec-2016

 -------------
 #p 6-31g* mp2
 -------------

 ------------------------------------------------------
 Input file generated by CHIRIPA (05-May-2021 14:53:13)
 ------------------------------------------------------
 Symbolic Z-matrix:
 Charge =  0 Multiplicity = 1

                         Standard orientation:
 ---------------------------------------------------------------------
 Center     Atomic      Atomic             Coordinates (Angstroms)
 Number     Number       Type             X           Y           Z
 ---------------------------------------------------------------------
      1          6           0        2.322048    0.618907   -0.404212
      2          6           0        3.250233    1.832824   -0.350697
      3          6           0        2.681894    3.044587   -1.089895
      4          1           0        2.134253    0.354908   -1.453966
      5          1           0        1.349280    0.890517    0.028621
      6          1           0        4.221412    1.558603   -0.782241
      7          1           0        3.435994    2.093846    0.699054
      8          1           0        1.723144    3.345920   -0.655616
      9          1           0        2.513024    2.807636   -2.145328
     10          1           0        3.361517    3.900964   -1.038981
     11          6           0        2.876434   -0.600450    0.330331
     12          6           0        1.948250   -1.814367    0.276816
     13          6           0        2.516589   -3.026131    1.016014
     14          1           0        3.849203   -0.872060   -0.102502
     15          1           0        3.064230   -0.336451    1.380085
     16          1           0        1.762488   -2.075389   -0.772934
     17          1           0        0.977071   -1.540147    0.708361
     18          1           0        2.685459   -2.789179    2.071447
     19          1           0        3.475339   -3.327463    0.581735
     20          1           0        1.836966   -3.882507    0.965100
     21          6           0       -2.156741    1.886346    1.691530
     22          6           0       -2.533641    2.096785    0.361047
     23          6           0       -2.467861    1.054885   -0.568827
     24          6           0       -2.018468   -0.190272   -0.131881
     25          6           0       -1.635937   -0.431266    1.186786
     26          6           0       -1.709880    0.625216    2.099433
     27          1           0       -2.211010    2.701383    2.407187
     28          1           0       -2.881065    3.075147    0.041439
     29          1           0       -2.753455    1.190155   -1.604952
     30          1           0       -1.293676   -1.417597    1.475622
     31          1           0       -1.416525    0.458888    3.132063
     32          7           0       -1.944510   -1.301003   -1.107178
     33          8           0       -1.545158   -2.388658   -0.697101
     34          8           0       -2.287292   -1.062910   -2.263227
 ---------------------------------------------------------------------

 SCF Done:  E(RHF) =  -669.535116056     A.U. after   15 cycles
 E2 =    -0.2094118690D+01 EUMP2 =    -0.67162923474615D+03

 The electronic state is 1-A.
 Alpha  occ. eigenvalues --  -20.60858 -20.60830 -15.85881 -11.31271 -11.27848
 Alpha  occ. eigenvalues --  -11.27838 -11.27597 -11.26875 -11.26856 -11.21583
 Alpha  occ. eigenvalues --  -11.21234 -11.21165 -11.21135 -11.21107 -11.20702
 Alpha  occ. eigenvalues --   -1.59907  -1.39462  -1.19457  -1.08840  -1.08248
 Alpha  occ. eigenvalues --   -1.04867  -1.03337  -0.95808  -0.95673  -0.86831
 Alpha  occ. eigenvalues --   -0.86261  -0.82505  -0.79417  -0.78084  -0.77514
 Alpha  occ. eigenvalues --   -0.72107  -0.71216  -0.70571  -0.65108  -0.64985
 Alpha  occ. eigenvalues --   -0.64787  -0.62241  -0.60732  -0.59166  -0.57390
 Alpha  occ. eigenvalues --   -0.55367  -0.55115  -0.53221  -0.52958  -0.52482
 Alpha  occ. eigenvalues --   -0.52227  -0.49773  -0.48889  -0.48863  -0.47728
 Alpha  occ. eigenvalues --   -0.46448  -0.45668  -0.45498  -0.44700  -0.43581
 Alpha  occ. eigenvalues --   -0.37413  -0.36424
 Alpha virt. eigenvalues --    0.04956   0.11085   0.16458   0.21120   0.23039
 Alpha virt. eigenvalues --    0.24299   0.26518   0.27194   0.27579   0.27845
 Alpha virt. eigenvalues --    0.28672   0.30630   0.31502   0.31812   0.32173

 Mulliken charges:
               1
     1  C   -0.302426
     2  C   -0.298740
     3  C   -0.475420
     4  H    0.152763
     5  H    0.149698
     6  H    0.152925
     7  H    0.149235
     8  H    0.151619
     9  H    0.156966
    10  H    0.159228
    11  C   -0.297721
    12  C   -0.301348
    13  C   -0.477493
    14  H    0.149665
    15  H    0.144369
    16  H    0.162467
    17  H    0.148001
    18  H    0.148435
    19  H    0.155003
    20  H    0.166631
    21  C   -0.171138
    22  C   -0.218386
    23  C   -0.170665
    24  C    0.162467
    25  C   -0.172283
    26  C   -0.219841
    27  H    0.226128
    28  H    0.224080
    29  H    0.276106
    30  H    0.276632
    31  H    0.224049
    32  N    0.488447
    33  O   -0.459401
    34  O   -0.460053
 Sum of Mulliken charges =  -0.00000

 Dipole moment (field-independent basis, Debye):
    X=             -0.3948    Y=              3.8239    Z=              3.3233  Tot=              5.0816
 Quadrupole moment (field-independent basis, Debye-Ang):
   XX=            -93.9798   YY=            -95.5365   ZZ=            -92.9415
   XY=             -9.2147   XZ=             -6.3973   YZ=             -2.6965

 Normal termination of Gaussian 16 at Thu May  6 17:02:53 2021.
