 Gaussian 16, Revision A.03,
 Gaussian 16:  EM64L-G16RevA.03 25-Dec-2016

 -------------
 #p 6-31g* mp2
 -------------

 ------------------------------------------------------
 Input file generated by CHIRIPA (05-May-2021 14:53:15)
 ------------------------------------------------------
 Symbolic Z-matrix:
 Charge =  0 Multiplicity = 1

                         Standard orientation:
 ---------------------------------------------------------------------
 Center     Atomic      Atomic             Coordinates (Angstroms)
 Number     Number       Type             X           Y           Z
 ---------------------------------------------------------------------
      1          6           0        3.932872   -0.280543   -0.191238
      2          6           0        3.424364   -1.529180   -0.912563
      3          6           0        4.399149   -2.703502   -0.820069
      4          1           0        4.902623    0.011650   -0.616857
      5          1           0        4.115582   -0.524332    0.864498
      6          1           0        3.241352   -1.282750   -1.966315
      7          1           0        2.455620   -1.818323   -0.485306
      8          1           0        4.574075   -2.977541    0.225352
      9          1           0        5.364271   -2.438925   -1.264072
     10          1           0        4.015801   -3.585570   -1.342430
     11          6           0        2.969346    0.901983   -0.274792
     12          6           0        3.477854    2.150620    0.446533
     13          6           0        2.503069    3.324942    0.354039
     14          1           0        2.786636    1.145772   -1.330528
     15          1           0        1.999595    0.609789    0.150827
     16          1           0        4.446598    2.439763    0.019277
     17          1           0        3.660866    1.904189    1.500285
     18          1           0        1.537946    3.060365    0.798042
     19          1           0        2.328143    3.598981   -0.691382
     20          1           0        2.886417    4.207010    0.876400
     21          6           0       -0.895012   -1.436077    1.484998
     22          6           0       -2.007824   -2.144126    1.019343
     23          6           0       -3.011900   -1.493218    0.296363
     24          6           0       -2.870309   -0.127384    0.056078
     25          6           0       -1.773551    0.605625    0.506756
     26          6           0       -0.781627   -0.065877    1.227672
     27          1           0       -0.119742   -1.949717    2.045824
     28          1           0       -2.098529   -3.208304    1.217697
     29          1           0       -3.883960   -2.017048   -0.075836
     30          1           0       -1.711027    1.665795    0.293341
     31          1           0        0.081492    0.486552    1.588079
     32          7           0       -3.926847    0.572604   -0.708216
     33          8           0       -3.778555    1.776458   -0.906664
     34          8           0       -4.883247   -0.095854   -1.094350
 ---------------------------------------------------------------------

 SCF Done:  E(RHF) =  -669.535324008     A.U. after   15 cycles
 E2 =    -0.2092113209D+01 EUMP2 =    -0.67162743721684D+03

 The electronic state is 1-A.
 Alpha  occ. eigenvalues --  -20.60779 -20.60774 -15.85833 -11.31222 -11.27796
 Alpha  occ. eigenvalues --  -11.27791 -11.27557 -11.26815 -11.26805 -11.22291
 Alpha  occ. eigenvalues --  -11.22202 -11.22093 -11.22020 -11.21781 -11.21623
 Alpha  occ. eigenvalues --   -1.59854  -1.39406  -1.19401  -1.09112  -1.08791
 Alpha  occ. eigenvalues --   -1.04808  -1.04182  -0.96629  -0.95621  -0.87643
 Alpha  occ. eigenvalues --   -0.86208  -0.82456  -0.80233  -0.78925  -0.77491
 Alpha  occ. eigenvalues --   -0.72051  -0.71176  -0.70507  -0.65834  -0.65054
 Alpha  occ. eigenvalues --   -0.64772  -0.62181  -0.61561  -0.59987  -0.58232
 Alpha  occ. eigenvalues --   -0.55942  -0.55309  -0.53309  -0.53157  -0.53056
 Alpha  occ. eigenvalues --   -0.52876  -0.50581  -0.48819  -0.48804  -0.48542
 Alpha  occ. eigenvalues --   -0.47276  -0.46442  -0.46378  -0.44807  -0.44433
 Alpha  occ. eigenvalues --   -0.37372  -0.36383
 Alpha virt. eigenvalues --    0.05028   0.11117   0.16429   0.19009   0.22818
 Alpha virt. eigenvalues --    0.23207   0.25481   0.26435   0.26791   0.28255
 Alpha virt. eigenvalues --    0.29408   0.30054   0.31141   0.31430   0.32218

 Mulliken charges:
               1
     1  C   -0.298375
     2  C   -0.299898
     3  C   -0.476057
     4  H    0.152782
     5  H    0.146463
     6  H    0.155584
     7  H    0.148265
     8  H    0.153306
     9  H    0.157454
    10  H    0.161561
    11  C   -0.303311
    12  C   -0.300946
    13  C   -0.474653
    14  H    0.154527
    15  H    0.144729
    16  H    0.155890
    17  H    0.149693
    18  H    0.145617
    19  H    0.160396
    20  H    0.164192
    21  C   -0.172460
    22  C   -0.218450
    23  C   -0.170477
    24  C    0.158634
    25  C   -0.171829
    26  C   -0.218133
    27  H    0.225910
    28  H    0.223695
    29  H    0.275859
    30  H    0.276307
    31  H    0.226079
    32  N    0.488077
    33  O   -0.460034
    34  O   -0.460399
 Sum of Mulliken charges =  -0.00000

 Dipole moment (field-independent basis, Debye):
    X=              3.8039    Y=             -2.4354    Z=              2.5869  Tot=              5.2051
 Quadrupole moment (field-independent basis, Debye-Ang):
   XX=           -115.0604   YY=            -91.0845   ZZ=            -94.4345
   XY=             10.1073   XZ=             -8.0199   YZ=             -0.4770

 Normal termination of Gaussian 16 at Thu May  6 04:16:04 2021.
