 Gaussian 16, Revision A.03,
 Gaussian 16:  EM64L-G16RevA.03 25-Dec-2016

 -------------
 #p 6-31g* mp2
 -------------

 ------------------------------------------------------
 Input file generated by CHIRIPA (05-May-2021 14:57:25)
 ------------------------------------------------------
 Symbolic Z-matrix:
 Charge =  0 Multiplicity = 1

                         Standard orientation:
 ---------------------------------------------------------------------
 Center     Atomic      Atomic             Coordinates (Angstroms)
 Number     Number       Type             X           Y           Z
 ---------------------------------------------------------------------
      1          6           0        0.895145    1.526156   -1.207545
      2          6           0        0.848152    0.150273   -1.455049
      3          6           0        1.850197   -0.693589   -0.966837
      4          6           0        2.889264   -0.125272   -0.231551
      5          6           0        2.964062    1.241603    0.031787
      6          6           0        1.951088    2.066477   -0.466223
      7          1           0        0.112487    2.174313   -1.590605
      8          1           0        0.029295   -0.272121   -2.030463
      9          1           0        1.838504   -1.762238   -1.143673
     10          1           0        3.793005    1.633447    0.608615
     11          1           0        1.990171    3.134641   -0.272460
     12          7           0        3.955869   -1.008580    0.290484
     13          8           0        4.860596   -0.483223    0.935548
     14          8           0        3.866951   -2.209548    0.044706
     15          6           0       -1.794385    2.253281    0.910878
     16          6           0       -2.566116    2.089856   -0.244219
     17          6           0       -3.080490    0.834726   -0.582766
     18          6           0       -2.802329   -0.240110    0.260232
     19          6           0       -2.036771   -0.109251    1.417853
     20          6           0       -1.532639    1.155142    1.736771
     21          1           0       -1.398785    3.231894    1.166245
     22          1           0       -2.770999    2.940904   -0.887480
     23          1           0       -3.680880    0.680003   -1.471029
     24          1           0       -1.849467   -0.976395    2.039461
     25          1           0       -0.933611    1.279103    2.634460
     26          7           0       -3.341453   -1.573763   -0.087783
     27          8           0       -3.082097   -2.504842    0.671470
     28          8           0       -4.013165   -1.662750   -1.113219
 ---------------------------------------------------------------------

 SCF Done:  E(RHF) =  -868.336041485     A.U. after   16 cycles
 E2 =    -0.2603819490D+01 EUMP2 =    -0.87093986097451D+03

 The electronic state is 1-A.
 Alpha  occ. eigenvalues --  -20.61480 -20.61457 -20.60932 -20.60914 -15.86528
 Alpha  occ. eigenvalues --  -15.85985 -11.32018 -11.31376 -11.28653 -11.28523
 Alpha  occ. eigenvalues --  -11.28357 -11.28041 -11.27942 -11.27725 -11.27682
 Alpha  occ. eigenvalues --  -11.27518 -11.27052 -11.26903  -1.60551  -1.60005
 Alpha  occ. eigenvalues --   -1.40098  -1.39556  -1.20210  -1.19579  -1.09594
 Alpha  occ. eigenvalues --   -1.08960  -1.05610  -1.04995  -0.96396  -0.95791
 Alpha  occ. eigenvalues --   -0.87010  -0.86394  -0.83208  -0.82627  -0.78233
 Alpha  occ. eigenvalues --   -0.77663  -0.72734  -0.72200  -0.71892  -0.71337
 Alpha  occ. eigenvalues --   -0.71313  -0.70720  -0.65846  -0.65604  -0.65233
 Alpha  occ. eigenvalues --   -0.65012  -0.62937  -0.62343  -0.56122  -0.55618
 Alpha  occ. eigenvalues --   -0.54294  -0.53687  -0.53100  -0.52878  -0.49508
 Alpha  occ. eigenvalues --   -0.49486  -0.48964  -0.48951  -0.45474  -0.44956
 Alpha  occ. eigenvalues --   -0.38593  -0.37241  -0.37095  -0.36558
 Alpha virt. eigenvalues --    0.04175   0.04982   0.10279   0.11033   0.15684
 Alpha virt. eigenvalues --    0.16408   0.19996   0.21582   0.26139   0.26526
 Alpha virt. eigenvalues --    0.27670   0.28793   0.29514   0.31123   0.32036

 Mulliken charges:
               1
     1  C   -0.161043
     2  C   -0.220549
     3  C   -0.171014
     4  C    0.156682
     5  C   -0.171852
     6  C   -0.224401
     7  H    0.221030
     8  H    0.225966
     9  H    0.279372
    10  H    0.274678
    11  H    0.217674
    12  N    0.487892
    13  O   -0.461763
    14  O   -0.458065
    15  C   -0.169531
    16  C   -0.228169
    17  C   -0.176252
    18  C    0.157637
    19  C   -0.168119
    20  C   -0.212083
    21  H    0.224581
    22  H    0.222364
    23  H    0.276538
    24  H    0.280163
    25  H    0.228001
    26  N    0.486766
    27  O   -0.455960
    28  O   -0.460543
 Sum of Mulliken charges =  -0.00000

 Dipole moment (field-independent basis, Debye):
    X=             -1.9828    Y=              7.5968    Z=             -0.4494  Tot=              7.8641
 Quadrupole moment (field-independent basis, Debye-Ang):
   XX=           -136.8270   YY=           -105.0042   ZZ=            -99.8194
   XY=             -3.1018   XZ=             -4.6836   YZ=              0.6525

 Normal termination of Gaussian 16 at Fri May  7 09:39:08 2021.
