 Gaussian 16, Revision A.03,
 Gaussian 16:  EM64L-G16RevA.03 25-Dec-2016

 -------------
 #p 6-31g* mp2
 -------------

 ------------------------------------------------------
 Input file generated by CHIRIPA (05-May-2021 14:57:25)
 ------------------------------------------------------
 Symbolic Z-matrix:
 Charge =  0 Multiplicity = 1

                         Standard orientation:
 ---------------------------------------------------------------------
 Center     Atomic      Atomic             Coordinates (Angstroms)
 Number     Number       Type             X           Y           Z
 ---------------------------------------------------------------------
      1          6           0       -2.594442   -2.208782    0.118580
      2          6           0       -3.675819   -2.002407    0.981455
      3          6           0       -4.379903   -0.794763    0.961202
      4          6           0       -3.973638    0.189305    0.061287
      5          6           0       -2.900455    0.013764   -0.810925
      6          6           0       -2.210888   -1.201814   -0.773284
      7          1           0       -2.053131   -3.149991    0.141066
      8          1           0       -3.975924   -2.782657    1.675136
      9          1           0       -5.220792   -0.608457    1.618176
     10          1           0       -2.624802    0.810266   -1.491378
     11          1           0       -1.371466   -1.359306   -1.444561
     12          7           0       -4.711336    1.471983    0.030642
     13          8           0       -4.333571    2.323152   -0.771507
     14          8           0       -5.653341    1.601890    0.809352
     15          6           0        5.603237    1.641211    0.756920
     16          6           0        5.736114    0.273601    1.018655
     17          6           0        4.771942   -0.632627    0.567358
     18          6           0        3.682760   -0.134435   -0.145927
     19          6           0        3.522236    1.222383   -0.422635
     20          6           0        4.498669    2.110411    0.038377
     21          1           0        6.356992    2.338123    1.111271
     22          1           0        6.592889   -0.093626    1.576442
     23          1           0        4.849985   -1.696474    0.755924
     24          1           0        2.657123    1.558517   -0.981214
     25          1           0        4.392874    3.171982   -0.166363
     26          7           0        2.655542   -1.084184   -0.628837
     27          8           0        1.705290   -0.620001   -1.255087
     28          8           0        2.820114   -2.274797   -0.371948
 ---------------------------------------------------------------------

 SCF Done:  E(RHF) =  -868.340519614     A.U. after   16 cycles
 E2 =    -0.2598136222D+01 EUMP2 =    -0.87093865583682D+03

 The electronic state is 1-A.
 Alpha  occ. eigenvalues --  -20.61617 -20.61611 -20.60140 -20.60135 -15.86640
 Alpha  occ. eigenvalues --  -15.85181 -11.31712 -11.30325 -11.28249 -11.28236
 Alpha  occ. eigenvalues --  -11.27931 -11.27199 -11.27176 -11.26886 -11.26768
 Alpha  occ. eigenvalues --  -11.26453 -11.25874 -11.25576  -1.60677  -1.59220
 Alpha  occ. eigenvalues --   -1.40238  -1.38779  -1.19856  -1.18444  -1.09306
 Alpha  occ. eigenvalues --   -1.07868  -1.05214  -1.03790  -0.96191  -0.94752
 Alpha  occ. eigenvalues --   -0.86626  -0.85188  -0.83035  -0.81580  -0.78112
 Alpha  occ. eigenvalues --   -0.76668  -0.72883  -0.71970  -0.71406  -0.70960
 Alpha  occ. eigenvalues --   -0.70540  -0.69530  -0.65514  -0.65213  -0.64077
 Alpha  occ. eigenvalues --   -0.63738  -0.62564  -0.61125  -0.55725  -0.54267
 Alpha  occ. eigenvalues --   -0.53559  -0.53301  -0.52162  -0.51844  -0.49639
 Alpha  occ. eigenvalues --   -0.49606  -0.48174  -0.48136  -0.45702  -0.44235
 Alpha  occ. eigenvalues --   -0.37818  -0.36803  -0.36406  -0.35392
 Alpha virt. eigenvalues --    0.04400   0.05821   0.10856   0.12261   0.15953
 Alpha virt. eigenvalues --    0.17398   0.21023   0.22538   0.26960   0.27835
 Alpha virt. eigenvalues --    0.28536   0.29308   0.30625   0.31979   0.32258

 Mulliken charges:
               1
     1  C   -0.173079
     2  C   -0.219023
     3  C   -0.173676
     4  C    0.157771
     5  C   -0.174512
     6  C   -0.221281
     7  H    0.229017
     8  H    0.220051
     9  H    0.271855
    10  H    0.273419
    11  H    0.245483
    12  N    0.488131
    13  O   -0.463040
    14  O   -0.463346
    15  C   -0.169745
    16  C   -0.218576
    17  C   -0.170545
    18  C    0.157755
    19  C   -0.170054
    20  C   -0.218453
    21  H    0.227825
    22  H    0.224914
    23  H    0.275444
    24  H    0.275850
    25  H    0.226257
    26  N    0.490471
    27  O   -0.468399
    28  O   -0.460513
 Sum of Mulliken charges =  -0.00000

 Dipole moment (field-independent basis, Debye):
    X=              6.7271    Y=             -1.2142    Z=              1.7519  Tot=              7.0567
 Quadrupole moment (field-independent basis, Debye-Ang):
   XX=            -97.2008   YY=           -104.6640   ZZ=           -103.0179
   XY=             30.0302   XZ=              4.7765   YZ=             -3.9816

 Normal termination of Gaussian 16 at Fri May  7 11:09:13 2021.
