 Gaussian 16, Revision A.03,
 Gaussian 16:  EM64L-G16RevA.03 25-Dec-2016

 -------------
 #p 6-31g* mp2
 -------------

 ------------------------------------------------------
 Input file generated by CHIRIPA (05-May-2021 14:53:17)
 ------------------------------------------------------
 Symbolic Z-matrix:
 Charge =  0 Multiplicity = 1

                         Standard orientation:
 ---------------------------------------------------------------------
 Center     Atomic      Atomic             Coordinates (Angstroms)
 Number     Number       Type             X           Y           Z
 ---------------------------------------------------------------------
      1          6           0       -3.639479   -0.110641   -0.517082
      2          6           0       -2.500188    0.731389    0.058233
      3          6           0       -1.214727    0.626705   -0.763001
      4          1           0       -3.320603   -1.160652   -0.569420
      5          1           0       -3.836229    0.208134   -1.550071
      6          1           0       -2.306572    0.412056    1.090297
      7          1           0       -2.821881    1.779488    0.109387
      8          1           0       -1.385301    0.964571   -1.790304
      9          1           0       -0.867065   -0.410631   -0.803821
     10          1           0       -0.413457    1.236422   -0.333965
     11          6           0       -4.931258   -0.016375    0.292948
     12          6           0       -6.070549   -0.858405   -0.282367
     13          6           0       -7.356010   -0.753721    0.538867
     14          1           0       -4.734507   -0.335150    1.325937
     15          1           0       -5.250133    1.033636    0.345286
     16          1           0       -5.748856   -1.906504   -0.333521
     17          1           0       -6.264164   -0.539071   -1.314431
     18          1           0       -7.703671    0.283615    0.579687
     19          1           0       -7.185435   -1.091587    1.566170
     20          1           0       -8.157280   -1.363438    0.109831
     21          6           0        4.509370   -2.186813   -0.036548
     22          6           0        4.213762   -1.485485   -1.210122
     23          6           0        3.570496   -0.245512   -1.153331
     24          6           0        3.235662    0.265825    0.099550
     25          6           0        3.516736   -0.408825    1.286619
     26          6           0        4.160529   -1.647196    1.205887
     27          1           0        5.009279   -3.149431   -0.089964
     28          1           0        4.483500   -1.902126   -2.176402
     29          1           0        3.329781    0.318696   -2.046158
     30          1           0        3.235448    0.032131    2.235224
     31          1           0        4.388859   -2.189627    2.118947
     32          7           0        2.554386    1.577681    0.172345
     33          8           0        2.269866    2.006533    1.288486
     34          8           0        2.317823    2.152220   -0.888117
 ---------------------------------------------------------------------

 SCF Done:  E(RHF) =  -669.536008259     A.U. after   15 cycles
 E2 =    -0.2091151609D+01 EUMP2 =    -0.67162715986847D+03

 The electronic state is 1-A.
 Alpha  occ. eigenvalues --  -20.60868 -20.60858 -15.85890 -11.31225 -11.27795
 Alpha  occ. eigenvalues --  -11.27788 -11.27538 -11.26804 -11.26794 -11.21313
 Alpha  occ. eigenvalues --  -11.21005 -11.20951 -11.20884 -11.20828 -11.20256
 Alpha  occ. eigenvalues --   -1.59934  -1.39485  -1.19397  -1.08801  -1.07983
 Alpha  occ. eigenvalues --   -1.04796  -1.03042  -0.95643  -0.95490  -0.86512
 Alpha  occ. eigenvalues --   -0.86195  -0.82476  -0.79121  -0.77790  -0.77527
 Alpha  occ. eigenvalues --   -0.72114  -0.71270  -0.70509  -0.65052  -0.64801
 Alpha  occ. eigenvalues --   -0.64621  -0.62143  -0.60448  -0.58856  -0.57082
 Alpha  occ. eigenvalues --   -0.55304  -0.54795  -0.53129  -0.52889  -0.52152
 Alpha  occ. eigenvalues --   -0.51916  -0.49456  -0.48877  -0.48875  -0.47424
 Alpha  occ. eigenvalues --   -0.46168  -0.45331  -0.45259  -0.44903  -0.43267
 Alpha  occ. eigenvalues --   -0.37377  -0.36396
 Alpha virt. eigenvalues --    0.04977   0.11257   0.16467   0.21386   0.23282
 Alpha virt. eigenvalues --    0.24801   0.27069   0.27300   0.27925   0.28151
 Alpha virt. eigenvalues --    0.28543   0.30870   0.31850   0.32234   0.32508

 Mulliken charges:
               1
     1  C   -0.297822
     2  C   -0.298670
     3  C   -0.482554
     4  H    0.146524
     5  H    0.148803
     6  H    0.150587
     7  H    0.154715
     8  H    0.155293
     9  H    0.146183
    10  H    0.176557
    11  C   -0.297855
    12  C   -0.299171
    13  C   -0.475439
    14  H    0.148667
    15  H    0.150348
    16  H    0.150420
    17  H    0.151586
    18  H    0.155465
    19  H    0.154604
    20  H    0.159026
    21  C   -0.170604
    22  C   -0.218772
    23  C   -0.170269
    24  C    0.158961
    25  C   -0.170875
    26  C   -0.218739
    27  H    0.225727
    28  H    0.223647
    29  H    0.276137
    30  H    0.275643
    31  H    0.223519
    32  N    0.487229
    33  O   -0.460325
    34  O   -0.458547
 Sum of Mulliken charges =  -0.00000

 Dipole moment (field-independent basis, Debye):
    X=              2.5608    Y=             -4.5308    Z=             -0.2539  Tot=              5.2106
 Quadrupole moment (field-independent basis, Debye-Ang):
   XX=            -81.3888   YY=            -97.1721   ZZ=            -89.7495
   XY=            -15.1315   XZ=             -0.1394   YZ=             -1.4214

 Normal termination of Gaussian 16 at Thu May  6 07:34:14 2021.
