 Gaussian 16, Revision A.03,
 Gaussian 16:  EM64L-G16RevA.03 25-Dec-2016

 -------------
 #p 6-31g* mp2
 -------------

 ------------------------------------------------------
 Input file generated by CHIRIPA (05-May-2021 14:55:22)
 ------------------------------------------------------
 Symbolic Z-matrix:
 Charge =  0 Multiplicity = 1

                         Standard orientation:
 ---------------------------------------------------------------------
 Center     Atomic      Atomic             Coordinates (Angstroms)
 Number     Number       Type             X           Y           Z
 ---------------------------------------------------------------------
      1          6           0        4.155696   -2.096823   -0.526796
      2          6           0        2.790443   -1.822520   -0.658572
      3          6           0        2.303959   -0.527190   -0.458568
      4          6           0        3.214927    0.474344   -0.126365
      5          6           0        4.580809    0.232573    0.012207
      6          6           0        5.044953   -1.070211   -0.192417
      7          1           0        4.524931   -3.105962   -0.683958
      8          1           0        2.097524   -2.617829   -0.918167
      9          1           0        1.252010   -0.287016   -0.554160
     10          1           0        5.247203    1.046141    0.271908
     11          1           0        6.105749   -1.280323   -0.089404
     12          7           0        2.711733    1.849597    0.087815
     13          8           0        3.534849    2.714419    0.379706
     14          8           0        1.503742    2.036658   -0.040257
     15          6           0       -3.538480   -0.199230    0.528434
     16          6           0       -2.715353   -1.477719    0.689418
     17          6           0       -1.351987   -1.225780    1.334055
     18          1           0       -2.971729    0.520204   -0.078323
     19          1           0       -3.678258    0.265153    1.514438
     20          1           0       -2.578343   -1.940287   -0.296420
     21          1           0       -3.284209   -2.194265    1.295701
     22          1           0       -1.471871   -0.785870    2.329398
     23          1           0       -0.761994   -0.530447    0.728231
     24          1           0       -0.780295   -2.153083    1.439588
     25          6           0       -4.904041   -0.434843   -0.114572
     26          6           0       -5.727167    0.843644   -0.275557
     27          6           0       -7.090532    0.591707   -0.920193
     28          1           0       -4.764261   -0.899226   -1.100577
     29          1           0       -5.470790   -1.154278    0.492184
     30          1           0       -5.158311    1.560192   -0.881840
     31          1           0       -5.864176    1.306212    0.710281
     32          1           0       -7.680525   -0.103626   -0.314370
     33          1           0       -6.970649    0.151797   -1.915536
     34          1           0       -7.662226    1.519009   -1.025728
 ---------------------------------------------------------------------

 SCF Done:  E(RHF) =  -669.535541704     A.U. after   15 cycles
 E2 =    -0.2091107336D+01 EUMP2 =    -0.67162664903980D+03

 The electronic state is 1-A.
 Alpha  occ. eigenvalues --  -20.60773 -20.60768 -15.85822 -11.31164 -11.27741
 Alpha  occ. eigenvalues --  -11.27718 -11.27485 -11.26755 -11.26741 -11.21725
 Alpha  occ. eigenvalues --  -11.21447 -11.21314 -11.21276 -11.21252 -11.20948
 Alpha  occ. eigenvalues --   -1.59844  -1.39399  -1.19341  -1.08742  -1.08382
 Alpha  occ. eigenvalues --   -1.04743  -1.03528  -0.95982  -0.95578  -0.87002
 Alpha  occ. eigenvalues --   -0.86143  -0.82411  -0.79590  -0.78169  -0.77460
 Alpha  occ. eigenvalues --   -0.72043  -0.71163  -0.70464  -0.65032  -0.64995
 Alpha  occ. eigenvalues --   -0.64746  -0.62135  -0.60907  -0.59354  -0.57577
 Alpha  occ. eigenvalues --   -0.55377  -0.55150  -0.53080  -0.52879  -0.52681
 Alpha  occ. eigenvalues --   -0.52355  -0.49904  -0.48801  -0.48797  -0.47894
 Alpha  occ. eigenvalues --   -0.46612  -0.45714  -0.45630  -0.44804  -0.43769
 Alpha  occ. eigenvalues --   -0.37325  -0.36336
 Alpha virt. eigenvalues --    0.05055   0.11281   0.16559   0.20603   0.22970
 Alpha virt. eigenvalues --    0.24061   0.26063   0.27009   0.27405   0.27997
 Alpha virt. eigenvalues --    0.29386   0.29809   0.31510   0.31770   0.32023

 Mulliken charges:
               1
     1  C   -0.170654
     2  C   -0.220918
     3  C   -0.172679
     4  C    0.157465
     5  C   -0.170551
     6  C   -0.218728
     7  H    0.225497
     8  H    0.223873
     9  H    0.282202
    10  H    0.275510
    11  H    0.223331
    12  N    0.487893
    13  O   -0.460110
    14  O   -0.462062
    15  C   -0.299498
    16  C   -0.299396
    17  C   -0.482533
    18  H    0.155326
    19  H    0.151814
    20  H    0.147436
    21  H    0.152235
    22  H    0.161661
    23  H    0.159248
    24  H    0.154042
    25  C   -0.298318
    26  C   -0.300062
    27  C   -0.475723
    28  H    0.148050
    29  H    0.148643
    30  H    0.154351
    31  H    0.152889
    32  H    0.154424
    33  H    0.154493
    34  H    0.160849
 Sum of Mulliken charges =  -0.00000

 Dipole moment (field-independent basis, Debye):
    X=              1.7395    Y=             -4.7647    Z=             -0.7131  Tot=              5.1222
 Quadrupole moment (field-independent basis, Debye-Ang):
   XX=            -79.8179   YY=            -99.6315   ZZ=            -94.5271
   XY=            -13.5139   XZ=             -2.6022   YZ=              0.5302

 Normal termination of Gaussian 16 at Thu May  6 01:28:17 2021.
