 Gaussian 16, Revision A.03,
 Gaussian 16:  EM64L-G16RevA.03 25-Dec-2016

 -------------
 #p 6-31g* mp2
 -------------

 ------------------------------------------------------
 Input file generated by CHIRIPA (05-May-2021 14:51:08)
 ------------------------------------------------------
 Symbolic Z-matrix:
 Charge =  0 Multiplicity = 1

                         Standard orientation:
 ---------------------------------------------------------------------
 Center     Atomic      Atomic             Coordinates (Angstroms)
 Number     Number       Type             X           Y           Z
 ---------------------------------------------------------------------
      1          6           0        3.025015   -1.148561    0.491231
      2          6           0        1.534630   -1.268520    0.171315
      3          6           0        0.819972   -2.288870    1.057850
      4          1           0        3.498847   -2.132910    0.375104
      5          1           0        3.144863   -0.866506    1.546445
      6          1           0        1.417598   -1.548914   -0.883340
      7          1           0        1.064328   -0.283731    0.288031
      8          1           0        0.907118   -2.010367    2.113048
      9          1           0        1.262396   -3.282738    0.935021
     10          1           0       -0.244279   -2.358543    0.812139
     11          6           0        3.753208   -0.132369   -0.386731
     12          6           0        5.243594   -0.012410   -0.066816
     13          6           0        5.958251    1.007941   -0.953351
     14          1           0        3.633361   -0.414423   -1.441945
     15          1           0        3.279376    0.851980   -0.270604
     16          1           0        5.713896   -0.997199   -0.183532
     17          1           0        5.360625    0.267984    0.987840
     18          1           0        5.515827    2.001809   -0.830521
     19          1           0        5.871105    0.729438   -2.008549
     20          1           0        7.022502    1.077614   -0.707639
     21          6           0       -3.138861    1.244366    0.342858
     22          6           0       -1.708439    1.651161   -0.012663
     23          6           0       -1.222017    2.860798    0.786063
     24          1           0       -3.810074    2.096014    0.166465
     25          1           0       -3.192841    1.021176    1.417413
     26          1           0       -1.656859    1.872180   -1.086491
     27          1           0       -1.040582    0.798385    0.164415
     28          1           0       -1.244781    2.647943    1.859737
     29          1           0       -1.864560    3.727839    0.601723
     30          1           0       -0.197272    3.134436    0.516101
     31          6           0       -3.639362    0.036563   -0.447358
     32          6           0       -5.069784   -0.370232   -0.091836
     33          6           0       -5.556206   -1.579869   -0.890564
     34          1           0       -3.585382    0.259752   -1.521912
     35          1           0       -2.968149   -0.815085   -0.270964
     36          1           0       -5.737641    0.482544   -0.268915
     37          1           0       -5.121363   -0.591250    0.981991
     38          1           0       -4.913663   -2.446909   -0.706223
     39          1           0       -5.533442   -1.367013   -1.964237
     40          1           0       -6.580951   -1.853506   -0.620600
 ---------------------------------------------------------------------

 SCF Done:  E(RHF) =  -470.733336845     A.U. after   11 cycles
 E2 =    -0.1582925823D+01 EUMP2 =    -0.47231626266835D+03

 The electronic state is 1-A.
 Alpha  occ. eigenvalues --  -11.21611 -11.21608 -11.21602 -11.21574 -11.21418
 Alpha  occ. eigenvalues --  -11.21407 -11.21358 -11.21347 -11.21133 -11.21096
 Alpha  occ. eigenvalues --  -11.21076 -11.21071  -1.08455  -1.08423  -1.03569
 Alpha  occ. eigenvalues --   -1.03517  -0.96004  -0.95985  -0.87020  -0.86999
 Alpha  occ. eigenvalues --   -0.79687  -0.79532  -0.78315  -0.78186  -0.65156
 Alpha  occ. eigenvalues --   -0.64997  -0.61083  -0.60817  -0.59419  -0.59305
 Alpha  occ. eigenvalues --   -0.57631  -0.57579  -0.55308  -0.55256  -0.52708
 Alpha  occ. eigenvalues --   -0.52672  -0.52431  -0.52405  -0.49982  -0.49899
 Alpha  occ. eigenvalues --   -0.48088  -0.47808  -0.46865  -0.46462  -0.45941
 Alpha  occ. eigenvalues --   -0.45754  -0.45741  -0.45429  -0.43804  -0.43785
 Alpha virt. eigenvalues --    0.20718   0.22972   0.23757   0.24288   0.25942
 Alpha virt. eigenvalues --    0.26402   0.27056   0.27154   0.28559   0.28989
 Alpha virt. eigenvalues --    0.30427   0.31512   0.31590   0.31779   0.32107

 Mulliken charges:
               1
     1  C   -0.297611
     2  C   -0.306403
     3  C   -0.476984
     4  H    0.149656
     5  H    0.149471
     6  H    0.152360
     7  H    0.158301
     8  H    0.155193
     9  H    0.155812
    10  H    0.160101
    11  C   -0.298311
    12  C   -0.299683
    13  C   -0.475720
    14  H    0.149664
    15  H    0.149607
    16  H    0.151964
    17  H    0.151966
    18  H    0.155191
    19  H    0.155207
    20  H    0.160291
    21  C   -0.297507
    22  C   -0.308452
    23  C   -0.475691
    24  H    0.149604
    25  H    0.149449
    26  H    0.152049
    27  H    0.160651
    28  H    0.154965
    29  H    0.155552
    30  H    0.159562
    31  C   -0.299155
    32  C   -0.299681
    33  C   -0.475710
    34  H    0.149700
    35  H    0.149925
    36  H    0.152017
    37  H    0.152021
    38  H    0.155145
    39  H    0.155187
    40  H    0.160297
 Sum of Mulliken charges =  -0.00000

 Dipole moment (field-independent basis, Debye):
    X=              0.0088    Y=             -0.0030    Z=             -0.0063  Tot=              0.0112
 Quadrupole moment (field-independent basis, Debye-Ang):
   XX=            -85.2926   YY=            -85.1168   ZZ=            -84.3516
   XY=             -1.2870   XZ=              0.2474   YZ=              0.0104

 Normal termination of Gaussian 16 at Thu May  6 06:52:36 2021.
