 Gaussian 16, Revision A.03,
 Gaussian 16:  EM64L-G16RevA.03 25-Dec-2016

 -------------
 #p 6-31g* mp2
 -------------

 ------------------------------------------------------
 Input file generated by CHIRIPA (05-May-2021 14:55:20)
 ------------------------------------------------------
 Symbolic Z-matrix:
 Charge =  0 Multiplicity = 1

                         Standard orientation:
 ---------------------------------------------------------------------
 Center     Atomic      Atomic             Coordinates (Angstroms)
 Number     Number       Type             X           Y           Z
 ---------------------------------------------------------------------
      1          6           0        1.554272   -2.767670    0.905373
      2          6           0        1.974196   -2.604032   -0.418790
      3          6           0        2.253295   -1.330239   -0.922875
      4          6           0        2.101159   -0.237160   -0.071215
      5          6           0        1.684572   -0.367725    1.252680
      6          6           0        1.411053   -1.650963    1.735418
      7          1           0        1.339628   -3.760851    1.288667
      8          1           0        2.086295   -3.469476   -1.065695
      9          1           0        2.579969   -1.174904   -1.943940
     10          1           0        1.582029    0.514019    1.873509
     11          1           0        1.085100   -1.775043    2.764206
     12          7           0        2.393675    1.116347   -0.593568
     13          8           0        2.251873    2.063286    0.177039
     14          8           0        2.759213    1.204658   -1.763705
     15          6           0       -2.589614    1.320966    0.196248
     16          6           0       -1.161892    1.866594    0.239669
     17          6           0       -1.101941    3.331930    0.672094
     18          1           0       -3.188374    1.932745   -0.492342
     19          1           0       -3.046791    1.430129    1.189459
     20          1           0       -0.707071    1.755167   -0.752972
     21          1           0       -0.566411    1.253327    0.928090
     22          1           0       -1.530745    3.456455    1.671704
     23          1           0       -1.672204    3.961147   -0.018909
     24          1           0       -0.072064    3.701565    0.696266
     25          6           0       -2.665935   -0.142765   -0.234327
     26          6           0       -4.093657   -0.688393   -0.277750
     27          6           0       -4.153608   -2.153729   -0.710173
     28          1           0       -2.208757   -0.251928   -1.227538
     29          1           0       -2.067174   -0.754545    0.454263
     30          1           0       -4.689138   -0.075127   -0.966170
     31          1           0       -4.548478   -0.576968    0.714893
     32          1           0       -3.583344   -2.782947   -0.019169
     33          1           0       -3.724804   -2.278256   -1.709784
     34          1           0       -5.183484   -2.523364   -0.734346
 ---------------------------------------------------------------------

 SCF Done:  E(RHF) =  -669.534849080     A.U. after   15 cycles
 E2 =    -0.2094944297D+01 EUMP2 =    -0.67162979337681D+03

 The electronic state is 1-A.
 Alpha  occ. eigenvalues --  -20.60924 -20.60908 -15.85931 -11.31237 -11.27826
 Alpha  occ. eigenvalues --  -11.27821 -11.27569 -11.26839 -11.26812 -11.21598
 Alpha  occ. eigenvalues --  -11.21269 -11.21198 -11.21092 -11.21033 -11.20167
 Alpha  occ. eigenvalues --   -1.59969  -1.39529  -1.19429  -1.08829  -1.08206
 Alpha  occ. eigenvalues --   -1.04837  -1.03231  -0.95723  -0.95617  -0.86693
 Alpha  occ. eigenvalues --   -0.86234  -0.82518  -0.79359  -0.78072  -0.77531
 Alpha  occ. eigenvalues --   -0.72180  -0.71266  -0.70556  -0.65093  -0.64938
 Alpha  occ. eigenvalues --   -0.64767  -0.62209  -0.60642  -0.59053  -0.57226
 Alpha  occ. eigenvalues --   -0.55342  -0.54983  -0.53196  -0.52928  -0.52301
 Alpha  occ. eigenvalues --   -0.52082  -0.49652  -0.48948  -0.48917  -0.47632
 Alpha  occ. eigenvalues --   -0.46404  -0.45620  -0.45476  -0.44794  -0.43461
 Alpha  occ. eigenvalues --   -0.37369  -0.36368
 Alpha virt. eigenvalues --    0.04920   0.11155   0.16392   0.21160   0.23049
 Alpha virt. eigenvalues --    0.24556   0.26575   0.27134   0.27678   0.28009
 Alpha virt. eigenvalues --    0.28782   0.30779   0.31429   0.31838   0.32348

 Mulliken charges:
               1
     1  C   -0.170162
     2  C   -0.218132
     3  C   -0.170732
     4  C    0.162691
     5  C   -0.171450
     6  C   -0.220134
     7  H    0.226001
     8  H    0.223758
     9  H    0.275632
    10  H    0.275987
    11  H    0.223658
    12  N    0.490464
    13  O   -0.459825
    14  O   -0.459450
    15  C   -0.298077
    16  C   -0.299363
    17  C   -0.482125
    18  H    0.150298
    19  H    0.146332
    20  H    0.152593
    21  H    0.145653
    22  H    0.147055
    23  H    0.152472
    24  H    0.183390
    25  C   -0.298297
    26  C   -0.299150
    27  C   -0.474798
    28  H    0.149521
    29  H    0.146010
    30  H    0.153247
    31  H    0.150749
    32  H    0.151175
    33  H    0.154951
    34  H    0.160056
 Sum of Mulliken charges =  -0.00000

 Dipole moment (field-independent basis, Debye):
    X=             -0.8002    Y=             -4.6902    Z=              1.7790  Tot=              5.0797
 Quadrupole moment (field-independent basis, Debye-Ang):
   XX=           -100.0950   YY=            -92.9744   ZZ=            -90.3951
   XY=            -10.4911   XZ=              2.9250   YZ=              1.1862

 Normal termination of Gaussian 16 at Wed May  5 22:11:06 2021.
