 Gaussian 16, Revision A.03,
 Gaussian 16:  EM64L-G16RevA.03 25-Dec-2016

 -------------
 #p 6-31g* mp2
 -------------

 ------------------------------------------------------
 Input file generated by CHIRIPA (05-May-2021 14:57:21)
 ------------------------------------------------------
 Symbolic Z-matrix:
 Charge =  0 Multiplicity = 1

                         Standard orientation:
 ---------------------------------------------------------------------
 Center     Atomic      Atomic             Coordinates (Angstroms)
 Number     Number       Type             X           Y           Z
 ---------------------------------------------------------------------
      1          6           0       -1.661292   -0.016455    0.741313
      2          6           0       -2.677409    0.119032    1.692980
      3          6           0       -4.020763    0.081326    1.307589
      4          6           0       -4.313363   -0.094129   -0.044036
      5          6           0       -3.323538   -0.232024   -1.015901
      6          6           0       -1.987025   -0.191243   -0.607712
      7          1           0       -0.620399    0.014030    1.049549
      8          1           0       -2.427394    0.254896    2.741350
      9          1           0       -4.827311    0.183652    2.023430
     10          1           0       -3.603889   -0.366183   -2.053601
     11          1           0       -1.199982   -0.296733   -1.348980
     12          7           0       -5.731891   -0.135674   -0.464100
     13          8           0       -5.963396   -0.291327   -1.661102
     14          8           0       -6.585368   -0.011798    0.411611
     15          6           0        3.194915    2.450135   -0.040324
     16          6           0        2.394175    1.405905    0.433935
     17          6           0        2.873984    0.092832    0.446975
     18          6           0        4.165098   -0.141151   -0.023733
     19          6           0        4.987075    0.877899   -0.502464
     20          6           0        4.486532    2.183270   -0.506189
     21          1           0        2.814135    3.467170   -0.046836
     22          1           0        1.390697    1.610206    0.796338
     23          1           0        2.275413   -0.734407    0.808647
     24          1           0        5.983256    0.643152   -0.857336
     25          1           0        5.110634    2.992257   -0.875079
     26          7           0        4.684025   -1.527165   -0.014859
     27          8           0        5.824990   -1.707055   -0.434948
     28          8           0        3.939969   -2.407389    0.412017
 ---------------------------------------------------------------------

 SCF Done:  E(RHF) =  -868.336653310     A.U. after   16 cycles
 E2 =    -0.2599891728D+01 EUMP2 =    -0.87093654503794D+03

 The electronic state is 1-A.
 Alpha  occ. eigenvalues --  -20.61475 -20.61462 -20.61111 -20.61106 -15.86532
 Alpha  occ. eigenvalues --  -15.86167 -11.32031 -11.31658 -11.28713 -11.28559
 Alpha  occ. eigenvalues --  -11.28348 -11.28211 -11.28201 -11.28124 -11.27746
 Alpha  occ. eigenvalues --  -11.27570 -11.27317 -11.27296  -1.60545  -1.60183
 Alpha  occ. eigenvalues --   -1.40095  -1.39733  -1.20215  -1.19842  -1.09570
 Alpha  occ. eigenvalues --   -1.09246  -1.05661  -1.05248  -0.96387  -0.96059
 Alpha  occ. eigenvalues --   -0.87035  -0.86655  -0.83247  -0.82867  -0.78276
 Alpha  occ. eigenvalues --   -0.77871  -0.72744  -0.72384  -0.71872  -0.71506
 Alpha  occ. eigenvalues --   -0.71324  -0.71030  -0.65870  -0.65675  -0.65504
 Alpha  occ. eigenvalues --   -0.65251  -0.63019  -0.62578  -0.56150  -0.55818
 Alpha  occ. eigenvalues --   -0.53951  -0.53765  -0.53564  -0.53344  -0.49514
 Alpha  occ. eigenvalues --   -0.49494  -0.49153  -0.49130  -0.45473  -0.45109
 Alpha  occ. eigenvalues --   -0.38169  -0.37876  -0.37267  -0.36834
 Alpha virt. eigenvalues --    0.04289   0.04616   0.10394   0.10811   0.15712
 Alpha virt. eigenvalues --    0.15982   0.17844   0.21960   0.24565   0.26876
 Alpha virt. eigenvalues --    0.27317   0.29413   0.29972   0.31282   0.32115

 Mulliken charges:
               1
     1  C   -0.175802
     2  C   -0.218258
     3  C   -0.170410
     4  C    0.159661
     5  C   -0.170386
     6  C   -0.218569
     7  H    0.218926
     8  H    0.224542
     9  H    0.277289
    10  H    0.277722
    11  H    0.225862
    12  N    0.487859
    13  O   -0.458773
    14  O   -0.459051
    15  C   -0.170076
    16  C   -0.222160
    17  C   -0.174347
    18  C    0.159733
    19  C   -0.169600
    20  C   -0.218136
    21  H    0.228882
    22  H    0.218404
    23  H    0.270984
    24  H    0.278507
    25  H    0.226907
    26  N    0.488162
    27  O   -0.457318
    28  O   -0.460554
 Sum of Mulliken charges =  -0.00000

 Dipole moment (field-independent basis, Debye):
    X=              3.2292    Y=              5.0692    Z=              1.3334  Tot=              6.1565
 Quadrupole moment (field-independent basis, Debye-Ang):
   XX=           -157.6876   YY=           -106.7574   ZZ=           -100.3767
   XY=             21.3815   XZ=            -10.4326   YZ=             -0.3308

 Normal termination of Gaussian 16 at Thu May  6 01:39:46 2021.
