 Gaussian 16, Revision A.03,
 Gaussian 16:  EM64L-G16RevA.03 25-Dec-2016

 -------------
 #p 6-31g* mp2
 -------------

 ------------------------------------------------------
 Input file generated by CHIRIPA (05-May-2021 14:53:12)
 ------------------------------------------------------
 Symbolic Z-matrix:
 Charge =  0 Multiplicity = 1

                         Standard orientation:
 ---------------------------------------------------------------------
 Center     Atomic      Atomic             Coordinates (Angstroms)
 Number     Number       Type             X           Y           Z
 ---------------------------------------------------------------------
      1          6           0       -2.957248   -0.864864    0.883494
      2          6           0       -1.455906   -1.133476    0.774850
      3          6           0       -0.938805   -2.055229    1.879735
      4          1           0       -3.173757   -0.420726    1.864723
      5          1           0       -3.497321   -1.821106    0.847195
      6          1           0       -0.918908   -0.176910    0.809952
      7          1           0       -1.242920   -1.576849   -0.206309
      8          1           0       -1.448295   -3.023581    1.843438
      9          1           0       -1.122443   -1.615687    2.865474
     10          1           0        0.136638   -2.233873    1.782944
     11          6           0       -3.489089    0.055008   -0.214099
     12          6           0       -4.990431    0.323620   -0.105454
     13          6           0       -5.507532    1.245373   -1.210339
     14          1           0       -2.949016    1.011249   -0.177799
     15          1           0       -3.272580   -0.389130   -1.195328
     16          1           0       -5.203417    0.766993    0.875705
     17          1           0       -5.527428   -0.632946   -0.140556
     18          1           0       -5.323894    0.805831   -2.196078
     19          1           0       -4.998042    2.213724   -1.174042
     20          1           0       -6.582975    1.424017   -1.113548
     21          6           0        2.226970    2.652446    0.646163
     22          6           0        1.188570    2.043914   -0.066532
     23          6           0        1.338791    0.749911   -0.574012
     24          6           0        2.546246    0.090505   -0.349231
     25          6           0        3.599313    0.669942    0.356880
     26          6           0        3.426912    1.964730    0.855225
     27          1           0        2.101660    3.657964    1.036838
     28          1           0        0.255577    2.575619   -0.230418
     29          1           0        0.551205    0.255106   -1.129256
     30          1           0        4.517747    0.114786    0.504181
     31          1           0        4.235057    2.434840    1.408348
     32          7           0        2.717018   -1.279814   -0.881642
     33          8           0        3.790598   -1.839538   -0.670044
     34          8           0        1.774057   -1.768200   -1.500463
 ---------------------------------------------------------------------

 SCF Done:  E(RHF) =  -669.534863355     A.U. after   15 cycles
 E2 =    -0.2093393171D+01 EUMP2 =    -0.67162825652526D+03

 The electronic state is 1-A.
 Alpha  occ. eigenvalues --  -20.60823 -20.60813 -15.85863 -11.31178 -11.27784
 Alpha  occ. eigenvalues --  -11.27722 -11.27527 -11.26769 -11.26757 -11.21835
 Alpha  occ. eigenvalues --  -11.21683 -11.21522 -11.21445 -11.21318 -11.20897
 Alpha  occ. eigenvalues --   -1.59887  -1.39441  -1.19378  -1.08775  -1.08585
 Alpha  occ. eigenvalues --   -1.04785  -1.03611  -0.96068  -0.95614  -0.87084
 Alpha  occ. eigenvalues --   -0.86174  -0.82452  -0.79727  -0.78470  -0.77451
 Alpha  occ. eigenvalues --   -0.72081  -0.71208  -0.70486  -0.65234  -0.65012
 Alpha  occ. eigenvalues --   -0.64778  -0.62143  -0.61006  -0.59436  -0.57684
 Alpha  occ. eigenvalues --   -0.55363  -0.55282  -0.53130  -0.52890  -0.52711
 Alpha  occ. eigenvalues --   -0.52480  -0.50011  -0.48844  -0.48838  -0.47996
 Alpha  occ. eigenvalues --   -0.46734  -0.45953  -0.45860  -0.44829  -0.43884
 Alpha  occ. eigenvalues --   -0.37361  -0.36292
 Alpha virt. eigenvalues --    0.05007   0.11249   0.16387   0.20620   0.22857
 Alpha virt. eigenvalues --    0.24234   0.25373   0.25985   0.27713   0.28142
 Alpha virt. eigenvalues --    0.29726   0.30437   0.31454   0.31693   0.31942

 Mulliken charges:
               1
     1  C   -0.297137
     2  C   -0.311916
     3  C   -0.473742
     4  H    0.148221
     5  H    0.152310
     6  H    0.146779
     7  H    0.164406
     8  H    0.157862
     9  H    0.151801
    10  H    0.163351
    11  C   -0.298232
    12  C   -0.299434
    13  C   -0.475715
    14  H    0.139366
    15  H    0.151955
    16  H    0.151728
    17  H    0.154590
    18  H    0.156546
    19  H    0.152119
    20  H    0.161411
    21  C   -0.170082
    22  C   -0.221551
    23  C   -0.167382
    24  C    0.155165
    25  C   -0.170682
    26  C   -0.219091
    27  H    0.225674
    28  H    0.223972
    29  H    0.281464
    30  H    0.275608
    31  H    0.223396
    32  N    0.488418
    33  O   -0.460071
    34  O   -0.461108
 Sum of Mulliken charges =  -0.00000

 Dipole moment (field-independent basis, Debye):
    X=             -0.5843    Y=              4.6991    Z=              1.8398  Tot=              5.0801
 Quadrupole moment (field-independent basis, Debye-Ang):
   XX=            -93.7396   YY=            -94.1033   ZZ=            -96.3396
   XY=             12.9716   XZ=              6.9096   YZ=             -0.5680

 Normal termination of Gaussian 16 at Thu May  6 11:58:01 2021.
