 Gaussian 16, Revision A.03,
 Gaussian 16:  EM64L-G16RevA.03 25-Dec-2016

 -------------
 #p 6-31g* mp2
 -------------

 ------------------------------------------------------
 Input file generated by CHIRIPA (05-May-2021 14:57:25)
 ------------------------------------------------------
 Symbolic Z-matrix:
 Charge =  0 Multiplicity = 1

                         Standard orientation:
 ---------------------------------------------------------------------
 Center     Atomic      Atomic             Coordinates (Angstroms)
 Number     Number       Type             X           Y           Z
 ---------------------------------------------------------------------
      1          6           0        3.130066   -2.324844    0.218353
      2          6           0        4.228388   -1.673447    0.789222
      3          6           0        4.408162   -0.298153    0.613735
      4          6           0        3.466010    0.397949   -0.141965
      5          6           0        2.361410   -0.222573   -0.723431
      6          6           0        2.201719   -1.598608   -0.534823
      7          1           0        2.998214   -3.393494    0.359772
      8          1           0        4.950947   -2.234911    1.374638
      9          1           0        5.249346    0.231268    1.044480
     10          1           0        1.657907    0.363889   -1.301845
     11          1           0        1.347794   -2.101858   -0.979341
     12          7           0        3.645699    1.854304   -0.334690
     13          8           0        2.801496    2.444972   -1.004816
     14          8           0        4.627339    2.377549    0.188027
     15          6           0       -1.719228   -2.000205   -0.042304
     16          6           0       -2.739913   -1.914045   -0.994827
     17          6           0       -3.696763   -0.897474   -0.920184
     18          6           0       -3.602405    0.020181    0.124945
     19          6           0       -2.597425   -0.039133    1.089199
     20          6           0       -1.651362   -1.064126    0.994841
     21          1           0       -0.980114   -2.793173   -0.107946
     22          1           0       -2.795093   -2.639631   -1.801378
     23          1           0       -4.497490   -0.807362   -1.644155
     24          1           0       -2.568480    0.698769    1.881714
     25          1           0       -0.859790   -1.128586    1.735992
     26          7           0       -4.609669    1.100836    0.214403
     27          8           0       -4.504538    1.896963    1.144868
     28          8           0       -5.485222    1.131264   -0.647640
 ---------------------------------------------------------------------

 SCF Done:  E(RHF) =  -868.336653980     A.U. after   16 cycles
 E2 =    -0.2600443805D+01 EUMP2 =    -0.87093709778575D+03

 The electronic state is 1-A.
 Alpha  occ. eigenvalues --  -20.61212 -20.61205 -20.61015 -20.61006 -15.86272
 Alpha  occ. eigenvalues --  -15.86071 -11.31807 -11.31619 -11.28419 -11.28392
 Alpha  occ. eigenvalues --  -11.28239 -11.28188 -11.28155 -11.28083 -11.27533
 Alpha  occ. eigenvalues --  -11.27434 -11.27314 -11.27266  -1.60285  -1.60083
 Alpha  occ. eigenvalues --   -1.39832  -1.39631  -1.20020  -1.19812  -1.09395
 Alpha  occ. eigenvalues --   -1.09205  -1.05445  -1.05223  -0.96186  -0.96006
 Alpha  occ. eigenvalues --   -0.86848  -0.86625  -0.83019  -0.82811  -0.78025
 Alpha  occ. eigenvalues --   -0.77805  -0.72485  -0.72287  -0.71614  -0.71405
 Alpha  occ. eigenvalues --   -0.71134  -0.71007  -0.65670  -0.65514  -0.65448
 Alpha  occ. eigenvalues --   -0.65204  -0.62784  -0.62548  -0.56024  -0.55789
 Alpha  occ. eigenvalues --   -0.53809  -0.53616  -0.53429  -0.53312  -0.49260
 Alpha  occ. eigenvalues --   -0.49228  -0.49061  -0.49030  -0.45199  -0.44996
 Alpha  occ. eigenvalues --   -0.38065  -0.37875  -0.37073  -0.36745
 Alpha virt. eigenvalues --    0.04500   0.04678   0.10500   0.10836   0.15866
 Alpha virt. eigenvalues --    0.16047   0.19341   0.21732   0.25381   0.26883
 Alpha virt. eigenvalues --    0.27567   0.28752   0.29991   0.31241   0.32128

 Mulliken charges:
               1
     1  C   -0.172909
     2  C   -0.218599
     3  C   -0.170089
     4  C    0.158350
     5  C   -0.170740
     6  C   -0.223634
     7  H    0.224093
     8  H    0.225413
     9  H    0.278004
    10  H    0.279622
    11  H    0.218179
    12  N    0.487848
    13  O   -0.457657
    14  O   -0.458697
    15  C   -0.176792
    16  C   -0.218726
    17  C   -0.170390
    18  C    0.160175
    19  C   -0.169908
    20  C   -0.217789
    21  H    0.216853
    22  H    0.223235
    23  H    0.277531
    24  H    0.278992
    25  H    0.226203
    26  N    0.488017
    27  O   -0.457507
    28  O   -0.459078
 Sum of Mulliken charges =  -0.00000

 Dipole moment (field-independent basis, Debye):
    X=              2.8885    Y=             -8.6770    Z=              0.4212  Tot=              9.1548
 Quadrupole moment (field-independent basis, Debye-Ang):
   XX=           -129.8459   YY=           -110.0509   ZZ=           -100.9593
   XY=             -3.5848   XZ=              8.8461   YZ=              2.0282

 Normal termination of Gaussian 16 at Wed May  5 19:32:50 2021.
