 Gaussian 16, Revision A.03,
 Gaussian 16:  EM64L-G16RevA.03 25-Dec-2016

 -------------
 #p 6-31g* mp2
 -------------

 ------------------------------------------------------
 Input file generated by CHIRIPA (05-May-2021 14:55:24)
 ------------------------------------------------------
 Symbolic Z-matrix:
 Charge =  0 Multiplicity = 1

                         Standard orientation:
 ---------------------------------------------------------------------
 Center     Atomic      Atomic             Coordinates (Angstroms)
 Number     Number       Type             X           Y           Z
 ---------------------------------------------------------------------
      1          6           0        2.331042    2.248208    0.343085
      2          6           0        3.548239    2.211473   -0.345104
      3          6           0        4.257168    1.013025   -0.470361
      4          6           0        3.717200   -0.134931    0.107498
      5          6           0        2.506947   -0.130506    0.799276
      6          6           0        1.815191    1.079163    0.912076
      7          1           0        1.786999    3.183550    0.435549
      8          1           0        3.951262    3.117816   -0.788003
      9          1           0        5.201660    0.956196   -0.997735
     10          1           0        2.130544   -1.050359    1.230100
     11          1           0        0.870128    1.104716    1.447099
     12          7           0        4.458621   -1.409614   -0.018512
     13          8           0        3.961506   -2.407148    0.499600
     14          8           0        5.522824   -1.387040   -0.633004
     15          6           0       -3.933358   -0.347403   -0.435790
     16          6           0       -2.761766    0.582515   -0.118596
     17          6           0       -1.431725    0.066411   -0.668522
     18          1           0       -3.725322   -1.343350   -0.021356
     19          1           0       -4.009323   -0.471685   -1.524908
     20          1           0       -2.688892    0.706107    0.969536
     21          1           0       -2.972702    1.576416   -0.533666
     22          1           0       -1.480179   -0.039847   -1.757081
     23          1           0       -1.194757   -0.915100   -0.245338
     24          1           0       -0.607873    0.746418   -0.430364
     25          6           0       -5.269854    0.155013    0.107429
     26          6           0       -6.441445   -0.774904   -0.209764
     27          6           0       -7.771487   -0.258799    0.340161
     28          1           0       -5.193889    0.279296    1.196547
     29          1           0       -5.477889    1.150961   -0.307004
     30          1           0       -6.230510   -1.768804    0.205305
     31          1           0       -6.514319   -0.898496   -1.297896
     32          1           0       -8.008455    0.722712   -0.083022
     33          1           0       -7.723033   -0.152541    1.428721
     34          1           0       -8.595339   -0.938806    0.102003
 ---------------------------------------------------------------------

 SCF Done:  E(RHF) =  -669.534645944     A.U. after   15 cycles
 E2 =    -0.2091924553D+01 EUMP2 =    -0.67162657049712D+03

 The electronic state is 1-A.
 Alpha  occ. eigenvalues --  -20.60765 -20.60760 -15.85818 -11.31198 -11.27756
 Alpha  occ. eigenvalues --  -11.27752 -11.27511 -11.26786 -11.26758 -11.22194
 Alpha  occ. eigenvalues --  -11.21884 -11.21811 -11.21726 -11.21577 -11.21318
 Alpha  occ. eigenvalues --   -1.59839  -1.39393  -1.19373  -1.08847  -1.08767
 Alpha  occ. eigenvalues --   -1.04783  -1.03952  -0.96395  -0.95597  -0.87420
 Alpha  occ. eigenvalues --   -0.86174  -0.82429  -0.80022  -0.78644  -0.77474
 Alpha  occ. eigenvalues --   -0.72037  -0.71161  -0.70476  -0.65477  -0.65024
 Alpha  occ. eigenvalues --   -0.64821  -0.62169  -0.61343  -0.59775  -0.58015
 Alpha  occ. eigenvalues --   -0.55673  -0.55276  -0.53496  -0.52949  -0.52882
 Alpha  occ. eigenvalues --   -0.52525  -0.50324  -0.48798  -0.48790  -0.48328
 Alpha  occ. eigenvalues --   -0.47060  -0.46185  -0.46106  -0.44795  -0.44209
 Alpha  occ. eigenvalues --   -0.37337  -0.36316
 Alpha virt. eigenvalues --    0.05057   0.11161   0.16526   0.20608   0.22638
 Alpha virt. eigenvalues --    0.23952   0.26122   0.26772   0.26982   0.28130
 Alpha virt. eigenvalues --    0.28916   0.30333   0.31019   0.31542   0.31771

 Mulliken charges:
               1
     1  C   -0.172428
     2  C   -0.218001
     3  C   -0.170937
     4  C    0.158565
     5  C   -0.170678
     6  C   -0.217308
     7  H    0.225869
     8  H    0.223526
     9  H    0.275653
    10  H    0.275762
    11  H    0.226439
    12  N    0.488106
    13  O   -0.460284
    14  O   -0.460375
    15  C   -0.298414
    16  C   -0.300344
    17  C   -0.481706
    18  H    0.151233
    19  H    0.151525
    20  H    0.146991
    21  H    0.151522
    22  H    0.159562
    23  H    0.155013
    24  H    0.159238
    25  C   -0.298433
    26  C   -0.300042
    27  C   -0.475898
    28  H    0.148959
    29  H    0.149434
    30  H    0.152931
    31  H    0.152774
    32  H    0.155128
    33  H    0.155180
    34  H    0.161440
 Sum of Mulliken charges =  -0.00000

 Dipole moment (field-independent basis, Debye):
    X=             -2.6482    Y=              4.4650    Z=              0.4049  Tot=              5.2070
 Quadrupole moment (field-independent basis, Debye-Ang):
   XX=           -112.6669   YY=            -95.2007   ZZ=            -93.2705
   XY=             19.4169   XZ=             -0.1755   YZ=             -1.5205

 Normal termination of Gaussian 16 at Thu May  6 14:21:15 2021.
