 Gaussian 16, Revision A.03,
 Gaussian 16:  EM64L-G16RevA.03 25-Dec-2016

 -------------
 #p 6-31g* mp2
 -------------

 ------------------------------------------------------
 Input file generated by CHIRIPA (05-May-2021 14:53:13)
 ------------------------------------------------------
 Symbolic Z-matrix:
 Charge =  0 Multiplicity = 1

                         Standard orientation:
 ---------------------------------------------------------------------
 Center     Atomic      Atomic             Coordinates (Angstroms)
 Number     Number       Type             X           Y           Z
 ---------------------------------------------------------------------
      1          6           0        5.187965   -0.278611   -0.095920
      2          6           0        6.083744    0.959779   -0.051691
      3          6           0        7.406226    0.759527   -0.792458
      4          1           0        5.728552   -1.130095    0.339608
      5          1           0        4.986330   -0.539476   -1.144103
      6          1           0        6.282496    1.219049    0.996113
      7          1           0        5.540891    1.808459   -0.487200
      8          1           0        7.225657    0.523324   -1.846120
      9          1           0        7.971476   -0.069436   -0.354379
     10          1           0        8.031055    1.657019   -0.748223
     11          6           0        3.862215   -0.093934    0.640293
     12          6           0        2.966435   -1.332323    0.596064
     13          6           0        1.643954   -1.132072    1.336831
     14          1           0        4.063849    0.166932    1.688476
     15          1           0        3.321627    0.757551    0.204765
     16          1           0        3.509289   -2.181004    1.031573
     17          1           0        2.767684   -1.591593   -0.451740
     18          1           0        1.078703   -0.303109    0.898752
     19          1           0        1.824522   -0.895868    2.390493
     20          1           0        1.019124   -2.029564    1.292596
     21          6           0       -5.993310    0.287118    0.338447
     22          6           0       -5.145621    1.358266    0.639424
     23          6           0       -3.781992    1.290815    0.338570
     24          6           0       -3.297588    0.131837   -0.265923
     25          6           0       -4.116717   -0.952055   -0.578170
     26          6           0       -5.477061   -0.862598   -0.268319
     27          1           0       -7.051334    0.348062    0.575651
     28          1           0       -5.543777    2.252397    1.110643
     29          1           0       -3.103290    2.105344    0.560657
     30          1           0       -3.690631   -1.830223   -1.047945
     31          1           0       -6.133034   -1.696008   -0.503207
     32          7           0       -1.855713    0.048781   -0.589186
     33          8           0       -1.453592   -0.983379   -1.121708
     34          8           0       -1.154995    1.017415   -0.303916
 ---------------------------------------------------------------------

 SCF Done:  E(RHF) =  -669.536657035     A.U. after   15 cycles
 E2 =    -0.2091244591D+01 EUMP2 =    -0.67162790162572D+03

 The electronic state is 1-A.
 Alpha  occ. eigenvalues --  -20.61007 -20.61000 -15.86012 -11.31317 -11.27874
 Alpha  occ. eigenvalues --  -11.27870 -11.27609 -11.26875 -11.26866 -11.20823
 Alpha  occ. eigenvalues --  -11.20441 -11.20426 -11.20245 -11.20178 -11.19369
 Alpha  occ. eigenvalues --   -1.60046  -1.39604  -1.19479  -1.08888  -1.07364
 Alpha  occ. eigenvalues --   -1.04872  -1.02414  -0.95735  -0.94860  -0.86273
 Alpha  occ. eigenvalues --   -0.85885  -0.82569  -0.78526  -0.77625  -0.77144
 Alpha  occ. eigenvalues --   -0.72232  -0.71353  -0.70589  -0.65135  -0.64876
 Alpha  occ. eigenvalues --   -0.63993  -0.62219  -0.59799  -0.58291  -0.56468
 Alpha  occ. eigenvalues --   -0.55383  -0.54140  -0.53202  -0.52964  -0.51573
 Alpha  occ. eigenvalues --   -0.51299  -0.49204  -0.48991  -0.48581  -0.46821
 Alpha  occ. eigenvalues --   -0.45552  -0.45019  -0.44672  -0.44544  -0.42687
 Alpha  occ. eigenvalues --   -0.37455  -0.36471
 Alpha virt. eigenvalues --    0.04874   0.11185   0.16372   0.21321   0.23897
 Alpha virt. eigenvalues --    0.25518   0.27240   0.27716   0.28202   0.28537
 Alpha virt. eigenvalues --    0.29199   0.30892   0.32397   0.32595   0.32724

 Mulliken charges:
               1
     1  C   -0.297696
     2  C   -0.299010
     3  C   -0.475135
     4  H    0.146712
     5  H    0.149839
     6  H    0.149990
     7  H    0.152393
     8  H    0.154791
     9  H    0.153682
    10  H    0.157840
    11  C   -0.298930
    12  C   -0.298014
    13  C   -0.484881
    14  H    0.145105
    15  H    0.155497
    16  H    0.144524
    17  H    0.156536
    18  H    0.180337
    19  H    0.143850
    20  H    0.156490
    21  C   -0.170475
    22  C   -0.218590
    23  C   -0.170581
    24  C    0.159455
    25  C   -0.170737
    26  C   -0.218613
    27  H    0.226082
    28  H    0.223921
    29  H    0.275913
    30  H    0.275883
    31  H    0.223900
    32  N    0.488939
    33  O   -0.458541
    34  O   -0.460477
 Sum of Mulliken charges =  -0.00000

 Dipole moment (field-independent basis, Debye):
    X=             -5.4644    Y=              0.3667    Z=              1.0009  Tot=              5.5674
 Quadrupole moment (field-independent basis, Debye-Ang):
   XX=            -63.7069   YY=            -90.6773   ZZ=            -95.2900
   XY=             -0.9134   XZ=             -1.6803   YZ=              2.0626

 Normal termination of Gaussian 16 at Thu May  6 13:45:08 2021.
