 Gaussian 16, Revision A.03,
 Gaussian 16:  EM64L-G16RevA.03 25-Dec-2016

 -------------
 #p 6-31g* mp2
 -------------

 ------------------------------------------------------
 Input file generated by CHIRIPA (05-May-2021 14:53:13)
 ------------------------------------------------------
 Symbolic Z-matrix:
 Charge =  0 Multiplicity = 1

                         Standard orientation:
 ---------------------------------------------------------------------
 Center     Atomic      Atomic             Coordinates (Angstroms)
 Number     Number       Type             X           Y           Z
 ---------------------------------------------------------------------
      1          6           0        3.027838   -0.391276    0.548094
      2          6           0        3.346259   -1.816028    0.093479
      3          6           0        3.155500   -2.847917    1.205509
      4          1           0        3.668458   -0.134098    1.402734
      5          1           0        1.991564   -0.352770    0.911479
      6          1           0        4.381185   -1.851521   -0.270230
      7          1           0        2.704940   -2.069775   -0.760300
      8          1           0        2.120855   -2.841798    1.563383
      9          1           0        3.806623   -2.622304    2.056237
     10          1           0        3.388579   -3.859511    0.858795
     11          6           0        3.213834    0.651652   -0.552559
     12          6           0        2.895413    2.076404   -0.097944
     13          6           0        3.086172    3.108292   -1.209974
     14          1           0        4.250107    0.613145   -0.915944
     15          1           0        2.573213    0.394474   -1.407199
     16          1           0        3.536732    2.330151    0.755835
     17          1           0        1.860487    2.111897    0.265765
     18          1           0        2.435048    2.882680   -2.060702
     19          1           0        4.120817    3.102174   -1.567848
     20          1           0        2.853092    4.119887   -0.863260
     21          6           0       -2.910083    2.185731    0.956115
     22          6           0       -3.952775    1.421099    0.422588
     23          6           0       -3.702916    0.152374   -0.108877
     24          6           0       -2.392528   -0.322850   -0.090521
     25          6           0       -1.332408    0.414966    0.433942
     26          6           0       -1.605527    1.681114    0.960081
     27          1           0       -3.113214    3.170306    1.366900
     28          1           0       -4.966895    1.810443    0.418175
     29          1           0       -4.491374   -0.460762   -0.528182
     30          1           0       -0.331840    0.000008    0.424304
     31          1           0       -0.793791    2.272717    1.373768
     32          7           0       -2.115701   -1.664629   -0.650340
     33          8           0       -0.952506   -2.060643   -0.622317
     34          8           0       -3.067162   -2.294894   -1.106549
 ---------------------------------------------------------------------

 SCF Done:  E(RHF) =  -669.535716813     A.U. after   15 cycles
 E2 =    -0.2092390099D+01 EUMP2 =    -0.67162810691116D+03

 The electronic state is 1-A.
 Alpha  occ. eigenvalues --  -20.60844 -20.60836 -15.85891 -11.31222 -11.27792
 Alpha  occ. eigenvalues --  -11.27775 -11.27528 -11.26803 -11.26787 -11.22092
 Alpha  occ. eigenvalues --  -11.21564 -11.21493 -11.21432 -11.21232 -11.20595
 Alpha  occ. eigenvalues --   -1.59914  -1.39469  -1.19395  -1.08796  -1.08543
 Alpha  occ. eigenvalues --   -1.04795  -1.03544  -0.95994  -0.95636  -0.87016
 Alpha  occ. eigenvalues --   -0.86195  -0.82471  -0.79663  -0.78335  -0.77514
 Alpha  occ. eigenvalues --   -0.72113  -0.71234  -0.70515  -0.65238  -0.65046
 Alpha  occ. eigenvalues --   -0.64773  -0.62126  -0.60924  -0.59410  -0.57598
 Alpha  occ. eigenvalues --   -0.55361  -0.55210  -0.53124  -0.52903  -0.52686
 Alpha  occ. eigenvalues --   -0.52397  -0.49945  -0.48869  -0.48865  -0.47958
 Alpha  occ. eigenvalues --   -0.46704  -0.45863  -0.45726  -0.44879  -0.43829
 Alpha  occ. eigenvalues --   -0.37374  -0.36392
 Alpha virt. eigenvalues --    0.04995   0.11251   0.16449   0.18743   0.22993
 Alpha virt. eigenvalues --    0.23808   0.24914   0.26845   0.27553   0.28199
 Alpha virt. eigenvalues --    0.29219   0.31164   0.31708   0.31722   0.32451

 Mulliken charges:
               1
     1  C   -0.301049
     2  C   -0.301238
     3  C   -0.476409
     4  H    0.149402
     5  H    0.142380
     6  H    0.149815
     7  H    0.165464
     8  H    0.161396
     9  H    0.150200
    10  H    0.162518
    11  C   -0.300871
    12  C   -0.299623
    13  C   -0.475683
    14  H    0.152402
    15  H    0.154957
    16  H    0.153177
    17  H    0.139398
    18  H    0.157478
    19  H    0.158135
    20  H    0.158154
    21  C   -0.170485
    22  C   -0.219057
    23  C   -0.169707
    24  C    0.157682
    25  C   -0.181626
    26  C   -0.224892
    27  H    0.226017
    28  H    0.223649
    29  H    0.275719
    30  H    0.291190
    31  H    0.226352
    32  N    0.487102
    33  O   -0.462314
    34  O   -0.459634
 Sum of Mulliken charges =  -0.00000

 Dipole moment (field-independent basis, Debye):
    X=             -0.9364    Y=              4.6020    Z=              1.8551  Tot=              5.0494
 Quadrupole moment (field-independent basis, Debye-Ang):
   XX=            -84.1040   YY=            -98.9393   ZZ=            -96.0937
   XY=            -10.7142   XZ=             -3.5001   YZ=             -0.2102

 Normal termination of Gaussian 16 at Thu May  6 20:19:31 2021.
