 Gaussian 16, Revision A.03,
 Gaussian 16:  EM64L-G16RevA.03 25-Dec-2016

 -------------
 #p 6-31g* mp2
 -------------

 ------------------------------------------------------
 Input file generated by CHIRIPA (05-May-2021 14:53:11)
 ------------------------------------------------------
 Symbolic Z-matrix:
 Charge =  0 Multiplicity = 1

                         Standard orientation:
 ---------------------------------------------------------------------
 Center     Atomic      Atomic             Coordinates (Angstroms)
 Number     Number       Type             X           Y           Z
 ---------------------------------------------------------------------
      1          6           0        3.783369   -0.064277   -0.201118
      2          6           0        3.363509   -1.513828   -0.447096
      3          6           0        4.517542   -2.501398   -0.271867
      4          1           0        4.598749    0.196482   -0.889671
      5          1           0        4.191972    0.024388    0.815040
      6          1           0        2.954541   -1.599444   -1.462001
      7          1           0        2.548904   -1.771107    0.241992
      8          1           0        4.921671   -2.445321    0.744074
      9          1           0        5.329613   -2.272682   -0.969600
     10          1           0        4.195225   -3.531634   -0.452382
     11          6           0        2.640535    0.934864   -0.372515
     12          6           0        3.060395    2.384415   -0.126537
     13          6           0        1.906361    3.371985   -0.301767
     14          1           0        2.231932    0.846199   -1.388673
     15          1           0        1.825155    0.674105    0.316037
     16          1           0        3.875000    2.641694   -0.815625
     17          1           0        3.469363    2.470031    0.888367
     18          1           0        1.094291    3.143269    0.395967
     19          1           0        1.502233    3.315908   -1.317708
     20          1           0        2.228679    4.402221   -0.121251
     21          6           0       -0.645276   -0.747260    1.874953
     22          6           0       -1.688352    0.126729    2.198465
     23          6           0       -2.726412    0.359885    1.291483
     24          6           0       -2.689548   -0.300708    0.064475
     25          6           0       -1.664163   -1.177234   -0.287064
     26          6           0       -0.636527   -1.395308    0.635406
     27          1           0        0.157066   -0.922523    2.585535
     28          1           0       -1.697750    0.631393    3.160375
     29          1           0       -3.546154    1.031424    1.516154
     30          1           0       -1.682226   -1.665762   -1.253725
     31          1           0        0.172258   -2.074590    0.381461
     32          7           0       -3.782978   -0.061858   -0.903906
     33          8           0       -3.727343   -0.656123   -1.978332
     34          8           0       -4.674941    0.715093   -0.570159
 ---------------------------------------------------------------------

 SCF Done:  E(RHF) =  -669.535265417     A.U. after   15 cycles
 E2 =    -0.2092696659D+01 EUMP2 =    -0.67162796207679D+03

 The electronic state is 1-A.
 Alpha  occ. eigenvalues --  -20.60775 -20.60770 -15.85827 -11.31211 -11.27774
 Alpha  occ. eigenvalues --  -11.27755 -11.27535 -11.26812 -11.26763 -11.22523
 Alpha  occ. eigenvalues --  -11.22043 -11.22002 -11.21824 -11.21815 -11.21353
 Alpha  occ. eigenvalues --   -1.59849  -1.39402  -1.19383  -1.09045  -1.08777
 Alpha  occ. eigenvalues --   -1.04783  -1.04120  -0.96530  -0.95612  -0.87549
 Alpha  occ. eigenvalues --   -0.86190  -0.82439  -0.80226  -0.78835  -0.77474
 Alpha  occ. eigenvalues --   -0.72047  -0.71171  -0.70498  -0.65724  -0.65033
 Alpha  occ. eigenvalues --   -0.64771  -0.62157  -0.61501  -0.59917  -0.58149
 Alpha  occ. eigenvalues --   -0.55816  -0.55296  -0.53272  -0.53151  -0.52955
 Alpha  occ. eigenvalues --   -0.52829  -0.50473  -0.48823  -0.48800  -0.48493
 Alpha  occ. eigenvalues --   -0.47266  -0.46352  -0.46278  -0.44804  -0.44358
 Alpha  occ. eigenvalues --   -0.37334  -0.36358
 Alpha virt. eigenvalues --    0.05029   0.11169   0.16480   0.19976   0.22709
 Alpha virt. eigenvalues --    0.23735   0.25407   0.26249   0.27340   0.27991
 Alpha virt. eigenvalues --    0.29070   0.30189   0.31000   0.31426   0.31840

 Mulliken charges:
               1
     1  C   -0.298228
     2  C   -0.302251
     3  C   -0.475493
     4  H    0.153089
     5  H    0.148260
     6  H    0.154384
     7  H    0.140814
     8  H    0.155538
     9  H    0.159344
    10  H    0.160298
    11  C   -0.303116
    12  C   -0.299913
    13  C   -0.475884
    14  H    0.151563
    15  H    0.150963
    16  H    0.153290
    17  H    0.149904
    18  H    0.154717
    19  H    0.158146
    20  H    0.161109
    21  C   -0.173490
    22  C   -0.219024
    23  C   -0.171144
    24  C    0.159154
    25  C   -0.172066
    26  C   -0.218303
    27  H    0.225307
    28  H    0.223560
    29  H    0.275760
    30  H    0.275982
    31  H    0.230318
    32  N    0.487978
    33  O   -0.460270
    34  O   -0.460295
 Sum of Mulliken charges =  -0.00000

 Dipole moment (field-independent basis, Debye):
    X=              3.8989    Y=             -0.7993    Z=              3.3385  Tot=              5.1948
 Quadrupole moment (field-independent basis, Debye-Ang):
   XX=           -115.3241   YY=            -93.3881   ZZ=            -91.5877
   XY=              0.1479   XZ=            -11.1378   YZ=              1.2275

 Normal termination of Gaussian 16 at Wed May  5 18:30:18 2021.
