 Gaussian 16, Revision A.03,
 Gaussian 16:  EM64L-G16RevA.03 25-Dec-2016

 -------------
 #p 6-31g* mp2
 -------------

 ------------------------------------------------------
 Input file generated by CHIRIPA (05-May-2021 14:57:22)
 ------------------------------------------------------
 Symbolic Z-matrix:
 Charge =  0 Multiplicity = 1

                         Standard orientation:
 ---------------------------------------------------------------------
 Center     Atomic      Atomic             Coordinates (Angstroms)
 Number     Number       Type             X           Y           Z
 ---------------------------------------------------------------------
      1          6           0        1.273171    1.734211   -1.642162
      2          6           0        0.793329    0.452176   -1.354657
      3          6           0        1.591398   -0.466983   -0.667066
      4          6           0        2.870089   -0.068841   -0.280125
      5          6           0        3.376580    1.201177   -0.551805
      6          6           0        2.560994    2.103968   -1.240527
      7          1           0        0.646408    2.441877   -2.176739
      8          1           0       -0.206405    0.162267   -1.665349
      9          1           0        1.244991   -1.465936   -0.431458
     10          1           0        4.377452    1.461186   -0.229210
     11          1           0        2.936274    3.098937   -1.462442
     12          7           0        3.724241   -1.033249    0.448395
     13          8           0        4.847148   -0.658013    0.778415
     14          8           0        3.254644   -2.146126    0.675595
     15          6           0       -4.044411   -1.182757   -1.455218
     16          6           0       -4.503201    0.005963   -0.878176
     17          6           0       -3.782688    0.620160    0.150497
     18          6           0       -2.602176    0.015529    0.579568
     19          6           0       -2.119065   -1.168541    0.024705
     20          6           0       -2.855903   -1.765188   -1.002734
     21          1           0       -4.610464   -1.653064   -2.253837
     22          1           0       -5.425878    0.460538   -1.227569
     23          1           0       -4.114921    1.540675    0.614923
     24          1           0       -1.195761   -1.597962    0.394196
     25          1           0       -2.497195   -2.688338   -1.449018
     26          7           0       -1.830758    0.656462    1.667925
     27          8           0       -0.793712    0.103753    2.028041
     28          8           0       -2.277776    1.699398    2.140256
 ---------------------------------------------------------------------

 SCF Done:  E(RHF) =  -868.336148708     A.U. after   16 cycles
 E2 =    -0.2603284138D+01 EUMP2 =    -0.87093943284573D+03

 The electronic state is 1-A.
 Alpha  occ. eigenvalues --  -20.61319 -20.61267 -20.60368 -20.60362 -15.86343
 Alpha  occ. eigenvalues --  -15.85423 -11.31950 -11.30781 -11.28553 -11.28504
 Alpha  occ. eigenvalues --  -11.28261 -11.27592 -11.27537 -11.27461 -11.27342
 Alpha  occ. eigenvalues --  -11.27123 -11.26366 -11.26354  -1.60360  -1.59435
 Alpha  occ. eigenvalues --   -1.39908  -1.38993  -1.20153  -1.18954  -1.09471
 Alpha  occ. eigenvalues --   -1.08355  -1.05590  -1.04388  -0.96275  -0.95201
 Alpha  occ. eigenvalues --   -0.86947  -0.85795  -0.83096  -0.82061  -0.78134
 Alpha  occ. eigenvalues --   -0.77096  -0.72558  -0.71698  -0.71657  -0.71216
 Alpha  occ. eigenvalues --   -0.70739  -0.70119  -0.65769  -0.65546  -0.64637
 Alpha  occ. eigenvalues --   -0.64451  -0.62950  -0.61739  -0.56010  -0.54934
 Alpha  occ. eigenvalues --   -0.53955  -0.53629  -0.52659  -0.52430  -0.49337
 Alpha  occ. eigenvalues --   -0.49306  -0.48408  -0.48400  -0.45260  -0.44402
 Alpha  occ. eigenvalues --   -0.38133  -0.37224  -0.36897  -0.35880
 Alpha virt. eigenvalues --    0.04337   0.05493   0.10377   0.11702   0.15814
 Alpha virt. eigenvalues --    0.16978   0.20017   0.21976   0.25207   0.27178
 Alpha virt. eigenvalues --    0.28023   0.29314   0.30308   0.30951   0.31900

 Mulliken charges:
               1
     1  C   -0.170132
     2  C   -0.223951
     3  C   -0.160619
     4  C    0.161145
     5  C   -0.169384
     6  C   -0.216933
     7  H    0.223552
     8  H    0.222387
     9  H    0.265220
    10  H    0.275347
    11  H    0.222589
    12  N    0.489096
    13  O   -0.460530
    14  O   -0.462541
    15  C   -0.171394
    16  C   -0.218719
    17  C   -0.171722
    18  C    0.161004
    19  C   -0.186328
    20  C   -0.221999
    21  H    0.228698
    22  H    0.226147
    23  H    0.277814
    24  H    0.280397
    25  H    0.227163
    26  N    0.488300
    27  O   -0.454944
    28  O   -0.459662
 Sum of Mulliken charges =  -0.00000

 Dipole moment (field-independent basis, Debye):
    X=             -5.8481    Y=              1.2149    Z=             -6.2329  Tot=              8.6328
 Quadrupole moment (field-independent basis, Debye-Ang):
   XX=           -102.8499   YY=           -101.0236   ZZ=           -109.3730
   XY=             16.1328   XZ=              2.1993   YZ=             -1.6987

 Normal termination of Gaussian 16 at Thu May  6 12:55:06 2021.
