 Gaussian 16, Revision A.03,
 Gaussian 16:  EM64L-G16RevA.03 25-Dec-2016

 -------------
 #p 6-31g* mp2
 -------------

 ------------------------------------------------------
 Input file generated by CHIRIPA (05-May-2021 14:57:22)
 ------------------------------------------------------
 Symbolic Z-matrix:
 Charge =  0 Multiplicity = 1

                         Standard orientation:
 ---------------------------------------------------------------------
 Center     Atomic      Atomic             Coordinates (Angstroms)
 Number     Number       Type             X           Y           Z
 ---------------------------------------------------------------------
      1          6           0        1.119941   -1.054835    0.379534
      2          6           0        2.252688   -1.847441    0.592090
      3          6           0        3.532718   -1.330116    0.371987
      4          6           0        3.643755   -0.010188   -0.062467
      5          6           0        2.534385    0.804595   -0.283189
      6          6           0        1.264150    0.266324   -0.056658
      7          1           0        0.129387   -1.464841    0.553012
      8          1           0        2.143712   -2.873806    0.930829
      9          1           0        4.426608   -1.921587    0.528645
     10          1           0        2.674831    1.824193   -0.620993
     11          1           0        0.386221    0.884193   -0.222559
     12          7           0        4.993681    0.548567   -0.298883
     13          8           0        5.064645    1.714408   -0.681527
     14          8           0        5.955227   -0.189901   -0.097065
     15          6           0       -3.352500    2.574730    0.521672
     16          6           0       -4.001350    2.109887   -0.626995
     17          6           0       -4.045695    0.742129   -0.913035
     18          6           0       -3.427920   -0.136750   -0.024658
     19          6           0       -2.773673    0.295524    1.127901
     20          6           0       -2.741809    1.667665    1.393916
     21          1           0       -3.322899    3.638940    0.736098
     22          1           0       -4.476484    2.812028   -1.306179
     23          1           0       -4.541149    0.355032   -1.795135
     24          1           0       -2.309130   -0.428625    1.786098
     25          1           0       -2.237184    2.025814    2.286736
     26          7           0       -3.468259   -1.587053   -0.316877
     27          8           0       -2.916321   -2.340898    0.481697
     28          8           0       -4.051052   -1.942496   -1.338957
 ---------------------------------------------------------------------

 SCF Done:  E(RHF) =  -868.339497879     A.U. after   16 cycles
 E2 =    -0.2600167694D+01 EUMP2 =    -0.87093966557380D+03

 The electronic state is 1-A.
 Alpha  occ. eigenvalues --  -20.62007 -20.61948 -20.60684 -20.60674 -15.86998
 Alpha  occ. eigenvalues --  -15.85733 -11.32318 -11.31036 -11.28909 -11.28793
 Alpha  occ. eigenvalues --  -11.28517 -11.27860 -11.27782 -11.27630 -11.27576
 Alpha  occ. eigenvalues --  -11.27213 -11.26584 -11.26522  -1.61030  -1.59759
 Alpha  occ. eigenvalues --   -1.40589  -1.39315  -1.20469  -1.19193  -1.09854
 Alpha  occ. eigenvalues --   -1.08581  -1.05847  -1.04591  -0.96701  -0.95430
 Alpha  occ. eigenvalues --   -0.87236  -0.85979  -0.83524  -0.82270  -0.78599
 Alpha  occ. eigenvalues --   -0.77345  -0.73209  -0.72354  -0.71951  -0.71531
 Alpha  occ. eigenvalues --   -0.71083  -0.70236  -0.66099  -0.65806  -0.64835
 Alpha  occ. eigenvalues --   -0.64585  -0.63177  -0.61946  -0.56301  -0.55015
 Alpha  occ. eigenvalues --   -0.54203  -0.53894  -0.52924  -0.52654  -0.49982
 Alpha  occ. eigenvalues --   -0.49955  -0.48712  -0.48702  -0.45984  -0.44735
 Alpha  occ. eigenvalues --   -0.38424  -0.37475  -0.37131  -0.36208
 Alpha virt. eigenvalues --    0.03874   0.05189   0.10113   0.11441   0.15401
 Alpha virt. eigenvalues --    0.16690   0.20176   0.21717   0.25915   0.26922
 Alpha virt. eigenvalues --    0.27387   0.28502   0.30061   0.30822   0.32519

 Mulliken charges:
               1
     1  C   -0.180637
     2  C   -0.219349
     3  C   -0.171256
     4  C    0.158171
     5  C   -0.171718
     6  C   -0.223606
     7  H    0.237643
     8  H    0.227196
     9  H    0.275382
    10  H    0.272902
    11  H    0.222204
    12  N    0.488153
    13  O   -0.462221
    14  O   -0.460301
    15  C   -0.171671
    16  C   -0.218053
    17  C   -0.170288
    18  C    0.158137
    19  C   -0.179916
    20  C   -0.221065
    21  H    0.230403
    22  H    0.228149
    23  H    0.278935
    24  H    0.274350
    25  H    0.228399
    26  N    0.488661
    27  O   -0.465975
    28  O   -0.452627
 Sum of Mulliken charges =  -0.00000

 Dipole moment (field-independent basis, Debye):
    X=             -5.0106    Y=              3.1670    Z=              1.8014  Tot=              6.1952
 Quadrupole moment (field-independent basis, Debye-Ang):
   XX=           -138.5169   YY=           -102.3792   ZZ=           -101.9904
   XY=            -28.0968   XZ=              3.3093   YZ=             -2.2537

 Normal termination of Gaussian 16 at Fri May  7 06:22:19 2021.
