 Gaussian 16, Revision A.03,
 Gaussian 16:  EM64L-G16RevA.03 25-Dec-2016

 -------------
 #p 6-31g* mp2
 -------------

 ------------------------------------------------------
 Input file generated by CHIRIPA (05-May-2021 14:57:21)
 ------------------------------------------------------
 Symbolic Z-matrix:
 Charge =  0 Multiplicity = 1

                         Standard orientation:
 ---------------------------------------------------------------------
 Center     Atomic      Atomic             Coordinates (Angstroms)
 Number     Number       Type             X           Y           Z
 ---------------------------------------------------------------------
      1          6           0       -2.411213    2.275932    0.992754
      2          6           0       -2.228534    1.058241    1.656364
      3          6           0       -2.591801   -0.145231    1.044613
      4          6           0       -3.137397   -0.093924   -0.237176
      5          6           0       -3.331842    1.103342   -0.924224
      6          6           0       -2.961315    2.294563   -0.293155
      7          1           0       -2.126199    3.206060    1.475481
      8          1           0       -1.801548    1.040743    2.655074
      9          1           0       -2.461351   -1.102001    1.535524
     10          1           0       -3.759904    1.088873   -1.919198
     11          1           0       -3.104336    3.238763   -0.810916
     12          7           0       -3.525814   -1.361502   -0.895035
     13          8           0       -4.004442   -1.289358   -2.024791
     14          8           0       -3.344274   -2.403171   -0.268453
     15          6           0        1.542487   -0.894400    1.976672
     16          6           0        1.409819    0.396902    1.455654
     17          6           0        2.252541    0.839416    0.431667
     18          6           0        3.221382   -0.039637   -0.049897
     19          6           0        3.378383   -1.332015    0.448499
     20          6           0        2.524614   -1.753224    1.472321
     21          1           0        0.883550   -1.229880    2.772065
     22          1           0        0.647981    1.066038    1.845403
     23          1           0        2.171734    1.833960    0.010041
     24          1           0        4.147251   -1.976253    0.039577
     25          1           0        2.629941   -2.756603    1.875035
     26          7           0        4.119382    0.417554   -1.133859
     27          8           0        4.964970   -0.376134   -1.540893
     28          8           0        3.960641    1.560931   -1.555909
 ---------------------------------------------------------------------

 SCF Done:  E(RHF) =  -868.336178432     A.U. after   16 cycles
 E2 =    -0.2601450419D+01 EUMP2 =    -0.87093762885129D+03

 The electronic state is 1-A.
 Alpha  occ. eigenvalues --  -20.61324 -20.61306 -20.60930 -20.60917 -15.86379
 Alpha  occ. eigenvalues --  -15.85980 -11.31910 -11.31395 -11.28584 -11.28450
 Alpha  occ. eigenvalues --  -11.28314 -11.27978 -11.27923 -11.27769 -11.27677
 Alpha  occ. eigenvalues --  -11.27484 -11.27020 -11.26977  -1.60387  -1.59999
 Alpha  occ. eigenvalues --   -1.39938  -1.39552  -1.20117  -1.19569  -1.09489
 Alpha  occ. eigenvalues --   -1.08973  -1.05564  -1.04974  -0.96284  -0.95800
 Alpha  occ. eigenvalues --   -0.86972  -0.86381  -0.83124  -0.82627  -0.78148
 Alpha  occ. eigenvalues --   -0.77651  -0.72597  -0.72201  -0.71709  -0.71319
 Alpha  occ. eigenvalues --   -0.71224  -0.70724  -0.65780  -0.65694  -0.65230
 Alpha  occ. eigenvalues --   -0.64951  -0.62918  -0.62307  -0.56051  -0.55546
 Alpha  occ. eigenvalues --   -0.53969  -0.53680  -0.53269  -0.52967  -0.49368
 Alpha  occ. eigenvalues --   -0.49339  -0.48962  -0.48950  -0.45307  -0.44946
 Alpha  occ. eigenvalues --   -0.38115  -0.37706  -0.37105  -0.36429
 Alpha virt. eigenvalues --    0.04395   0.04882   0.10308   0.11092   0.15843
 Alpha virt. eigenvalues --    0.16338   0.19097   0.22082   0.25466   0.26423
 Alpha virt. eigenvalues --    0.28116   0.29259   0.30053   0.30724   0.32101

 Mulliken charges:
               1
     1  C   -0.173618
     2  C   -0.224544
     3  C   -0.166738
     4  C    0.159710
     5  C   -0.168448
     6  C   -0.217379
     7  H    0.226854
     8  H    0.217044
     9  H    0.273483
    10  H    0.279403
    11  H    0.227626
    12  N    0.488304
    13  O   -0.456820
    14  O   -0.460546
    15  C   -0.172951
    16  C   -0.212906
    17  C   -0.172290
    18  C    0.159582
    19  C   -0.170492
    20  C   -0.216517
    21  H    0.219906
    22  H    0.216662
    23  H    0.273743
    24  H    0.277144
    25  H    0.225650
    26  N    0.488126
    27  O   -0.458740
    28  O   -0.461246
 Sum of Mulliken charges =  -0.00000

 Dipole moment (field-independent basis, Debye):
    X=             -1.9288    Y=              2.7956    Z=              5.8752  Tot=              6.7863
 Quadrupole moment (field-independent basis, Debye-Ang):
   XX=           -132.7724   YY=           -100.6267   ZZ=           -104.3362
   XY=            -22.9482   XZ=              6.6831   YZ=             -3.9771

 Normal termination of Gaussian 16 at Thu May  6 06:27:16 2021.
