 Gaussian 16, Revision A.03,
 Gaussian 16:  EM64L-G16RevA.03 25-Dec-2016

 -------------
 #p 6-31g* mp2
 -------------

 ------------------------------------------------------
 Input file generated by CHIRIPA (05-May-2021 14:57:20)
 ------------------------------------------------------
 Symbolic Z-matrix:
 Charge =  0 Multiplicity = 1

                         Standard orientation:
 ---------------------------------------------------------------------
 Center     Atomic      Atomic             Coordinates (Angstroms)
 Number     Number       Type             X           Y           Z
 ---------------------------------------------------------------------
      1          6           0        1.234360   -1.581068    1.416507
      2          6           0        2.351879   -2.226273    0.876708
      3          6           0        3.313262   -1.503844    0.163694
      4          6           0        3.124644   -0.131349    0.008873
      5          6           0        2.021968    0.540126    0.534722
      6          6           0        1.073255   -0.202358    1.244095
      7          1           0        0.492456   -2.150058    1.968979
      8          1           0        2.479595   -3.296891    1.009037
      9          1           0        4.187880   -1.978069   -0.264759
     10          1           0        1.922045    1.608489    0.386284
     11          1           0        0.206368    0.301366    1.662203
     12          7           0        4.135710    0.644070   -0.744035
     13          8           0        3.946413    1.852297   -0.866481
     14          8           0        5.098336    0.028935   -1.197463
     15          6           0       -2.170398    2.332233    1.070330
     16          6           0       -2.334484    2.348851   -0.318670
     17          6           0       -2.770347    1.206050   -0.995852
     18          6           0       -3.034152    0.058729   -0.249292
     19          6           0       -2.880282    0.010775    1.135380
     20          6           0       -2.443339    1.165305    1.791650
     21          1           0       -1.831390    3.224545    1.588258
     22          1           0       -2.123266    3.253687   -0.881437
     23          1           0       -2.905860    1.191212   -2.070484
     24          1           0       -3.098761   -0.906137    1.669192
     25          1           0       -2.316797    1.149495    2.870437
     26          7           0       -3.496152   -1.157313   -0.955124
     27          8           0       -3.721870   -2.155499   -0.274455
     28          8           0       -3.623801   -1.089232   -2.175660
 ---------------------------------------------------------------------

 SCF Done:  E(RHF) =  -868.337320239     A.U. after   16 cycles
 E2 =    -0.2601723390D+01 EUMP2 =    -0.87093904362939D+03

 The electronic state is 1-A.
 Alpha  occ. eigenvalues --  -20.61511 -20.61483 -20.60864 -20.60847 -15.86559
 Alpha  occ. eigenvalues --  -15.85908 -11.32101 -11.31225 -11.28752 -11.28625
 Alpha  occ. eigenvalues --  -11.28453 -11.27790 -11.27778 -11.27750 -11.27649
 Alpha  occ. eigenvalues --  -11.27485 -11.26761 -11.26670  -1.60570  -1.59933
 Alpha  occ. eigenvalues --   -1.40120  -1.39489  -1.20305  -1.19374  -1.09660
 Alpha  occ. eigenvalues --   -1.08780  -1.05734  -1.04764  -0.96456  -0.95630
 Alpha  occ. eigenvalues --   -0.87106  -0.86172  -0.83281  -0.82462  -0.78302
 Alpha  occ. eigenvalues --   -0.77525  -0.72772  -0.72129  -0.71894  -0.71371
 Alpha  occ. eigenvalues --   -0.71254  -0.70499  -0.65940  -0.65704  -0.65025
 Alpha  occ. eigenvalues --   -0.64804  -0.63044  -0.62160  -0.56185  -0.55309
 Alpha  occ. eigenvalues --   -0.54172  -0.53787  -0.53089  -0.52679  -0.49545
 Alpha  occ. eigenvalues --   -0.49518  -0.48890  -0.48876  -0.45487  -0.44906
 Alpha  occ. eigenvalues --   -0.38292  -0.37461  -0.37209  -0.36355
 Alpha virt. eigenvalues --    0.04218   0.05005   0.10180   0.11291   0.15628
 Alpha virt. eigenvalues --    0.16518   0.20237   0.21804   0.26177   0.27047
 Alpha virt. eigenvalues --    0.27884   0.28640   0.29944   0.31064   0.32140

 Mulliken charges:
               1
     1  C   -0.173720
     2  C   -0.217284
     3  C   -0.171430
     4  C    0.159323
     5  C   -0.174858
     6  C   -0.221414
     7  H    0.224951
     8  H    0.225033
     9  H    0.275940
    10  H    0.270661
    11  H    0.228655
    12  N    0.488245
    13  O   -0.463035
    14  O   -0.459380
    15  C   -0.173685
    16  C   -0.217835
    17  C   -0.167773
    18  C    0.162125
    19  C   -0.172087
    20  C   -0.234541
    21  H    0.230034
    22  H    0.229878
    23  H    0.280511
    24  H    0.275151
    25  H    0.225368
    26  N    0.488182
    27  O   -0.461259
    28  O   -0.455757
 Sum of Mulliken charges =  -0.00000

 Dipole moment (field-independent basis, Debye):
    X=             -2.1912    Y=              1.5733    Z=              4.9238  Tot=              5.6143
 Quadrupole moment (field-independent basis, Debye-Ang):
   XX=           -136.5289   YY=            -99.1299   ZZ=           -103.0050
   XY=            -23.9836   XZ=             -0.0282   YZ=             -3.1297

 Normal termination of Gaussian 16 at Thu May  6 09:37:39 2021.
