 Gaussian 16, Revision A.03,
 Gaussian 16:  EM64L-G16RevA.03 25-Dec-2016

 -------------
 #p 6-31g* mp2
 -------------

 ------------------------------------------------------
 Input file generated by CHIRIPA (05-May-2021 14:51:10)
 ------------------------------------------------------
 Symbolic Z-matrix:
 Charge =  0 Multiplicity = 1

                         Standard orientation:
 ---------------------------------------------------------------------
 Center     Atomic      Atomic             Coordinates (Angstroms)
 Number     Number       Type             X           Y           Z
 ---------------------------------------------------------------------
      1          6           0        4.632660   -0.324351    0.205695
      2          6           0        5.769082   -0.863625   -0.663623
      3          6           0        6.542200   -1.997425    0.010604
      4          1           0        5.045766    0.028728    1.160485
      5          1           0        3.944037   -1.145701    0.447723
      6          1           0        6.454613   -0.041216   -0.905087
      7          1           0        5.353247   -1.215286   -1.616530
      8          1           0        5.876311   -2.836493    0.236782
      9          1           0        6.983935   -1.655752    0.952268
     10          1           0        7.349905   -2.367976   -0.628274
     11          6           0        3.850465    0.809575   -0.454690
     12          6           0        2.714043    1.348849    0.414629
     13          6           0        1.940925    2.482649   -0.259598
     14          1           0        4.539088    1.630925   -0.696717
     15          1           0        3.437359    0.456496   -1.409479
     16          1           0        3.129878    1.700510    1.367536
     17          1           0        2.028512    0.526440    0.656093
     18          1           0        1.499190    2.140976   -1.201262
     19          1           0        2.606814    3.321717   -0.485776
     20          1           0        1.133220    2.853200    0.379280
     21          6           0       -3.591169   -0.537432    0.395609
     22          6           0       -2.431992    0.459641    0.407388
     23          6           0       -1.137708   -0.144954    0.952445
     24          1           0       -3.758911   -0.907056    1.416484
     25          1           0       -3.309235   -1.409693   -0.210252
     26          1           0       -2.716554    1.330385    1.011911
     27          1           0       -2.267115    0.827080   -0.613602
     28          1           0       -0.826982   -1.001360    0.345304
     29          1           0       -1.278973   -0.495196    1.980051
     30          1           0       -0.322226    0.585011    0.951899
     31          6           0       -4.891956    0.052207   -0.146615
     32          6           0       -6.051133   -0.944866   -0.158394
     33          6           0       -7.345418   -0.340269   -0.703450
     34          1           0       -5.173890    0.924469    0.459246
     35          1           0       -4.724215    0.421833   -1.167490
     36          1           0       -6.216010   -1.312304    0.862595
     37          1           0       -5.766572   -1.815608   -0.762917
     38          1           0       -7.204151    0.009972   -1.731058
     39          1           0       -7.656143    0.516136   -0.096310
     40          1           0       -8.160898   -1.070234   -0.702906
 ---------------------------------------------------------------------

 SCF Done:  E(RHF) =  -470.733052293     A.U. after   11 cycles
 E2 =    -0.1582720284D+01 EUMP2 =    -0.47231577257635D+03

 The electronic state is 1-A.
 Alpha  occ. eigenvalues --  -11.21600 -11.21595 -11.21585 -11.21552 -11.21401
 Alpha  occ. eigenvalues --  -11.21382 -11.21342 -11.21323 -11.21085 -11.21070
 Alpha  occ. eigenvalues --  -11.21057 -11.21036  -1.08432  -1.08405  -1.03560
 Alpha  occ. eigenvalues --   -1.03487  -0.96026  -0.95926  -0.87004  -0.86980
 Alpha  occ. eigenvalues --   -0.79643  -0.79531  -0.78249  -0.78212  -0.65073
 Alpha  occ. eigenvalues --   -0.65037  -0.61010  -0.60897  -0.59564  -0.59144
 Alpha  occ. eigenvalues --   -0.57739  -0.57406  -0.55299  -0.55222  -0.52756
 Alpha  occ. eigenvalues --   -0.52589  -0.52444  -0.52313  -0.49930  -0.49898
 Alpha  occ. eigenvalues --   -0.47924  -0.47882  -0.46657  -0.46574  -0.45783
 Alpha  occ. eigenvalues --   -0.45764  -0.45716  -0.45680  -0.43782  -0.43716
 Alpha virt. eigenvalues --    0.21663   0.23069   0.23439   0.25219   0.26423
 Alpha virt. eigenvalues --    0.26682   0.27000   0.27209   0.27820   0.28923
 Alpha virt. eigenvalues --    0.30800   0.30999   0.31442   0.31634   0.32172

 Mulliken charges:
               1
     1  C   -0.298453
     2  C   -0.299635
     3  C   -0.475702
     4  H    0.149624
     5  H    0.149947
     6  H    0.151862
     7  H    0.151846
     8  H    0.155218
     9  H    0.155171
    10  H    0.160168
    11  C   -0.297629
    12  C   -0.305959
    13  C   -0.477178
    14  H    0.149292
    15  H    0.149486
    16  H    0.151782
    17  H    0.158003
    18  H    0.155605
    19  H    0.155794
    20  H    0.160096
    21  C   -0.298504
    22  C   -0.299024
    23  C   -0.484541
    24  H    0.149623
    25  H    0.149345
    26  H    0.151722
    27  H    0.152117
    28  H    0.154049
    29  H    0.155047
    30  H    0.170778
    31  C   -0.298229
    32  C   -0.299615
    33  C   -0.475697
    34  H    0.149541
    35  H    0.149642
    36  H    0.151931
    37  H    0.151868
    38  H    0.155178
    39  H    0.155198
    40  H    0.160234
 Sum of Mulliken charges =  -0.00000

 Dipole moment (field-independent basis, Debye):
    X=              0.0039    Y=              0.0057    Z=              0.0045  Tot=              0.0082
 Quadrupole moment (field-independent basis, Debye-Ang):
   XX=            -85.8598   YY=            -85.0366   ZZ=            -83.9691
   XY=              1.1730   XZ=             -0.5706   YZ=              0.9809

 Normal termination of Gaussian 16 at Wed May  5 23:03:09 2021.
