 Gaussian 16, Revision A.03,
 Gaussian 16:  EM64L-G16RevA.03 25-Dec-2016

 -------------
 #p 6-31g* mp2
 -------------

 ------------------------------------------------------
 Input file generated by CHIRIPA (05-May-2021 14:53:14)
 ------------------------------------------------------
 Symbolic Z-matrix:
 Charge =  0 Multiplicity = 1

                         Standard orientation:
 ---------------------------------------------------------------------
 Center     Atomic      Atomic             Coordinates (Angstroms)
 Number     Number       Type             X           Y           Z
 ---------------------------------------------------------------------
      1          6           0        3.381387   -0.373132    0.656916
      2          6           0        2.608144   -1.658437    0.360148
      3          6           0        1.426670   -1.869633    1.307412
      4          1           0        3.741770   -0.400820    1.694366
      5          1           0        2.696347    0.483133    0.586738
      6          1           0        3.294744   -2.511893    0.429507
      7          1           0        2.249723   -1.627772   -0.676776
      8          1           0        0.719456   -1.037244    1.232736
      9          1           0        1.770414   -1.926388    2.345304
     10          1           0        0.887975   -2.794168    1.077405
     11          6           0        4.565465   -0.148056   -0.281715
     12          6           0        5.338708    1.137249    0.015054
     13          6           0        6.520182    1.348445   -0.932211
     14          1           0        5.250505   -1.004321   -0.211537
     15          1           0        4.205081   -0.120369   -1.319165
     16          1           0        5.697129    1.106583    1.051977
     17          1           0        4.652108    1.990704   -0.054306
     18          1           0        6.176438    1.405200   -1.970103
     19          1           0        7.227396    0.516055   -0.857535
     20          1           0        7.058877    2.272980   -0.702204
     21          6           0       -2.818562   -2.250267   -0.659304
     22          6           0       -1.695083   -1.428342   -0.522350
     23          6           0       -1.841454   -0.067299   -0.238301
     24          6           0       -3.131857    0.440819   -0.096993
     25          6           0       -4.270764   -0.352355   -0.227593
     26          6           0       -4.100557   -1.710601   -0.511748
     27          1           0       -2.695599   -3.306472   -0.880000
     28          1           0       -0.698256   -1.844720   -0.636416
     29          1           0       -0.988951    0.591712   -0.127116
     30          1           0       -5.251664    0.091523   -0.108328
     31          1           0       -4.974873   -2.346539   -0.617566
     32          7           0       -3.299431    1.880214    0.203773
     33          8           0       -4.447072    2.303541    0.323571
     34          8           0       -2.279961    2.557831    0.314020
 ---------------------------------------------------------------------

 SCF Done:  E(RHF) =  -669.534382789     A.U. after   15 cycles
 E2 =    -0.2092350049D+01 EUMP2 =    -0.67162673283741D+03

 The electronic state is 1-A.
 Alpha  occ. eigenvalues --  -20.60748 -20.60742 -15.85799 -11.31158 -11.27704
 Alpha  occ. eigenvalues --  -11.27700 -11.27427 -11.26736 -11.26644 -11.22419
 Alpha  occ. eigenvalues --  -11.21970 -11.21923 -11.21833 -11.21748 -11.21242
 Alpha  occ. eigenvalues --   -1.59822  -1.39376  -1.19316  -1.08942  -1.08710
 Alpha  occ. eigenvalues --   -1.04732  -1.04058  -0.96519  -0.95553  -0.87545
 Alpha  occ. eigenvalues --   -0.86107  -0.82390  -0.80138  -0.78696  -0.77440
 Alpha  occ. eigenvalues --   -0.72018  -0.71144  -0.70432  -0.65626  -0.64966
 Alpha  occ. eigenvalues --   -0.64738  -0.62262  -0.61291  -0.59904  -0.58103
 Alpha  occ. eigenvalues --   -0.55826  -0.55183  -0.53329  -0.53074  -0.52905
 Alpha  occ. eigenvalues --   -0.52650  -0.50423  -0.48776  -0.48771  -0.48439
 Alpha  occ. eigenvalues --   -0.47176  -0.46244  -0.46142  -0.44784  -0.44296
 Alpha  occ. eigenvalues --   -0.37292  -0.36280
 Alpha virt. eigenvalues --    0.05066   0.11305   0.16507   0.19477   0.22867
 Alpha virt. eigenvalues --    0.23920   0.25331   0.26131   0.27211   0.28111
 Alpha virt. eigenvalues --    0.29443   0.30135   0.30764   0.31373   0.31914

 Mulliken charges:
               1
     1  C   -0.298761
     2  C   -0.303986
     3  C   -0.483331
     4  H    0.153037
     5  H    0.150898
     6  H    0.155784
     7  H    0.146826
     8  H    0.155878
     9  H    0.163906
    10  H    0.154578
    11  C   -0.298678
    12  C   -0.300598
    13  C   -0.476073
    14  H    0.149950
    15  H    0.149430
    16  H    0.152930
    17  H    0.154772
    18  H    0.155533
    19  H    0.154922
    20  H    0.162085
    21  C   -0.173331
    22  C   -0.218603
    23  C   -0.175217
    24  C    0.158602
    25  C   -0.171660
    26  C   -0.218023
    27  H    0.225329
    28  H    0.234062
    29  H    0.274212
    30  H    0.275362
    31  H    0.223205
    32  N    0.488283
    33  O   -0.460397
    34  O   -0.460927
 Sum of Mulliken charges =  -0.00000

 Dipole moment (field-independent basis, Debye):
    X=              0.7603    Y=             -5.0523    Z=             -0.9922  Tot=              5.2046
 Quadrupole moment (field-independent basis, Debye-Ang):
   XX=            -93.2480   YY=            -99.6691   ZZ=            -95.2707
   XY=             16.5546   XZ=              4.3923   YZ=             -0.1881

 Normal termination of Gaussian 16 at Wed May  5 21:50:45 2021.
