 Gaussian 16, Revision A.03,
 Gaussian 16:  EM64L-G16RevA.03 25-Dec-2016

 -------------
 #p 6-31g* mp2
 -------------

 ------------------------------------------------------
 Input file generated by CHIRIPA (05-May-2021 14:55:22)
 ------------------------------------------------------
 Symbolic Z-matrix:
 Charge =  0 Multiplicity = 1

                         Standard orientation:
 ---------------------------------------------------------------------
 Center     Atomic      Atomic             Coordinates (Angstroms)
 Number     Number       Type             X           Y           Z
 ---------------------------------------------------------------------
      1          6           0       -1.160833   -0.974494    0.173202
      2          6           0       -1.491713    0.299946   -0.298860
      3          6           0       -2.829660    0.686789   -0.420506
      4          6           0       -3.815656   -0.230134   -0.059462
      5          6           0       -3.517897   -1.506997    0.414088
      6          6           0       -2.173197   -1.872315    0.527545
      7          1           0       -0.118861   -1.266642    0.264518
      8          1           0       -0.707593    0.999278   -0.574788
      9          1           0       -3.113967    1.667147   -0.783117
     10          1           0       -4.321617   -2.182293    0.681346
     11          1           0       -1.919182   -2.862719    0.894453
     12          7           0       -5.235656    0.168006   -0.183908
     13          8           0       -6.085687   -0.658237    0.140757
     14          8           0       -5.471732    1.298772   -0.603758
     15          6           0        5.295905    0.193580   -0.157710
     16          6           0        5.574296   -1.308649   -0.096126
     17          6           0        7.001674   -1.662976   -0.514262
     18          1           0        5.479965    0.552560   -1.179571
     19          1           0        6.010189    0.718708    0.491470
     20          1           0        4.858811   -1.830906   -0.744157
     21          1           0        5.389367   -1.664130    0.925662
     22          1           0        7.728308   -1.168155    0.138237
     23          1           0        7.194737   -1.335878   -1.541070
     24          1           0        7.178982   -2.741762   -0.462853
     25          6           0        3.873050    0.563545    0.257427
     26          6           0        3.594660    2.065774    0.195843
     27          6           0        2.167283    2.420102    0.613979
     28          1           0        3.158767    0.038418   -0.391753
     29          1           0        3.688990    0.204565    1.279289
     30          1           0        3.779589    2.421255   -0.825945
     31          1           0        4.310145    2.588031    0.843875
     32          1           0        1.974218    2.093004    1.640787
     33          1           0        1.440648    1.925280   -0.038520
     34          1           0        1.989974    3.498887    0.562570
 ---------------------------------------------------------------------

 SCF Done:  E(RHF) =  -669.535523054     A.U. after   15 cycles
 E2 =    -0.2090949207D+01 EUMP2 =    -0.67162647226143D+03

 The electronic state is 1-A.
 Alpha  occ. eigenvalues --  -20.60716 -20.60711 -15.85769 -11.31125 -11.27696
 Alpha  occ. eigenvalues --  -11.27686 -11.27426 -11.26710 -11.26678 -11.22508
 Alpha  occ. eigenvalues --  -11.22334 -11.22292 -11.22177 -11.22117 -11.21631
 Alpha  occ. eigenvalues --   -1.59792  -1.39346  -1.19296  -1.09263  -1.08692
 Alpha  occ. eigenvalues --   -1.04700  -1.04346  -0.96810  -0.95528  -0.87828
 Alpha  occ. eigenvalues --   -0.86099  -0.82362  -0.80418  -0.79074  -0.77413
 Alpha  occ. eigenvalues --   -0.71988  -0.71115  -0.70401  -0.65898  -0.64948
 Alpha  occ. eigenvalues --   -0.64727  -0.62106  -0.61697  -0.60172  -0.58409
 Alpha  occ. eigenvalues --   -0.56122  -0.55191  -0.53484  -0.53295  -0.53024
 Alpha  occ. eigenvalues --   -0.52744  -0.50738  -0.48785  -0.48743  -0.48685
 Alpha  occ. eigenvalues --   -0.47442  -0.46615  -0.46526  -0.44754  -0.44598
 Alpha  occ. eigenvalues --   -0.37275  -0.36301
 Alpha virt. eigenvalues --    0.05124   0.11336   0.16618   0.19330   0.22405
 Alpha virt. eigenvalues --    0.23760   0.25138   0.25913   0.26350   0.28112
 Alpha virt. eigenvalues --    0.28984   0.29803   0.30934   0.31313   0.31709

 Mulliken charges:
               1
     1  C   -0.173601
     2  C   -0.223336
     3  C   -0.172430
     4  C    0.158858
     5  C   -0.171266
     6  C   -0.218674
     7  H    0.226550
     8  H    0.231683
     9  H    0.275966
    10  H    0.275345
    11  H    0.223199
    12  N    0.487981
    13  O   -0.460680
    14  O   -0.460502
    15  C   -0.298667
    16  C   -0.300113
    17  C   -0.476105
    18  H    0.151548
    19  H    0.152166
    20  H    0.150314
    21  H    0.151907
    22  H    0.156648
    23  H    0.156404
    24  H    0.161586
    25  C   -0.298513
    26  C   -0.299858
    27  C   -0.479563
    28  H    0.142712
    29  H    0.149921
    30  H    0.154445
    31  H    0.156383
    32  H    0.158745
    33  H    0.145015
    34  H    0.165933
 Sum of Mulliken charges =  -0.00000

 Dipole moment (field-independent basis, Debye):
    X=              5.2545    Y=             -1.3379    Z=              0.4808  Tot=              5.4434
 Quadrupole moment (field-independent basis, Debye-Ang):
   XX=           -133.0964   YY=            -90.0925   ZZ=            -94.1138
   XY=              6.3412   XZ=             -1.8925   YZ=             -1.7566

 Normal termination of Gaussian 16 at Wed May  5 20:38:56 2021.
