 Gaussian 16, Revision A.03,
 Gaussian 16:  EM64L-G16RevA.03 25-Dec-2016

 -------------
 #p 6-31g* mp2
 -------------

 ------------------------------------------------------
 Input file generated by CHIRIPA (05-May-2021 14:55:24)
 ------------------------------------------------------
 Symbolic Z-matrix:
 Charge =  0 Multiplicity = 1

                         Standard orientation:
 ---------------------------------------------------------------------
 Center     Atomic      Atomic             Coordinates (Angstroms)
 Number     Number       Type             X           Y           Z
 ---------------------------------------------------------------------
      1          6           0       -4.169298    2.055069    0.150265
      2          6           0       -4.718128    0.931541   -0.476626
      3          6           0       -3.998876   -0.265323   -0.545489
      4          6           0       -2.727797   -0.303498    0.025644
      5          6           0       -2.153766    0.798827    0.657038
      6          6           0       -2.891122    1.985249    0.714102
      7          1           0       -4.735062    2.980765    0.199176
      8          1           0       -5.710554    0.982861   -0.915376
      9          1           0       -4.399744   -1.150186   -1.024800
     10          1           0       -1.162127    0.717079    1.085276
     11          1           0       -2.462376    2.856216    1.201583
     12          7           0       -1.956774   -1.565036   -0.041013
     13          8           0       -0.838928   -1.572843    0.469864
     14          8           0       -2.484893   -2.522137   -0.602873
     15          6           0        3.407534    0.837282    0.060042
     16          6           0        4.369097    1.897393   -0.478051
     17          6           0        3.861683    3.322639   -0.256696
     18          1           0        2.429109    0.959082   -0.424514
     19          1           0        3.248031    1.008090    1.133717
     20          1           0        4.527820    1.723801   -1.550100
     21          1           0        5.345402    1.772934    0.007702
     22          1           0        3.720738    3.519923    0.810924
     23          1           0        2.898511    3.470513   -0.755729
     24          1           0        4.564396    4.064417   -0.648895
     25          6           0        3.900937   -0.592595   -0.153814
     26          6           0        2.939373   -1.652707    0.384279
     27          6           0        3.446787   -3.077953    0.162925
     28          1           0        4.060439   -0.763403   -1.227489
     29          1           0        4.879362   -0.714396    0.330743
     30          1           0        1.963069   -1.528247   -0.101474
     31          1           0        2.780650   -1.479116    1.456328
     32          1           0        4.409960   -3.225826    0.661956
     33          1           0        3.587734   -3.275237   -0.904696
     34          1           0        2.744075   -3.819731    0.555124
 ---------------------------------------------------------------------

 SCF Done:  E(RHF) =  -669.536046645     A.U. after   15 cycles
 E2 =    -0.2090996793D+01 EUMP2 =    -0.67162704343798D+03

 The electronic state is 1-A.
 Alpha  occ. eigenvalues --  -20.60917 -20.60908 -15.85950 -11.31272 -11.27838
 Alpha  occ. eigenvalues --  -11.27828 -11.27576 -11.26845 -11.26834 -11.21321
 Alpha  occ. eigenvalues --  -11.20986 -11.20946 -11.20628 -11.20333 -11.19962
 Alpha  occ. eigenvalues --   -1.59981  -1.39536  -1.19442  -1.08847  -1.07806
 Alpha  occ. eigenvalues --   -1.04838  -1.02843  -0.95689  -0.95352  -0.86378
 Alpha  occ. eigenvalues --   -0.86238  -0.82523  -0.78962  -0.77632  -0.77466
 Alpha  occ. eigenvalues --   -0.72170  -0.71297  -0.70550  -0.65098  -0.64840
 Alpha  occ. eigenvalues --   -0.64445  -0.62183  -0.60240  -0.58759  -0.56907
 Alpha  occ. eigenvalues --   -0.55343  -0.54670  -0.53172  -0.52928  -0.52038
 Alpha  occ. eigenvalues --   -0.51772  -0.49337  -0.48935  -0.48932  -0.47258
 Alpha  occ. eigenvalues --   -0.46023  -0.45210  -0.45057  -0.44673  -0.43112
 Alpha  occ. eigenvalues --   -0.37423  -0.36440
 Alpha virt. eigenvalues --    0.04927   0.11212   0.16404   0.21261   0.23349
 Alpha virt. eigenvalues --    0.25016   0.26710   0.27337   0.27644   0.28491
 Alpha virt. eigenvalues --    0.28961   0.31026   0.32027   0.32110   0.32859

 Mulliken charges:
               1
     1  C   -0.170640
     2  C   -0.218607
     3  C   -0.170786
     4  C    0.157688
     5  C   -0.171436
     6  C   -0.218634
     7  H    0.225965
     8  H    0.223719
     9  H    0.275741
    10  H    0.276733
    11  H    0.224128
    12  N    0.491039
    13  O   -0.462489
    14  O   -0.459308
    15  C   -0.296978
    16  C   -0.298796
    17  C   -0.475170
    18  H    0.147660
    19  H    0.146514
    20  H    0.152030
    21  H    0.151910
    22  H    0.153016
    23  H    0.152086
    24  H    0.159555
    25  C   -0.298237
    26  C   -0.305313
    27  C   -0.475642
    28  H    0.147628
    29  H    0.146178
    30  H    0.174575
    31  H    0.148489
    32  H    0.148607
    33  H    0.152171
    34  H    0.166602
 Sum of Mulliken charges =  -0.00000

 Dipole moment (field-independent basis, Debye):
    X=             -2.9640    Y=              4.3399    Z=              0.2261  Tot=              5.2603
 Quadrupole moment (field-independent basis, Debye-Ang):
   XX=            -78.0683   YY=            -98.3811   ZZ=            -93.4869
   XY=             -9.4657   XZ=              1.8769   YZ=              1.2779

 Normal termination of Gaussian 16 at Thu May  6 09:28:35 2021.
