 Gaussian 16, Revision A.03,
 Gaussian 16:  EM64L-G16RevA.03 25-Dec-2016

 -------------
 #p 6-31g* mp2
 -------------

 ------------------------------------------------------
 Input file generated by CHIRIPA (05-May-2021 14:51:10)
 ------------------------------------------------------
 Symbolic Z-matrix:
 Charge =  0 Multiplicity = 1

                         Standard orientation:
 ---------------------------------------------------------------------
 Center     Atomic      Atomic             Coordinates (Angstroms)
 Number     Number       Type             X           Y           Z
 ---------------------------------------------------------------------
      1          6           0       -3.375636    0.363436   -0.587842
      2          6           0       -3.819173   -1.007916   -0.077301
      3          6           0       -4.811088   -1.695652   -1.015874
      4          1           0       -4.259874    1.001729   -0.720695
      5          1           0       -2.921547    0.247647   -1.581719
      6          1           0       -4.271040   -0.889757    0.915912
      7          1           0       -2.933759   -1.642957    0.054535
      8          1           0       -4.366576   -1.842625   -2.005525
      9          1           0       -5.711455   -1.085146   -1.139253
     10          1           0       -5.114870   -2.674404   -0.631658
     11          6           0       -2.383941    1.063462    0.339644
     12          6           0       -1.940403    2.434814   -0.170897
     13          6           0       -0.948489    3.122550    0.767676
     14          1           0       -2.838030    1.179251    1.333521
     15          1           0       -1.499703    0.425168    0.472497
     16          1           0       -2.825818    3.069855   -0.302733
     17          1           0       -1.488537    2.316655   -1.164110
     18          1           0       -0.048122    2.512044    0.891055
     19          1           0       -1.393001    3.269523    1.757326
     20          1           0       -0.644707    4.101302    0.383460
     21          6           0        3.397389   -0.152679    0.156650
     22          6           0        4.517693   -0.301020   -0.873348
     23          6           0        5.545392    0.828410   -0.795780
     24          1           0        2.895267    0.812843    0.006362
     25          1           0        3.836122   -0.123424    1.163651
     26          1           0        4.076870   -0.331377   -1.878023
     27          1           0        5.017082   -1.266384   -0.720714
     28          1           0        6.012207    0.857179    0.194099
     29          1           0        5.066653    1.797499   -0.969786
     30          1           0        6.337233    0.702549   -1.540767
     31          6           0        2.362189   -1.274219    0.091549
     32          6           0        1.241883   -1.125878    1.121547
     33          6           0        0.214185   -2.255308    1.043977
     34          1           0        1.923455   -1.303474   -0.915453
     35          1           0        2.864310   -2.239741    0.241836
     36          1           0        0.742494   -0.160513    0.968912
     37          1           0        1.682707   -1.095521    2.126220
     38          1           0        0.692925   -3.224396    1.217983
     39          1           0       -0.252630   -2.284075    0.054099
     40          1           0       -0.577656   -2.129448    1.788965
 ---------------------------------------------------------------------

 SCF Done:  E(RHF) =  -470.732897128     A.U. after   11 cycles
 E2 =    -0.1584228135D+01 EUMP2 =    -0.47231712526378D+03

 The electronic state is 1-A.
 Alpha  occ. eigenvalues --  -11.21666 -11.21637 -11.21611 -11.21534 -11.21462
 Alpha  occ. eigenvalues --  -11.21402 -11.21371 -11.21308 -11.21149 -11.21100
 Alpha  occ. eigenvalues --  -11.21093 -11.21036  -1.08502  -1.08401  -1.03592
 Alpha  occ. eigenvalues --   -1.03515  -0.96045  -0.95961  -0.87056  -0.86982
 Alpha  occ. eigenvalues --   -0.79706  -0.79529  -0.78338  -0.78195  -0.65320
 Alpha  occ. eigenvalues --   -0.64891  -0.61025  -0.60887  -0.59403  -0.59336
 Alpha  occ. eigenvalues --   -0.57674  -0.57550  -0.55394  -0.55202  -0.52754
 Alpha  occ. eigenvalues --   -0.52641  -0.52467  -0.52381  -0.50036  -0.49878
 Alpha  occ. eigenvalues --   -0.48045  -0.47876  -0.46921  -0.46420  -0.46032
 Alpha  occ. eigenvalues --   -0.45778  -0.45729  -0.45328  -0.43833  -0.43762
 Alpha virt. eigenvalues --    0.20055   0.22535   0.23609   0.24164   0.25789
 Alpha virt. eigenvalues --    0.26591   0.27020   0.27229   0.28676   0.30033
 Alpha virt. eigenvalues --    0.30557   0.31411   0.31591   0.32049   0.32295

 Mulliken charges:
               1
     1  C   -0.297124
     2  C   -0.305097
     3  C   -0.475479
     4  H    0.149516
     5  H    0.148537
     6  H    0.151396
     7  H    0.158097
     8  H    0.154737
     9  H    0.154966
    10  H    0.160249
    11  C   -0.308767
    12  C   -0.299151
    13  C   -0.479032
    14  H    0.149205
    15  H    0.160999
    16  H    0.152199
    17  H    0.151104
    18  H    0.157115
    19  H    0.155661
    20  H    0.160395
    21  C   -0.298949
    22  C   -0.299675
    23  C   -0.475793
    24  H    0.149736
    25  H    0.149916
    26  H    0.151910
    27  H    0.152104
    28  H    0.155309
    29  H    0.155399
    30  H    0.160357
    31  C   -0.297821
    32  C   -0.309157
    33  C   -0.478829
    34  H    0.149168
    35  H    0.150091
    36  H    0.158936
    37  H    0.152932
    38  H    0.156061
    39  H    0.155885
    40  H    0.162891
 Sum of Mulliken charges =  -0.00000

 Dipole moment (field-independent basis, Debye):
    X=              0.0386    Y=             -0.0267    Z=              0.0291  Tot=              0.0552
 Quadrupole moment (field-independent basis, Debye-Ang):
   XX=            -85.1551   YY=            -85.2289   ZZ=            -84.4010
   XY=             -1.7099   XZ=             -0.4172   YZ=             -0.4878

 Normal termination of Gaussian 16 at Thu May  6 05:22:51 2021.
