 Gaussian 16, Revision A.03,
 Gaussian 16:  EM64L-G16RevA.03 25-Dec-2016

 -------------
 #p 6-31g* mp2
 -------------

 ------------------------------------------------------
 Input file generated by CHIRIPA (05-May-2021 14:51:07)
 ------------------------------------------------------
 Symbolic Z-matrix:
 Charge =  0 Multiplicity = 1

                         Standard orientation:
 ---------------------------------------------------------------------
 Center     Atomic      Atomic             Coordinates (Angstroms)
 Number     Number       Type             X           Y           Z
 ---------------------------------------------------------------------
      1          6           0       -4.099528   -0.509389    0.067228
      2          6           0       -3.145472   -1.683717   -0.153485
      3          6           0       -3.836071   -3.040706   -0.014025
      4          1           0       -4.548651   -0.592883    1.066358
      5          1           0       -4.926060   -0.577017   -0.653651
      6          1           0       -2.320253   -1.613126    0.566686
      7          1           0       -2.698423   -1.597314   -1.152133
      8          1           0       -4.647645   -3.136615   -0.742551
      9          1           0       -4.267326   -3.152517    0.986034
     10          1           0       -3.135737   -3.866086   -0.175704
     11          6           0       -3.423851    0.853938   -0.068891
     12          6           0       -4.377907    2.028266    0.151821
     13          6           0       -3.687308    3.385255    0.012361
     14          1           0       -2.597319    0.921567    0.651987
     15          1           0       -2.974728    0.937432   -1.068022
     16          1           0       -4.824957    1.941863    1.150469
     17          1           0       -5.203127    1.957675   -0.568349
     18          1           0       -3.256053    3.497067   -0.987698
     19          1           0       -2.875734    3.481164    0.740887
     20          1           0       -4.387642    4.210635    0.174040
     21          6           0        4.484701   -0.234591    0.239165
     22          6           0        5.410356    0.832148   -0.346681
     23          6           0        6.853419    0.694289    0.139485
     24          1           0        4.511281   -0.171954    1.335666
     25          1           0        4.868653   -1.229278   -0.026491
     26          1           0        5.024010    1.824548   -0.081170
     27          1           0        5.381423    0.767090   -1.441920
     28          1           0        7.262000   -0.282574   -0.138727
     29          1           0        6.902555    0.780892    1.229754
     30          1           0        7.497818    1.466806   -0.291592
     31          6           0        3.038678   -0.109958   -0.237501
     32          6           0        2.113023   -1.176698    0.348345
     33          6           0        0.669960   -1.038838   -0.137822
     34          1           0        2.654727    0.884730    0.028154
     35          1           0        3.012098   -0.172596   -1.334002
     36          1           0        2.141956   -1.111639    1.443583
     37          1           0        2.499369   -2.169096    0.082834
     38          1           0        0.620824   -1.125440   -1.228090
     39          1           0        0.261379   -0.061975    0.140390
     40          1           0        0.025561   -1.811355    0.293255
 ---------------------------------------------------------------------

 SCF Done:  E(RHF) =  -470.732841355     A.U. after   11 cycles
 E2 =    -0.1582910928D+01 EUMP2 =    -0.47231575228255D+03

 The electronic state is 1-A.
 Alpha  occ. eigenvalues --  -11.21590 -11.21575 -11.21562 -11.21476 -11.21387
 Alpha  occ. eigenvalues --  -11.21353 -11.21327 -11.21292 -11.21063 -11.21058
 Alpha  occ. eigenvalues --  -11.21021 -11.20988  -1.08415  -1.08373  -1.03526
 Alpha  occ. eigenvalues --   -1.03463  -0.95962  -0.95932  -0.87010  -0.86921
 Alpha  occ. eigenvalues --   -0.79677  -0.79454  -0.78260  -0.78138  -0.65057
 Alpha  occ. eigenvalues --   -0.65000  -0.60930  -0.60872  -0.59480  -0.59171
 Alpha  occ. eigenvalues --   -0.57652  -0.57458  -0.55246  -0.55224  -0.52768
 Alpha  occ. eigenvalues --   -0.52582  -0.52384  -0.52324  -0.49907  -0.49871
 Alpha  occ. eigenvalues --   -0.47937  -0.47800  -0.46644  -0.46544  -0.45840
 Alpha  occ. eigenvalues --   -0.45726  -0.45660  -0.45597  -0.43775  -0.43630
 Alpha virt. eigenvalues --    0.22005   0.23062   0.23801   0.24503   0.25886
 Alpha virt. eigenvalues --    0.26441   0.26854   0.27264   0.27865   0.29449
 Alpha virt. eigenvalues --    0.30090   0.31017   0.31706   0.31826   0.32205

 Mulliken charges:
               1
     1  C   -0.298070
     2  C   -0.303418
     3  C   -0.475984
     4  H    0.149031
     5  H    0.149088
     6  H    0.157218
     7  H    0.152996
     8  H    0.154959
     9  H    0.154701
    10  H    0.159702
    11  C   -0.299231
    12  C   -0.299610
    13  C   -0.475617
    14  H    0.150340
    15  H    0.150096
    16  H    0.151765
    17  H    0.151931
    18  H    0.155231
    19  H    0.154755
    20  H    0.160177
    21  C   -0.298187
    22  C   -0.299599
    23  C   -0.475681
    24  H    0.149514
    25  H    0.149460
    26  H    0.151917
    27  H    0.151904
    28  H    0.155151
    29  H    0.155133
    30  H    0.160219
    31  C   -0.298506
    32  C   -0.300254
    33  C   -0.478176
    34  H    0.149457
    35  H    0.149536
    36  H    0.151340
    37  H    0.151624
    38  H    0.154680
    39  H    0.156370
    40  H    0.164036
 Sum of Mulliken charges =  -0.00000

 Dipole moment (field-independent basis, Debye):
    X=             -0.0001    Y=             -0.0030    Z=             -0.0078  Tot=              0.0083
 Quadrupole moment (field-independent basis, Debye-Ang):
   XX=            -86.2368   YY=            -85.6034   ZZ=            -83.2020
   XY=             -0.5614   XZ=             -0.1963   YZ=              0.5537

 Normal termination of Gaussian 16 at Wed May  5 15:02:30 2021.
