 Gaussian 16, Revision A.03,
 Gaussian 16:  EM64L-G16RevA.03 25-Dec-2016

 -------------
 #p 6-31g* mp2
 -------------

 ------------------------------------------------------
 Input file generated by CHIRIPA (05-May-2021 14:53:13)
 ------------------------------------------------------
 Symbolic Z-matrix:
 Charge =  0 Multiplicity = 1

                         Standard orientation:
 ---------------------------------------------------------------------
 Center     Atomic      Atomic             Coordinates (Angstroms)
 Number     Number       Type             X           Y           Z
 ---------------------------------------------------------------------
      1          6           0       -4.075259    0.580606   -0.187003
      2          6           0       -5.579866    0.768322    0.010242
      3          6           0       -5.988135    2.240244    0.077735
      4          1           0       -3.539692    1.073791    0.635726
      5          1           0       -3.767168    1.090246   -1.110443
      6          1           0       -5.885268    0.257309    0.932311
      7          1           0       -6.111920    0.274469   -0.812950
      8          1           0       -5.711506    2.759480   -0.845559
      9          1           0       -5.483566    2.742223    0.909617
     10          1           0       -7.067742    2.351342    0.219032
     11          6           0       -3.651618   -0.885489   -0.256435
     12          6           0       -2.147011   -1.073204   -0.453680
     13          6           0       -1.738743   -2.545127   -0.521172
     14          1           0       -3.959710   -1.395129    0.667006
     15          1           0       -4.187185   -1.378674   -1.079164
     16          1           0       -1.614958   -0.579351    0.369512
     17          1           0       -1.841610   -0.562192   -1.375749
     18          1           0       -2.243311   -3.047105   -1.353055
     19          1           0       -2.015371   -3.064362    0.402121
     20          1           0       -0.659135   -2.656225   -0.662470
     21          6           0        4.552557    1.982404   -0.561692
     22          6           0        3.468912    2.258250    0.278632
     23          6           0        2.612289    1.233673    0.692141
     24          6           0        2.869986   -0.061043    0.244266
     25          6           0        3.941301   -0.367638   -0.593334
     26          6           0        4.784884    0.672651   -0.994230
     27          1           0        5.212937    2.784422   -0.878017
     28          1           0        3.286058    3.274476    0.616112
     29          1           0        1.766001    1.419196    1.342367
     30          1           0        4.098021   -1.390627   -0.913256
     31          1           0        5.625685    0.455487   -1.646870
     32          7           0        1.970021   -1.154033    0.675353
     33          8           0        2.218629   -2.286267    0.266849
     34          8           0        1.033060   -0.857787    1.413580
 ---------------------------------------------------------------------

 SCF Done:  E(RHF) =  -669.536548655     A.U. after   15 cycles
 E2 =    -0.2091956504D+01 EUMP2 =    -0.67162850515906D+03

 The electronic state is 1-A.
 Alpha  occ. eigenvalues --  -20.61050 -20.61045 -15.86050 -11.31335 -11.27892
 Alpha  occ. eigenvalues --  -11.27888 -11.27624 -11.26889 -11.26879 -11.21077
 Alpha  occ. eigenvalues --  -11.20710 -11.20692 -11.20424 -11.20238 -11.19478
 Alpha  occ. eigenvalues --   -1.60086  -1.39645  -1.19497  -1.08910  -1.07582
 Alpha  occ. eigenvalues --   -1.04887  -1.02588  -0.95760  -0.95044  -0.86290
 Alpha  occ. eigenvalues --   -0.86068  -0.82596  -0.78717  -0.77659  -0.77340
 Alpha  occ. eigenvalues --   -0.72271  -0.71399  -0.70608  -0.65155  -0.64891
 Alpha  occ. eigenvalues --   -0.64218  -0.62235  -0.59981  -0.58478  -0.56633
 Alpha  occ. eigenvalues --   -0.55393  -0.54353  -0.53219  -0.52979  -0.51714
 Alpha  occ. eigenvalues --   -0.51486  -0.49068  -0.49019  -0.48956  -0.47026
 Alpha  occ. eigenvalues --   -0.45809  -0.45246  -0.44869  -0.44533  -0.42820
 Alpha  occ. eigenvalues --   -0.37472  -0.36485
 Alpha virt. eigenvalues --    0.04815   0.11171   0.16291   0.21280   0.23645
 Alpha virt. eigenvalues --    0.25333   0.27182   0.27441   0.27992   0.28522
 Alpha virt. eigenvalues --    0.28928   0.30831   0.32079   0.32339   0.32802

 Mulliken charges:
               1
     1  C   -0.297173
     2  C   -0.298868
     3  C   -0.475091
     4  H    0.148381
     5  H    0.146084
     6  H    0.151979
     7  H    0.151005
     8  H    0.153394
     9  H    0.153802
    10  H    0.158706
    11  C   -0.297269
    12  C   -0.306755
    13  C   -0.475871
    14  H    0.149573
    15  H    0.145929
    16  H    0.168433
    17  H    0.141558
    18  H    0.144549
    19  H    0.155897
    20  H    0.174153
    21  C   -0.170408
    22  C   -0.218589
    23  C   -0.170282
    24  C    0.159217
    25  C   -0.170666
    26  C   -0.218611
    27  H    0.226190
    28  H    0.224055
    29  H    0.275726
    30  H    0.275951
    31  H    0.223986
    32  N    0.488790
    33  O   -0.459257
    34  O   -0.458515
 Sum of Mulliken charges =  -0.00000

 Dipole moment (field-independent basis, Debye):
    X=              3.5414    Y=              3.8153    Z=             -1.3784  Tot=              5.3850
 Quadrupole moment (field-independent basis, Debye-Ang):
   XX=            -76.6511   YY=            -94.5554   ZZ=            -93.8776
   XY=              9.5810   XZ=             -5.5952   YZ=              2.7445

 Normal termination of Gaussian 16 at Thu May  6 12:03:19 2021.
