 Gaussian 16, Revision A.03,
 Gaussian 16:  EM64L-G16RevA.03 25-Dec-2016

 -------------
 #p 6-31g* mp2
 -------------

 ------------------------------------------------------
 Input file generated by CHIRIPA (05-May-2021 14:55:25)
 ------------------------------------------------------
 Symbolic Z-matrix:
 Charge =  0 Multiplicity = 1

                         Standard orientation:
 ---------------------------------------------------------------------
 Center     Atomic      Atomic             Coordinates (Angstroms)
 Number     Number       Type             X           Y           Z
 ---------------------------------------------------------------------
      1          6           0       -1.342408    1.142334    0.908771
      2          6           0       -2.053796    1.626518   -0.193959
      3          6           0       -3.197957    0.963449   -0.647594
      4          6           0       -3.604266   -0.186136    0.028170
      5          6           0       -2.916839   -0.693331    1.129754
      6          6           0       -1.775437   -0.014007    1.565950
      7          1           0       -0.454668    1.663735    1.254392
      8          1           0       -1.719824    2.524315   -0.706275
      9          1           0       -3.767525    1.316414   -1.498726
     10          1           0       -3.274248   -1.590742    1.619990
     11          1           0       -1.224938   -0.392323    2.422614
     12          7           0       -4.814077   -0.896701   -0.442842
     13          8           0       -5.151361   -1.907425    0.169786
     14          8           0       -5.402137   -0.429463   -1.415730
     15          6           0        4.856463   -0.375385   -0.482051
     16          6           0        5.101952   -1.678917    0.278556
     17          6           0        6.100975   -2.596148   -0.427445
     18          1           0        4.491020   -0.610322   -1.491110
     19          1           0        5.812080    0.151575   -0.610522
     20          1           0        4.145949   -2.202594    0.406765
     21          1           0        5.466671   -1.440846    1.285987
     22          1           0        7.068379   -2.096527   -0.541931
     23          1           0        5.740154   -2.862604   -1.426150
     24          1           0        6.261639   -3.522121    0.133465
     25          6           0        3.860014    0.552091    0.211207
     26          6           0        3.614526    1.855624   -0.549400
     27          6           0        2.615503    2.772854    0.156601
     28          1           0        2.904398    0.025130    0.339677
     29          1           0        4.225457    0.787029    1.220266
     30          1           0        3.249807    1.617551   -1.556831
     31          1           0        4.570528    2.379301   -0.677608
     32          1           0        2.976324    3.039310    1.155305
     33          1           0        1.648097    2.273233    0.271087
     34          1           0        2.454838    3.698827   -0.404310
 ---------------------------------------------------------------------

 SCF Done:  E(RHF) =  -669.535593772     A.U. after   15 cycles
 E2 =    -0.2090914737D+01 EUMP2 =    -0.67162650850954D+03

 The electronic state is 1-A.
 Alpha  occ. eigenvalues --  -20.60760 -20.60755 -15.85814 -11.31183 -11.27747
 Alpha  occ. eigenvalues --  -11.27743 -11.27462 -11.26763 -11.26752 -11.22436
 Alpha  occ. eigenvalues --  -11.22211 -11.22126 -11.22086 -11.21933 -11.21451
 Alpha  occ. eigenvalues --   -1.59835  -1.39389  -1.19352  -1.09103  -1.08745
 Alpha  occ. eigenvalues --   -1.04754  -1.04224  -0.96695  -0.95580  -0.87716
 Alpha  occ. eigenvalues --   -0.86149  -0.82414  -0.80299  -0.78890  -0.77460
 Alpha  occ. eigenvalues --   -0.72031  -0.71159  -0.70477  -0.65728  -0.65002
 Alpha  occ. eigenvalues --   -0.64756  -0.62101  -0.61622  -0.60071  -0.58298
 Alpha  occ. eigenvalues --   -0.56072  -0.55208  -0.53383  -0.53128  -0.53055
 Alpha  occ. eigenvalues --   -0.52842  -0.50629  -0.48794  -0.48786  -0.48603
 Alpha  occ. eigenvalues --   -0.47315  -0.46439  -0.46338  -0.44793  -0.44463
 Alpha  occ. eigenvalues --   -0.37326  -0.36360
 Alpha virt. eigenvalues --    0.05049   0.11283   0.16458   0.20097   0.22456
 Alpha virt. eigenvalues --    0.23826   0.25509   0.26320   0.26938   0.27495
 Alpha virt. eigenvalues --    0.28843   0.30497   0.30966   0.31356   0.32343

 Mulliken charges:
               1
     1  C   -0.175722
     2  C   -0.220124
     3  C   -0.171058
     4  C    0.158554
     5  C   -0.170982
     6  C   -0.219427
     7  H    0.232774
     8  H    0.223944
     9  H    0.275588
    10  H    0.275527
    11  H    0.223888
    12  N    0.488043
    13  O   -0.460430
    14  O   -0.460437
    15  C   -0.298814
    16  C   -0.300136
    17  C   -0.476107
    18  H    0.151486
    19  H    0.150957
    20  H    0.151902
    21  H    0.151853
    22  H    0.155870
    23  H    0.156425
    24  H    0.161575
    25  C   -0.298901
    26  C   -0.299180
    27  C   -0.480890
    28  H    0.147280
    29  H    0.149667
    30  H    0.154493
    31  H    0.155563
    32  H    0.157511
    33  H    0.146228
    34  H    0.163084
 Sum of Mulliken charges =  -0.00000

 Dipole moment (field-independent basis, Debye):
    X=              4.4463    Y=              2.4864    Z=              1.6152  Tot=              5.3443
 Quadrupole moment (field-independent basis, Debye-Ang):
   XX=           -125.3413   YY=            -94.0945   ZZ=            -92.2657
   XY=             -9.4220   XZ=             -4.8834   YZ=             -3.2401

 Normal termination of Gaussian 16 at Thu May  6 04:49:21 2021.
