 Gaussian 16, Revision A.03,
 Gaussian 16:  EM64L-G16RevA.03 25-Dec-2016

 -------------
 #p 6-31g* mp2
 -------------

 ------------------------------------------------------
 Input file generated by CHIRIPA (05-May-2021 14:57:23)
 ------------------------------------------------------
 Symbolic Z-matrix:
 Charge =  0 Multiplicity = 1

                         Standard orientation:
 ---------------------------------------------------------------------
 Center     Atomic      Atomic             Coordinates (Angstroms)
 Number     Number       Type             X           Y           Z
 ---------------------------------------------------------------------
      1          6           0       -1.378600    2.142477    0.527202
      2          6           0       -1.408337    1.127824    1.489550
      3          6           0       -2.319385    0.072934    1.381162
      4          6           0       -3.190203    0.064170    0.292635
      5          6           0       -3.185008    1.060384   -0.682465
      6          6           0       -2.265467    2.105584   -0.553829
      7          1           0       -0.667576    2.958177    0.619265
      8          1           0       -0.720767    1.153886    2.330153
      9          1           0       -2.363966   -0.725557    2.111807
     10          1           0       -3.882877    1.007122   -1.509243
     11          1           0       -2.244632    2.892217   -1.302707
     12          7           0       -4.159184   -1.047465    0.167171
     13          8           0       -4.915852   -1.032155   -0.801259
     14          8           0       -4.143657   -1.913027    1.039639
     15          6           0        0.816714   -0.316165   -1.521755
     16          6           0        1.403356    0.913464   -1.204921
     17          6           0        2.629710    0.963572   -0.535524
     18          6           0        3.244524   -0.240730   -0.196486
     19          6           0        2.685355   -1.481511   -0.498289
     20          6           0        1.458455   -1.507628   -1.168052
     21          1           0       -0.136159   -0.345771   -2.041901
     22          1           0        0.907244    1.840363   -1.478377
     23          1           0        3.106207    1.901684   -0.278008
     24          1           0        3.203848   -2.388708   -0.212671
     25          1           0        1.005203   -2.464024   -1.412826
     26          7           0        4.543098   -0.200383    0.512369
     27          8           0        5.064536   -1.275545    0.800066
     28          8           0        5.014897    0.905639    0.766849
 ---------------------------------------------------------------------

 SCF Done:  E(RHF) =  -868.336776195     A.U. after   16 cycles
 E2 =    -0.2602640192D+01 EUMP2 =    -0.87093941638670D+03

 The electronic state is 1-A.
 Alpha  occ. eigenvalues --  -20.61519 -20.61507 -20.61151 -20.61138 -15.86573
 Alpha  occ. eigenvalues --  -15.86202 -11.32037 -11.31575 -11.28666 -11.28550
 Alpha  occ. eigenvalues --  -11.28364 -11.28179 -11.28097 -11.27803 -11.27691
 Alpha  occ. eigenvalues --  -11.27524 -11.27186 -11.27073  -1.60594  -1.60225
 Alpha  occ. eigenvalues --   -1.40143  -1.39778  -1.20227  -1.19739  -1.09612
 Alpha  occ. eigenvalues --   -1.09107  -1.05620  -1.05157  -0.96419  -0.95951
 Alpha  occ. eigenvalues --   -0.87015  -0.86540  -0.83235  -0.82793  -0.78260
 Alpha  occ. eigenvalues --   -0.77862  -0.72781  -0.72415  -0.71932  -0.71554
 Alpha  occ. eigenvalues --   -0.71333  -0.70807  -0.65865  -0.65609  -0.65384
 Alpha  occ. eigenvalues --   -0.65157  -0.62945  -0.62516  -0.56137  -0.55603
 Alpha  occ. eigenvalues --   -0.54250  -0.53689  -0.53297  -0.53127  -0.49550
 Alpha  occ. eigenvalues --   -0.49535  -0.49179  -0.49170  -0.45526  -0.45182
 Alpha  occ. eigenvalues --   -0.38562  -0.37558  -0.37179  -0.36534
 Alpha virt. eigenvalues --    0.04182   0.04712   0.10290   0.10920   0.15634
 Alpha virt. eigenvalues --    0.16313   0.19733   0.21598   0.25805   0.26642
 Alpha virt. eigenvalues --    0.27897   0.28377   0.30188   0.30743   0.31855

 Mulliken charges:
               1
     1  C   -0.170334
     2  C   -0.213136
     3  C   -0.170667
     4  C    0.156553
     5  C   -0.175669
     6  C   -0.226685
     7  H    0.225635
     8  H    0.229336
     9  H    0.278774
    10  H    0.276964
    11  H    0.223312
    12  N    0.487527
    13  O   -0.459865
    14  O   -0.457755
    15  C   -0.167325
    16  C   -0.214711
    17  C   -0.176722
    18  C    0.158108
    19  C   -0.171365
    20  C   -0.219865
    21  H    0.228432
    22  H    0.214825
    23  H    0.272445
    24  H    0.277125
    25  H    0.227624
    26  N    0.487922
    27  O   -0.458656
    28  O   -0.461829
 Sum of Mulliken charges =  -0.00000

 Dipole moment (field-independent basis, Debye):
    X=             -1.2838    Y=              3.6092    Z=             -1.9081  Tot=              4.2797
 Quadrupole moment (field-independent basis, Debye-Ang):
   XX=           -157.2937   YY=            -98.9925   ZZ=           -100.8248
   XY=            -12.7815   XZ=             -6.1484   YZ=              0.0081

 Normal termination of Gaussian 16 at Thu May  6 19:33:59 2021.
