 Gaussian 16, Revision A.03,
 Gaussian 16:  EM64L-G16RevA.03 25-Dec-2016

 -------------
 #p 6-31g* mp2
 -------------

 ------------------------------------------------------
 Input file generated by CHIRIPA (05-May-2021 14:55:25)
 ------------------------------------------------------
 Symbolic Z-matrix:
 Charge =  0 Multiplicity = 1

                         Standard orientation:
 ---------------------------------------------------------------------
 Center     Atomic      Atomic             Coordinates (Angstroms)
 Number     Number       Type             X           Y           Z
 ---------------------------------------------------------------------
      1          6           0       -3.450219    2.614515    0.540496
      2          6           0       -2.147436    2.171476    0.289509
      3          6           0       -1.907764    0.845267   -0.082343
      4          6           0       -2.999161   -0.014749   -0.194219
      5          6           0       -4.308669    0.396632    0.049181
      6          6           0       -4.524783    1.727243    0.419744
      7          1           0       -3.627251    3.646456    0.828859
      8          1           0       -1.310993    2.858324    0.382507
      9          1           0       -0.909352    0.475784   -0.282528
     10          1           0       -5.122224   -0.311437   -0.051742
     11          1           0       -5.537606    2.068536    0.614047
     12          7           0       -2.757901   -1.421078   -0.587200
     13          8           0       -3.736522   -2.159010   -0.678824
     14          8           0       -1.594750   -1.758797   -0.796153
     15          6           0        3.217762   -0.622479    0.051839
     16          6           0        2.878505   -1.658801    1.123719
     17          6           0        1.531008   -2.339751    0.882149
     18          1           0        2.423035    0.135330    0.018960
     19          1           0        3.224207   -1.111548   -0.932114
     20          1           0        2.874061   -1.168208    2.105510
     21          1           0        3.674226   -2.414126    1.154182
     22          1           0        1.527261   -2.854570   -0.084053
     23          1           0        0.722550   -1.601573    0.872680
     24          1           0        1.308425   -3.076710    1.660100
     25          6           0        4.561881    0.066880    0.279555
     26          6           0        4.901140    1.103202   -0.792324
     27          6           0        6.248635    1.784152   -0.550756
     28          1           0        4.555437    0.555949    1.263509
     29          1           0        5.356608   -0.690929    0.312435
     30          1           0        4.105418    1.858527   -0.822788
     31          1           0        4.905583    0.612609   -1.774116
     32          1           0        7.057094    1.045973   -0.541286
     33          1           0        6.252382    2.298971    0.415448
     34          1           0        6.471219    2.521112   -1.328707
 ---------------------------------------------------------------------

 SCF Done:  E(RHF) =  -669.535540002     A.U. after   15 cycles
 E2 =    -0.2091491236D+01 EUMP2 =    -0.67162703123751D+03

 The electronic state is 1-A.
 Alpha  occ. eigenvalues --  -20.60829 -20.60819 -15.85861 -11.31237 -11.27807
 Alpha  occ. eigenvalues --  -11.27800 -11.27548 -11.26825 -11.26815 -11.21603
 Alpha  occ. eigenvalues --  -11.21294 -11.21206 -11.21125 -11.21091 -11.20154
 Alpha  occ. eigenvalues --   -1.59893  -1.39448  -1.19409  -1.08804  -1.08242
 Alpha  occ. eigenvalues --   -1.04814  -1.03241  -0.95691  -0.95606  -0.86663
 Alpha  occ. eigenvalues --   -0.86212  -0.82470  -0.79315  -0.78052  -0.77503
 Alpha  occ. eigenvalues --   -0.72084  -0.71210  -0.70518  -0.65065  -0.64901
 Alpha  occ. eigenvalues --   -0.64805  -0.62167  -0.60643  -0.59081  -0.57266
 Alpha  occ. eigenvalues --   -0.55315  -0.54948  -0.53141  -0.52908  -0.52333
 Alpha  occ. eigenvalues --   -0.52059  -0.49626  -0.48846  -0.48834  -0.47590
 Alpha  occ. eigenvalues --   -0.46375  -0.45603  -0.45500  -0.44770  -0.43517
 Alpha  occ. eigenvalues --   -0.37389  -0.36416
 Alpha virt. eigenvalues --    0.04989   0.11206   0.16479   0.20374   0.22868
 Alpha virt. eigenvalues --    0.23924   0.25801   0.27290   0.27643   0.28156
 Alpha virt. eigenvalues --    0.29177   0.30490   0.31522   0.31965   0.32370

 Mulliken charges:
               1
     1  C   -0.170614
     2  C   -0.219116
     3  C   -0.173626
     4  C    0.157832
     5  C   -0.170661
     6  C   -0.218575
     7  H    0.225775
     8  H    0.223637
     9  H    0.279173
    10  H    0.275761
    11  H    0.223649
    12  N    0.489076
    13  O   -0.459923
    14  O   -0.459876
    15  C   -0.295302
    16  C   -0.302024
    17  C   -0.473728
    18  H    0.139410
    19  H    0.153261
    20  H    0.147195
    21  H    0.150994
    22  H    0.163544
    23  H    0.158839
    24  H    0.158048
    25  C   -0.297951
    26  C   -0.298763
    27  C   -0.475510
    28  H    0.147626
    29  H    0.150998
    30  H    0.147625
    31  H    0.153358
    32  H    0.156176
    33  H    0.154142
    34  H    0.159551
 Sum of Mulliken charges =  -0.00000

 Dipole moment (field-independent basis, Debye):
    X=             -0.9777    Y=              4.8319    Z=              1.3166  Tot=              5.1027
 Quadrupole moment (field-independent basis, Debye-Ang):
   XX=            -85.6935   YY=            -94.9098   ZZ=            -96.0172
   XY=            -15.1256   XZ=             -4.8696   YZ=             -0.4520

 Normal termination of Gaussian 16 at Thu May  6 06:25:26 2021.
