 Gaussian 16, Revision A.03,
 Gaussian 16:  EM64L-G16RevA.03 25-Dec-2016

 -------------
 #p 6-31g* mp2
 -------------

 ------------------------------------------------------
 Input file generated by CHIRIPA (05-May-2021 14:51:11)
 ------------------------------------------------------
 Symbolic Z-matrix:
 Charge =  0 Multiplicity = 1

                         Standard orientation:
 ---------------------------------------------------------------------
 Center     Atomic      Atomic             Coordinates (Angstroms)
 Number     Number       Type             X           Y           Z
 ---------------------------------------------------------------------
      1          6           0        5.195580   -0.191961    0.336101
      2          6           0        6.171379   -1.010960   -0.509501
      3          6           0        7.317752   -1.598897    0.313878
      4          1           0        5.743869    0.618760    0.835156
      5          1           0        4.786984   -0.829385    1.132427
      6          1           0        6.576964   -0.372558   -1.304838
      7          1           0        5.620668   -1.819709   -1.006752
      8          1           0        6.930588   -2.257921    1.097710
      9          1           0        7.892316   -0.802548    0.797930
     10          1           0        8.003283   -2.180484   -0.310352
     11          6           0        4.044042    0.402350   -0.472901
     12          6           0        3.068243    1.221349    0.372701
     13          6           0        1.921870    1.809286   -0.450678
     14          1           0        4.452638    1.039774   -1.269227
     15          1           0        3.495753   -0.408370   -0.971955
     16          1           0        3.618954    2.030098    0.869952
     17          1           0        2.662658    0.582948    1.168038
     18          1           0        1.347306    1.012937   -0.934729
     19          1           0        2.309034    2.468310   -1.234509
     20          1           0        1.236339    2.390873    0.173552
     21          6           0       -5.297838   -0.262564    0.382957
     22          6           0       -6.363050   -0.659939   -0.639492
     23          6           0       -7.714009   -0.971729    0.005095
     24          1           0       -5.178590   -1.074641    1.113200
     25          1           0       -5.648064    0.614272    0.945005
     26          1           0       -6.010326   -1.534922   -1.200388
     27          1           0       -6.479639    0.153100   -1.367496
     28          1           0       -8.091467   -0.100049    0.549429
     29          1           0       -7.619487   -1.797661    0.717486
     30          1           0       -8.460703   -1.253472   -0.743857
     31          6           0       -3.941784    0.052174   -0.246158
     32          6           0       -2.876572    0.449549    0.776291
     33          6           0       -1.525614    0.761340    0.131705
     34          1           0       -3.591558   -0.824660   -0.808206
     35          1           0       -4.061032    0.864253   -0.976400
     36          1           0       -2.759983   -0.363489    1.504296
     37          1           0       -3.229297    1.324533    1.337187
     38          1           0       -1.620135    1.587272   -0.580687
     39          1           0       -1.148154   -0.110341   -0.412629
     40          1           0       -0.778918    1.043083    0.880656
 ---------------------------------------------------------------------

 SCF Done:  E(RHF) =  -470.732587789     A.U. after   11 cycles
 E2 =    -0.1582617782D+01 EUMP2 =    -0.47231520557084D+03

 The electronic state is 1-A.
 Alpha  occ. eigenvalues --  -11.21590 -11.21579 -11.21550 -11.21534 -11.21385
 Alpha  occ. eigenvalues --  -11.21367 -11.21325 -11.21306 -11.21063 -11.21055
 Alpha  occ. eigenvalues --  -11.20996 -11.20897  -1.08412  -1.08382  -1.03535
 Alpha  occ. eigenvalues --   -1.03446  -0.96040  -0.95841  -0.87115  -0.86801
 Alpha  occ. eigenvalues --   -0.79672  -0.79438  -0.78231  -0.78190  -0.65043
 Alpha  occ. eigenvalues --   -0.65015  -0.60929  -0.60869  -0.59528  -0.59120
 Alpha  occ. eigenvalues --   -0.57663  -0.57434  -0.55290  -0.55189  -0.52941
 Alpha  occ. eigenvalues --   -0.52487  -0.52301  -0.52230  -0.49921  -0.49804
 Alpha  occ. eigenvalues --   -0.47964  -0.47776  -0.46618  -0.46557  -0.45789
 Alpha  occ. eigenvalues --   -0.45718  -0.45691  -0.45650  -0.43900  -0.43541
 Alpha virt. eigenvalues --    0.22152   0.23003   0.23559   0.24939   0.26377
 Alpha virt. eigenvalues --    0.26668   0.27053   0.27264   0.27681   0.29168
 Alpha virt. eigenvalues --    0.29776   0.31280   0.31381   0.32057   0.32251

 Mulliken charges:
               1
     1  C   -0.298222
     2  C   -0.299606
     3  C   -0.475672
     4  H    0.149566
     5  H    0.149366
     6  H    0.151897
     7  H    0.151833
     8  H    0.155107
     9  H    0.155147
    10  H    0.160160
    11  C   -0.298275
    12  C   -0.300764
    13  C   -0.477793
    14  H    0.149510
    15  H    0.149516
    16  H    0.151430
    17  H    0.151486
    18  H    0.160306
    19  H    0.153672
    20  H    0.161243
    21  C   -0.298175
    22  C   -0.299589
    23  C   -0.475681
    24  H    0.149522
    25  H    0.149478
    26  H    0.151840
    27  H    0.151936
    28  H    0.155168
    29  H    0.155126
    30  H    0.160207
    31  C   -0.298448
    32  C   -0.301242
    33  C   -0.474779
    34  H    0.149227
    35  H    0.149632
    36  H    0.151394
    37  H    0.151571
    38  H    0.155867
    39  H    0.153406
    40  H    0.163635
 Sum of Mulliken charges =  -0.00000

 Dipole moment (field-independent basis, Debye):
    X=             -0.0096    Y=              0.0105    Z=             -0.0091  Tot=              0.0169
 Quadrupole moment (field-independent basis, Debye-Ang):
   XX=            -86.5635   YY=            -83.4187   ZZ=            -85.0988
   XY=              0.3229   XZ=             -0.1379   YZ=              0.0639

 Normal termination of Gaussian 16 at Wed May  5 23:04:28 2021.
