 Gaussian 16, Revision A.03,
 Gaussian 16:  EM64L-G16RevA.03 25-Dec-2016

 -------------
 #p 6-31g* mp2
 -------------

 ------------------------------------------------------
 Input file generated by CHIRIPA (05-May-2021 14:51:13)
 ------------------------------------------------------
 Symbolic Z-matrix:
 Charge =  0 Multiplicity = 1

                         Standard orientation:
 ---------------------------------------------------------------------
 Center     Atomic      Atomic             Coordinates (Angstroms)
 Number     Number       Type             X           Y           Z
 ---------------------------------------------------------------------
      1          6           0       -2.922400    0.147067   -0.284936
      2          6           0       -3.247934   -0.980782    0.694844
      3          6           0       -3.809063   -2.222613    0.001458
      4          1           0       -3.831309    0.414967   -0.840866
      5          1           0       -2.198691   -0.218425   -1.026594
      6          1           0       -3.969762   -0.612858    1.435257
      7          1           0       -2.338188   -1.245898    1.248642
      8          1           0       -3.090238   -2.616493   -0.724316
      9          1           0       -4.731082   -1.979856   -0.536641
     10          1           0       -4.034794   -3.016346    0.720412
     11          6           0       -2.360521    1.395320    0.393212
     12          6           0       -2.034988    2.523169   -0.586568
     13          6           0       -1.473858    3.765000    0.106818
     14          1           0       -3.084230    1.760812    1.134870
     15          1           0       -1.451612    1.127420    0.949142
     16          1           0       -2.944733    2.788285   -1.140366
     17          1           0       -1.313159    2.155245   -1.326981
     18          1           0       -0.551839    3.522243    0.644917
     19          1           0       -2.192684    4.158880    0.832593
     20          1           0       -1.248127    4.558733   -0.612136
     21          6           0        3.061163   -0.185488   -0.307575
     22          6           0        4.310555    0.074454    0.534705
     23          6           0        5.139869    1.249229    0.015150
     24          1           0        3.360828   -0.377617   -1.346917
     25          1           0        2.442648    0.722579   -0.323376
     26          1           0        4.925853   -0.834275    0.550053
     27          1           0        4.007893    0.265798    1.572202
     28          1           0        4.546930    2.169568    0.015997
     29          1           0        5.470105    1.063244   -1.011960
     30          1           0        6.028209    1.417411    0.631937
     31          6           0        2.221758   -1.356899    0.199298
     32          6           0        0.972366   -1.616841   -0.642982
     33          6           0        0.143053   -2.791616   -0.123426
     34          1           0        2.840273   -2.264966    0.215100
     35          1           0        1.922093   -1.164770    1.238640
     36          1           0        1.275028   -1.808185   -1.680479
     37          1           0        0.357068   -0.708111   -0.658329
     38          1           0       -0.187184   -2.605632    0.903683
     39          1           0        0.735991   -3.711955   -0.124274
     40          1           0       -0.745288   -2.959798   -0.740213
 ---------------------------------------------------------------------

 SCF Done:  E(RHF) =  -470.732462192     A.U. after   11 cycles
 E2 =    -0.1584637072D+01 EUMP2 =    -0.47231709926380D+03

 The electronic state is 1-A.
 Alpha  occ. eigenvalues --  -11.21678 -11.21642 -11.21632 -11.21548 -11.21468
 Alpha  occ. eigenvalues --  -11.21418 -11.21407 -11.21341 -11.21116 -11.21106
 Alpha  occ. eigenvalues --  -11.21099 -11.21017  -1.08515  -1.08414  -1.03627
 Alpha  occ. eigenvalues --   -1.03491  -0.96062  -0.95958  -0.87066  -0.86986
 Alpha  occ. eigenvalues --   -0.79664  -0.79586  -0.78328  -0.78228  -0.65388
 Alpha  occ. eigenvalues --   -0.64872  -0.61212  -0.60767  -0.59411  -0.59299
 Alpha  occ. eigenvalues --   -0.57681  -0.57552  -0.55379  -0.55250  -0.52745
 Alpha  occ. eigenvalues --   -0.52667  -0.52486  -0.52355  -0.50002  -0.49903
 Alpha  occ. eigenvalues --   -0.47969  -0.47894  -0.46835  -0.46493  -0.45947
 Alpha  occ. eigenvalues --   -0.45843  -0.45697  -0.45539  -0.43823  -0.43777
 Alpha virt. eigenvalues --    0.19181   0.22610   0.23529   0.25175   0.25645
 Alpha virt. eigenvalues --    0.26066   0.26863   0.27743   0.28178   0.29582
 Alpha virt. eigenvalues --    0.30205   0.31022   0.31823   0.32346   0.32455

 Mulliken charges:
               1
     1  C   -0.301742
     2  C   -0.302108
     3  C   -0.478046
     4  H    0.149845
     5  H    0.152713
     6  H    0.151654
     7  H    0.155517
     8  H    0.157642
     9  H    0.154752
    10  H    0.160237
    11  C   -0.299091
    12  C   -0.300354
    13  C   -0.475548
    14  H    0.149919
    15  H    0.149054
    16  H    0.152354
    17  H    0.152076
    18  H    0.154500
    19  H    0.155383
    20  H    0.160501
    21  C   -0.298319
    22  C   -0.299707
    23  C   -0.475771
    24  H    0.149885
    25  H    0.149083
    26  H    0.152101
    27  H    0.151986
    28  H    0.155318
    29  H    0.155258
    30  H    0.160435
    31  C   -0.298245
    32  C   -0.305456
    33  C   -0.480618
    34  H    0.150014
    35  H    0.149403
    36  H    0.152283
    37  H    0.156249
    38  H    0.156680
    39  H    0.155654
    40  H    0.164509
 Sum of Mulliken charges =  -0.00000

 Dipole moment (field-independent basis, Debye):
    X=              0.0152    Y=             -0.0203    Z=             -0.0054  Tot=              0.0259
 Quadrupole moment (field-independent basis, Debye-Ang):
   XX=            -84.2870   YY=            -85.7995   ZZ=            -84.6078
   XY=             -1.6981   XZ=             -0.3893   YZ=              0.2838

 Normal termination of Gaussian 16 at Wed May  5 18:21:11 2021.
