 Gaussian 16, Revision A.03,
 Gaussian 16:  EM64L-G16RevA.03 25-Dec-2016

 -------------
 #p 6-31g* mp2
 -------------

 ------------------------------------------------------
 Input file generated by CHIRIPA (05-May-2021 14:57:22)
 ------------------------------------------------------
 Symbolic Z-matrix:
 Charge =  0 Multiplicity = 1

                         Standard orientation:
 ---------------------------------------------------------------------
 Center     Atomic      Atomic             Coordinates (Angstroms)
 Number     Number       Type             X           Y           Z
 ---------------------------------------------------------------------
      1          6           0       -4.883845    2.035199   -0.022874
      2          6           0       -5.321198    0.862527   -0.647440
      3          6           0       -4.504070   -0.271378   -0.680753
      4          6           0       -3.249855   -0.197166   -0.076828
      5          6           0       -2.785765    0.956520    0.553188
      6          6           0       -3.619753    2.078377    0.574394
      7          1           0       -5.525158    2.911364   -0.001698
      8          1           0       -6.302424    0.826109   -1.112105
      9          1           0       -4.817644   -1.192172   -1.157438
     10          1           0       -1.802532    0.962423    1.007760
     11          1           0       -3.277477    2.987732    1.060157
     12          7           0       -2.375874   -1.391203   -0.105686
     13          8           0       -1.275212   -1.300157    0.433657
     14          8           0       -2.808058   -2.395526   -0.667103
     15          6           0        4.739709    1.977913   -0.730458
     16          6           0        3.949379    2.088847    0.418278
     17          6           0        3.199554    0.999657    0.872124
     18          6           0        3.263789   -0.190807    0.149657
     19          6           0        4.041715   -0.332573   -0.998396
     20          6           0        4.783277    0.769688   -1.433888
     21          1           0        5.318982    2.829099   -1.075888
     22          1           0        3.913618    3.025938    0.966570
     23          1           0        2.579325    1.057972    1.758315
     24          1           0        4.057066   -1.279694   -1.523889
     25          1           0        5.396179    0.680646   -2.326339
     26          7           0        2.474356   -1.350802    0.620409
     27          8           0        2.548084   -2.388642   -0.033876
     28          8           0        1.796819   -1.200202    1.634756
 ---------------------------------------------------------------------

 SCF Done:  E(RHF) =  -868.335154302     A.U. after   16 cycles
 E2 =    -0.2600700345D+01 EUMP2 =    -0.87093585464637D+03

 The electronic state is 1-A.
 Alpha  occ. eigenvalues --  -20.59956 -20.59899 -20.59754 -20.59709 -15.84989
 Alpha  occ. eigenvalues --  -15.84804 -11.30703 -11.30615 -11.27316 -11.27313
 Alpha  occ. eigenvalues --  -11.27262 -11.27208 -11.27133 -11.27060 -11.26422
 Alpha  occ. eigenvalues --  -11.26401 -11.26376 -11.26330  -1.59012  -1.58773
 Alpha  occ. eigenvalues --   -1.38555  -1.38329  -1.18913  -1.18826  -1.08247
 Alpha  occ. eigenvalues --   -1.08134  -1.04368  -1.04300  -0.95022  -0.94892
 Alpha  occ. eigenvalues --   -0.85749  -0.85676  -0.81854  -0.81728  -0.76840
 Alpha  occ. eigenvalues --   -0.76703  -0.71270  -0.70975  -0.70369  -0.70084
 Alpha  occ. eigenvalues --   -0.69979  -0.69936  -0.64556  -0.64469  -0.64378
 Alpha  occ. eigenvalues --   -0.64310  -0.61711  -0.61647  -0.54863  -0.54787
 Alpha  occ. eigenvalues --   -0.52680  -0.52600  -0.52466  -0.52402  -0.48035
 Alpha  occ. eigenvalues --   -0.47941  -0.47755  -0.47711  -0.43891  -0.43617
 Alpha  occ. eigenvalues --   -0.36917  -0.36825  -0.35989  -0.35928
 Alpha virt. eigenvalues --    0.05696   0.05856   0.11661   0.11721   0.17122
 Alpha virt. eigenvalues --    0.17270   0.21677   0.21849   0.27509   0.27725
 Alpha virt. eigenvalues --    0.28506   0.28877   0.31067   0.31464   0.32664

 Mulliken charges:
               1
     1  C   -0.171873
     2  C   -0.218570
     3  C   -0.171404
     4  C    0.158762
     5  C   -0.171815
     6  C   -0.218551
     7  H    0.223297
     8  H    0.221857
     9  H    0.275492
    10  H    0.276610
    11  H    0.220189
    12  N    0.487278
    13  O   -0.449382
    14  O   -0.462583
    15  C   -0.172423
    16  C   -0.218790
    17  C   -0.172592
    18  C    0.161389
    19  C   -0.171173
    20  C   -0.218467
    21  H    0.222822
    22  H    0.219563
    23  H    0.272619
    24  H    0.276535
    25  H    0.221812
    26  N    0.490602
    27  O   -0.457450
    28  O   -0.453753
 Sum of Mulliken charges =  -0.00000

 Dipole moment (field-independent basis, Debye):
    X=             -0.2798    Y=              7.9978    Z=             -1.4835  Tot=              8.1391
 Quadrupole moment (field-independent basis, Debye-Ang):
   XX=            -66.2081   YY=           -106.5450   ZZ=           -102.1879
   XY=              0.4168   XZ=             -4.7107   YZ=              4.3546

 Normal termination of Gaussian 16 at Thu May  6 00:11:28 2021.
