 Gaussian 16, Revision A.03,
 Gaussian 16:  EM64L-G16RevA.03 25-Dec-2016

 -------------
 #p 6-31g* mp2
 -------------

 ------------------------------------------------------
 Input file generated by CHIRIPA (05-May-2021 14:57:25)
 ------------------------------------------------------
 Symbolic Z-matrix:
 Charge =  0 Multiplicity = 1

                         Standard orientation:
 ---------------------------------------------------------------------
 Center     Atomic      Atomic             Coordinates (Angstroms)
 Number     Number       Type             X           Y           Z
 ---------------------------------------------------------------------
      1          6           0        4.722214   -1.101042    0.228201
      2          6           0        4.749814    0.148183    0.856847
      3          6           0        3.692439    1.048259    0.694463
      4          6           0        2.618418    0.664699   -0.107192
      5          6           0        2.561701   -0.572696   -0.746666
      6          6           0        3.630171   -1.456867   -0.570142
      7          1           0        5.547918   -1.794066    0.359837
      8          1           0        5.596613    0.427207    1.477429
      9          1           0        3.688024    2.021754    1.169548
     10          1           0        1.703916   -0.822537   -1.359204
     11          1           0        3.606034   -2.426362   -1.059572
     12          7           0        1.493149    1.609151   -0.286585
     13          8           0        0.558462    1.247338   -0.997985
     14          8           0        1.567158    2.693341    0.287602
     15          6           0       -0.975606   -2.246833    0.019020
     16          6           0       -1.350866   -1.585711   -1.155127
     17          6           0       -2.362575   -0.621054   -1.134450
     18          6           0       -2.980626   -0.341039    0.083292
     19          6           0       -2.629137   -0.982583    1.269954
     20          6           0       -1.614812   -1.943693    1.225685
     21          1           0       -0.188669   -2.994825   -0.006207
     22          1           0       -0.856189   -1.819099   -2.093674
     23          1           0       -2.672847   -0.094105   -2.028583
     24          1           0       -3.140583   -0.728480    2.190428
     25          1           0       -1.325452   -2.455543    2.139099
     26          7           0       -4.053062    0.678323    0.117669
     27          8           0       -4.582092    0.906906    1.203263
     28          8           0       -4.344301    1.229414   -0.941630
 ---------------------------------------------------------------------

 SCF Done:  E(RHF) =  -868.336238212     A.U. after   16 cycles
 E2 =    -0.2602498426D+01 EUMP2 =    -0.87093873663807D+03

 The electronic state is 1-A.
 Alpha  occ. eigenvalues --  -20.61130 -20.61120 -20.60046 -20.60025 -15.86177
 Alpha  occ. eigenvalues --  -15.85096 -11.31688 -11.30509 -11.28328 -11.28236
 Alpha  occ. eigenvalues --  -11.28031 -11.27367 -11.27269 -11.27159 -11.27092
 Alpha  occ. eigenvalues --  -11.27049 -11.26251 -11.26242  -1.60194  -1.59104
 Alpha  occ. eigenvalues --   -1.39748  -1.38659  -1.19875  -1.18730  -1.09236
 Alpha  occ. eigenvalues --   -1.08164  -1.05311  -1.04160  -0.96053  -0.94974
 Alpha  occ. eigenvalues --   -0.86695  -0.85599  -0.82898  -0.81807  -0.77930
 Alpha  occ. eigenvalues --   -0.76805  -0.72417  -0.71521  -0.71334  -0.70985
 Alpha  occ. eigenvalues --   -0.70406  -0.69947  -0.65530  -0.65328  -0.64431
 Alpha  occ. eigenvalues --   -0.64253  -0.62662  -0.61524  -0.55787  -0.54801
 Alpha  occ. eigenvalues --   -0.53616  -0.53427  -0.52433  -0.52312  -0.49176
 Alpha  occ. eigenvalues --   -0.49137  -0.48095  -0.48065  -0.45112  -0.44054
 Alpha  occ. eigenvalues --   -0.37861  -0.37064  -0.36608  -0.35642
 Alpha virt. eigenvalues --    0.04623   0.05745   0.10711   0.11795   0.16052
 Alpha virt. eigenvalues --    0.17197   0.20057   0.22026   0.25911   0.27120
 Alpha virt. eigenvalues --    0.28271   0.29373   0.30123   0.31251   0.32278

 Mulliken charges:
               1
     1  C   -0.170567
     2  C   -0.218650
     3  C   -0.169972
     4  C    0.157823
     5  C   -0.170430
     6  C   -0.221666
     7  H    0.226529
     8  H    0.225348
     9  H    0.277939
    10  H    0.271460
    11  H    0.220301
    12  N    0.489282
    13  O   -0.461999
    14  O   -0.457040
    15  C   -0.174346
    16  C   -0.211423
    17  C   -0.152454
    18  C    0.160050
    19  C   -0.170330
    20  C   -0.219265
    21  H    0.215732
    22  H    0.214739
    23  H    0.277740
    24  H    0.274226
    25  H    0.219466
    26  N    0.488851
    27  O   -0.462941
    28  O   -0.458403
 Sum of Mulliken charges =  -0.00000

 Dipole moment (field-independent basis, Debye):
    X=              7.7025    Y=             -6.5620    Z=              0.4795  Tot=             10.1301
 Quadrupole moment (field-independent basis, Debye-Ang):
   XX=           -106.2712   YY=           -106.1652   ZZ=            -99.0608
   XY=              5.0891   XZ=              3.4856   YZ=              1.9294

 Normal termination of Gaussian 16 at Fri May  7 05:02:44 2021.
