 Gaussian 16, Revision A.03,
 Gaussian 16:  EM64L-G16RevA.03 25-Dec-2016

 -------------
 #p 6-31g* mp2
 -------------

 ------------------------------------------------------
 Input file generated by CHIRIPA (05-May-2021 14:51:09)
 ------------------------------------------------------
 Symbolic Z-matrix:
 Charge =  0 Multiplicity = 1

                         Standard orientation:
 ---------------------------------------------------------------------
 Center     Atomic      Atomic             Coordinates (Angstroms)
 Number     Number       Type             X           Y           Z
 ---------------------------------------------------------------------
      1          6           0        4.114649   -0.619724   -0.348120
      2          6           0        3.780229   -1.899425    0.419026
      3          6           0        4.472665   -3.133668   -0.159741
      4          1           0        3.825334   -0.744501   -1.400580
      5          1           0        5.203013   -0.468814   -0.338921
      6          1           0        2.692705   -2.047137    0.409564
      7          1           0        4.070198   -1.771516    1.469823
      8          1           0        5.560421   -3.012009   -0.135508
      9          1           0        4.175102   -3.289196   -1.201791
     10          1           0        4.219703   -4.037170    0.403779
     11          6           0        3.429898    0.622759    0.218521
     12          6           0        3.764318    1.902460   -0.548625
     13          6           0        3.071882    3.136703    0.030142
     14          1           0        2.341534    0.471849    0.209322
     15          1           0        3.719212    0.747536    1.270981
     16          1           0        3.474349    1.774551   -1.599422
     17          1           0        4.851841    2.050172   -0.539163
     18          1           0        3.369445    3.292231    1.072192
     19          1           0        1.984126    3.015044    0.005909
     20          1           0        3.324843    4.040205   -0.533378
     21          6           0       -3.069506    0.076552   -0.224087
     22          6           0       -2.010480    0.389523    0.833503
     23          6           0       -0.609698    0.542839    0.240125
     24          1           0       -2.790290   -0.845725   -0.751713
     25          1           0       -3.074543    0.877625   -0.976186
     26          1           0       -2.008397   -0.411207    1.584131
     27          1           0       -2.292349    1.311058    1.358802
     28          1           0       -0.589133    1.354536   -0.494260
     29          1           0       -0.303568   -0.377514   -0.267651
     30          1           0        0.131703    0.766270    1.013601
     31          6           0       -4.475040   -0.079587    0.353687
     32          6           0       -5.534067   -0.392558   -0.703905
     33          6           0       -6.934849   -0.545873   -0.110527
     34          1           0       -4.470004   -0.880661    1.105785
     35          1           0       -4.754257    0.842689    0.881312
     36          1           0       -5.252198   -1.314094   -1.229203
     37          1           0       -5.536150    0.408172   -1.454532
     38          1           0       -7.240979    0.374479    0.397250
     39          1           0       -6.955414   -1.357572    0.623859
     40          1           0       -7.676250   -0.769306   -0.884002
 ---------------------------------------------------------------------

 SCF Done:  E(RHF) =  -470.732937410     A.U. after   11 cycles
 E2 =    -0.1583101082D+01 EUMP2 =    -0.47231603849152D+03

 The electronic state is 1-A.
 Alpha  occ. eigenvalues --  -11.21668 -11.21631 -11.21552 -11.21505 -11.21451
 Alpha  occ. eigenvalues --  -11.21390 -11.21301 -11.21189 -11.21178 -11.21094
 Alpha  occ. eigenvalues --  -11.21037 -11.20989  -1.08482  -1.08338  -1.03592
 Alpha  occ. eigenvalues --   -1.03455  -0.96052  -0.95901  -0.87083  -0.86915
 Alpha  occ. eigenvalues --   -0.79692  -0.79501  -0.78304  -0.78132  -0.65111
 Alpha  occ. eigenvalues --   -0.64980  -0.60998  -0.60856  -0.59458  -0.59235
 Alpha  occ. eigenvalues --   -0.57658  -0.57512  -0.55387  -0.55144  -0.52828
 Alpha  occ. eigenvalues --   -0.52597  -0.52471  -0.52301  -0.50025  -0.49804
 Alpha  occ. eigenvalues --   -0.47973  -0.47834  -0.46694  -0.46543  -0.45880
 Alpha  occ. eigenvalues --   -0.45756  -0.45694  -0.45594  -0.43734  -0.43679
 Alpha virt. eigenvalues --    0.21511   0.22994   0.23753   0.24506   0.25891
 Alpha virt. eigenvalues --    0.26525   0.27184   0.27477   0.27924   0.29444
 Alpha virt. eigenvalues --    0.30277   0.30813   0.31808   0.31900   0.32214

 Mulliken charges:
               1
     1  C   -0.297340
     2  C   -0.299972
     3  C   -0.475619
     4  H    0.149183
     5  H    0.149012
     6  H    0.151795
     7  H    0.151703
     8  H    0.155189
     9  H    0.154998
    10  H    0.159905
    11  C   -0.310153
    12  C   -0.298388
    13  C   -0.478356
    14  H    0.164722
    15  H    0.147952
    16  H    0.151450
    17  H    0.151281
    18  H    0.154551
    19  H    0.157647
    20  H    0.159711
    21  C   -0.298763
    22  C   -0.300047
    23  C   -0.480479
    24  H    0.149623
    25  H    0.149593
    26  H    0.152456
    27  H    0.152487
    28  H    0.155940
    29  H    0.154973
    30  H    0.164454
    31  C   -0.298376
    32  C   -0.299648
    33  C   -0.475734
    34  H    0.149649
    35  H    0.149815
    36  H    0.151958
    37  H    0.151979
    38  H    0.155254
    39  H    0.155241
    40  H    0.160353
 Sum of Mulliken charges =  -0.00000

 Dipole moment (field-independent basis, Debye):
    X=             -0.0748    Y=             -0.0021    Z=              0.0096  Tot=              0.0754
 Quadrupole moment (field-independent basis, Debye-Ang):
   XX=            -85.7131   YY=            -84.8399   ZZ=            -84.5693
   XY=              0.1824   XZ=              0.9349   YZ=             -0.2865

 Normal termination of Gaussian 16 at Wed May  5 18:10:00 2021.
