 Gaussian 16, Revision A.03,
 Gaussian 16:  EM64L-G16RevA.03 25-Dec-2016

 -------------
 #p 6-31g* mp2
 -------------

 ------------------------------------------------------
 Input file generated by CHIRIPA (05-May-2021 14:51:08)
 ------------------------------------------------------
 Symbolic Z-matrix:
 Charge =  0 Multiplicity = 1

                         Standard orientation:
 ---------------------------------------------------------------------
 Center     Atomic      Atomic             Coordinates (Angstroms)
 Number     Number       Type             X           Y           Z
 ---------------------------------------------------------------------
      1          6           0       -3.608770   -0.207076    0.208210
      2          6           0       -3.934631    0.436890   -1.139791
      3          6           0       -5.429799    0.698276   -1.324034
      4          1           0       -4.161596   -1.152097    0.299117
      5          1           0       -3.970074    0.445283    1.015230
      6          1           0       -3.571587   -0.215831   -1.944012
      7          1           0       -3.380817    1.380394   -1.227581
      8          1           0       -5.803010    1.367856   -0.542383
      9          1           0       -5.994865   -0.237438   -1.262885
     10          1           0       -5.640257    1.158906   -2.294285
     11          6           0       -2.117940   -0.474569    0.407213
     12          6           0       -1.792080   -1.118535    1.755214
     13          6           0       -0.296912   -1.379921    1.939457
     14          1           0       -1.756637   -1.126928   -0.399807
     15          1           0       -1.565115    0.470452    0.316306
     16          1           0       -2.345894   -2.062039    1.843004
     17          1           0       -2.155124   -0.465814    2.559435
     18          1           0        0.268154   -0.444206    1.878308
     19          1           0        0.076300   -2.049500    1.157806
     20          1           0       -0.086454   -1.840550    2.909708
     21          6           0        3.210610   -0.187574   -0.736248
     22          6           0        2.772447   -1.615914   -0.410913
     23          6           0        3.475915   -2.661702   -1.276510
     24          1           0        3.010959    0.017830   -1.796858
     25          1           0        4.297992   -0.105306   -0.601239
     26          1           0        1.686020   -1.695099   -0.545162
     27          1           0        2.972988   -1.817876    0.649091
     28          1           0        4.560506   -2.611730   -1.135918
     29          1           0        3.266226   -2.488255   -2.336957
     30          1           0        3.147863   -3.675656   -1.027233
     31          6           0        2.516101    0.869219    0.120825
     32          6           0        2.954264    2.297559   -0.204509
     33          6           0        2.250796    3.343346    0.661087
     34          1           0        1.428719    0.786951   -0.014184
     35          1           0        2.715752    0.663815    1.181435
     36          1           0        2.753722    2.499522   -1.264514
     37          1           0        4.040690    2.376743   -0.070262
     38          1           0        2.460485    3.169899    1.721533
     39          1           0        1.166205    3.293375    0.520495
     40          1           0        2.578847    4.357300    0.411809
 ---------------------------------------------------------------------

 SCF Done:  E(RHF) =  -470.732174510     A.U. after   11 cycles
 E2 =    -0.1584271755D+01 EUMP2 =    -0.47231644626485D+03

 The electronic state is 1-A.
 Alpha  occ. eigenvalues --  -11.21626 -11.21599 -11.21551 -11.21508 -11.21430
 Alpha  occ. eigenvalues --  -11.21375 -11.21370 -11.21316 -11.21102 -11.21088
 Alpha  occ. eigenvalues --  -11.21032 -11.20877  -1.08457  -1.08389  -1.03534
 Alpha  occ. eigenvalues --   -1.03486  -0.95979  -0.95946  -0.87002  -0.86961
 Alpha  occ. eigenvalues --   -0.79682  -0.79521  -0.78397  -0.78052  -0.65070
 Alpha  occ. eigenvalues --   -0.65042  -0.61000  -0.60835  -0.59364  -0.59311
 Alpha  occ. eigenvalues --   -0.57625  -0.57545  -0.55287  -0.55210  -0.52726
 Alpha  occ. eigenvalues --   -0.52638  -0.52405  -0.52350  -0.49977  -0.49852
 Alpha  occ. eigenvalues --   -0.48115  -0.47817  -0.46729  -0.46440  -0.46133
 Alpha  occ. eigenvalues --   -0.45709  -0.45665  -0.45179  -0.43770  -0.43759
 Alpha virt. eigenvalues --    0.21127   0.23226   0.23581   0.24008   0.25913
 Alpha virt. eigenvalues --    0.26126   0.26508   0.27741   0.28039   0.29820
 Alpha virt. eigenvalues --    0.30438   0.31327   0.31637   0.31808   0.32146

 Mulliken charges:
               1
     1  C   -0.298154
     2  C   -0.299640
     3  C   -0.475713
     4  H    0.149942
     5  H    0.149825
     6  H    0.151775
     7  H    0.151642
     8  H    0.155302
     9  H    0.155269
    10  H    0.160267
    11  C   -0.299996
    12  C   -0.299898
    13  C   -0.483221
    14  H    0.148647
    15  H    0.149959
    16  H    0.151404
    17  H    0.151481
    18  H    0.162187
    19  H    0.159545
    20  H    0.158607
    21  C   -0.297823
    22  C   -0.302813
    23  C   -0.475630
    24  H    0.149240
    25  H    0.149186
    26  H    0.155830
    27  H    0.153355
    28  H    0.154971
    29  H    0.154729
    30  H    0.159734
    31  C   -0.303557
    32  C   -0.299059
    33  C   -0.475889
    34  H    0.154385
    35  H    0.150345
    36  H    0.151931
    37  H    0.151955
    38  H    0.155134
    39  H    0.154184
    40  H    0.160564
 Sum of Mulliken charges =  -0.00000

 Dipole moment (field-independent basis, Debye):
    X=              0.0175    Y=              0.0008    Z=              0.0037  Tot=              0.0179
 Quadrupole moment (field-independent basis, Debye-Ang):
   XX=            -85.5353   YY=            -84.8123   ZZ=            -84.5825
   XY=              0.6826   XZ=              0.5938   YZ=             -0.0584

 Normal termination of Gaussian 16 at Thu May  6 00:31:04 2021.
