 Gaussian 16, Revision A.03,
 Gaussian 16:  EM64L-G16RevA.03 25-Dec-2016

 -------------
 #p 6-31g* mp2
 -------------

 ------------------------------------------------------
 Input file generated by CHIRIPA (05-May-2021 14:55:21)
 ------------------------------------------------------
 Symbolic Z-matrix:
 Charge =  0 Multiplicity = 1

                         Standard orientation:
 ---------------------------------------------------------------------
 Center     Atomic      Atomic             Coordinates (Angstroms)
 Number     Number       Type             X           Y           Z
 ---------------------------------------------------------------------
      1          6           0        3.537361    1.211829    1.201240
      2          6           0        2.299800    0.904085    1.775922
      3          6           0        1.488869   -0.092197    1.224233
      4          6           0        1.948708   -0.763834    0.092534
      5          6           0        3.176751   -0.480126   -0.503043
      6          6           0        3.971121    0.519961    0.065594
      7          1           0        4.160879    1.987243    1.636388
      8          1           0        1.960377    1.439762    2.657900
      9          1           0        0.526406   -0.350655    1.648831
     10          1           0        3.488136   -1.031355   -1.382022
     11          1           0        4.931767    0.756841   -0.382839
     12          7           0        1.098978   -1.820567   -0.500485
     13          8           0        1.526866   -2.397726   -1.497699
     14          8           0        0.021159   -2.051666    0.043149
     15          6           0       -3.324722    0.363656   -0.324185
     16          6           0       -3.864325   -0.193868    0.993380
     17          6           0       -5.167349   -0.973843    0.815725
     18          1           0       -4.084445    1.014653   -0.778025
     19          1           0       -3.163787   -0.465775   -1.026708
     20          1           0       -4.022888    0.636223    1.693681
     21          1           0       -3.103155   -0.843460    1.444230
     22          1           0       -5.020058   -1.820626    0.137591
     23          1           0       -5.945017   -0.332534    0.388460
     24          1           0       -5.535328   -1.363448    1.770010
     25          6           0       -2.022489    1.145902   -0.162908
     26          6           0       -1.482886    1.703426   -1.480474
     27          6           0       -0.179862    2.483402   -1.302819
     28          1           0       -2.183425    1.975333    0.539614
     29          1           0       -1.262766    0.494906    0.290931
     30          1           0       -2.244056    2.353019   -1.931324
     31          1           0       -1.324324    0.873335   -2.180776
     32          1           0        0.597806    1.842092   -0.875553
     33          1           0       -0.327153    3.330184   -0.624684
     34          1           0        0.188117    2.873006   -2.257104
 ---------------------------------------------------------------------

 SCF Done:  E(RHF) =  -669.534935778     A.U. after   15 cycles
 E2 =    -0.2095125165D+01 EUMP2 =    -0.67163006094338D+03

 The electronic state is 1-A.
 Alpha  occ. eigenvalues --  -20.61005 -20.60996 -15.86026 -11.31315 -11.27891
 Alpha  occ. eigenvalues --  -11.27865 -11.27618 -11.26887 -11.26867 -11.21237
 Alpha  occ. eigenvalues --  -11.21022 -11.20925 -11.20842 -11.20738 -11.20508
 Alpha  occ. eigenvalues --   -1.60061  -1.39619  -1.19509  -1.08903  -1.07933
 Alpha  occ. eigenvalues --   -1.04893  -1.03085  -0.95752  -0.95541  -0.86571
 Alpha  occ. eigenvalues --   -0.86292  -0.82580  -0.79163  -0.77871  -0.77547
 Alpha  occ. eigenvalues --   -0.72253  -0.71390  -0.70609  -0.65163  -0.64928
 Alpha  occ. eigenvalues --   -0.64491  -0.62242  -0.60491  -0.58933  -0.57178
 Alpha  occ. eigenvalues --   -0.55397  -0.54908  -0.53252  -0.52986  -0.52256
 Alpha  occ. eigenvalues --   -0.51919  -0.49471  -0.49015  -0.48998  -0.47466
 Alpha  occ. eigenvalues --   -0.46176  -0.45467  -0.45222  -0.44734  -0.43319
 Alpha  occ. eigenvalues --   -0.37461  -0.36438
 Alpha virt. eigenvalues --    0.04853   0.11069   0.16348   0.21031   0.23357
 Alpha virt. eigenvalues --    0.24614   0.25773   0.27339   0.27734   0.28202
 Alpha virt. eigenvalues --    0.29208   0.31283   0.31566   0.31957   0.32398

 Mulliken charges:
               1
     1  C   -0.170385
     2  C   -0.216397
     3  C   -0.174100
     4  C    0.160618
     5  C   -0.171497
     6  C   -0.217414
     7  H    0.226528
     8  H    0.224816
     9  H    0.276600
    10  H    0.276056
    11  H    0.224229
    12  N    0.488806
    13  O   -0.458566
    14  O   -0.461619
    15  C   -0.296472
    16  C   -0.301604
    17  C   -0.475852
    18  H    0.145858
    19  H    0.159913
    20  H    0.145617
    21  H    0.158222
    22  H    0.159819
    23  H    0.152586
    24  H    0.157905
    25  C   -0.305565
    26  C   -0.301012
    27  C   -0.481056
    28  H    0.141990
    29  H    0.156008
    30  H    0.150908
    31  H    0.157098
    32  H    0.159194
    33  H    0.150333
    34  H    0.158431
 Sum of Mulliken charges =  -0.00000

 Dipole moment (field-independent basis, Debye):
    X=              3.1635    Y=              3.5106    Z=              2.0613  Tot=              5.1557
 Quadrupole moment (field-independent basis, Debye-Ang):
   XX=            -81.6932   YY=           -101.0373   ZZ=            -92.2407
   XY=              3.9771   XZ=              1.8770   YZ=             -0.2188

 Normal termination of Gaussian 16 at Thu May  6 14:12:04 2021.
