 Gaussian 16, Revision A.03,
 Gaussian 16:  EM64L-G16RevA.03 25-Dec-2016

 -------------
 #p 6-31g* mp2
 -------------

 ------------------------------------------------------
 Input file generated by CHIRIPA (05-May-2021 14:57:22)
 ------------------------------------------------------
 Symbolic Z-matrix:
 Charge =  0 Multiplicity = 1

                         Standard orientation:
 ---------------------------------------------------------------------
 Center     Atomic      Atomic             Coordinates (Angstroms)
 Number     Number       Type             X           Y           Z
 ---------------------------------------------------------------------
      1          6           0        5.540949    0.318109    0.011829
      2          6           0        4.670395    1.230609   -0.593152
      3          6           0        3.316585    0.920878   -0.753813
      4          6           0        2.865209   -0.315970   -0.295822
      5          6           0        3.707703   -1.246205    0.310937
      6          6           0        5.057676   -0.915211    0.461151
      7          1           0        6.591131    0.566974    0.132577
      8          1           0        5.042925    2.189167   -0.943055
      9          1           0        2.620697    1.608696   -1.218640
     10          1           0        3.306993   -2.193888    0.649679
     11          1           0        5.731460   -1.625821    0.931357
     12          7           0        1.434022   -0.655123   -0.460376
     13          8           0        1.061141   -1.751420   -0.048392
     14          8           0        0.712237    0.181767   -0.998223
     15          6           0       -4.873154   -0.756111   -1.212199
     16          6           0       -4.561944   -1.349862    0.015452
     17          6           0       -3.581855   -0.795487    0.844091
     18          6           0       -2.929769    0.358315    0.411868
     19          6           0       -3.217419    0.973228   -0.805681
     20          6           0       -4.201083    0.401498   -1.618133
     21          1           0       -5.635899   -1.193504   -1.849618
     22          1           0       -5.082262   -2.248919    0.333275
     23          1           0       -3.321147   -1.234550    1.799429
     24          1           0       -2.681669    1.869017   -1.095428
     25          1           0       -4.440700    0.864773   -2.571026
     26          7           0       -1.890299    0.954393    1.280543
     27          8           0       -1.330222    1.971261    0.876897
     28          8           0       -1.655324    0.393445    2.348607
 ---------------------------------------------------------------------

 SCF Done:  E(RHF) =  -868.338795602     A.U. after   16 cycles
 E2 =    -0.2600121880D+01 EUMP2 =    -0.87093891748181D+03

 The electronic state is 1-A.
 Alpha  occ. eigenvalues --  -20.60355 -20.60303 -20.59516 -20.59479 -15.85359
 Alpha  occ. eigenvalues --  -15.84543 -11.30675 -11.29879 -11.27266 -11.27229
 Alpha  occ. eigenvalues --  -11.27026 -11.26504 -11.26477 -11.26324 -11.26288
 Alpha  occ. eigenvalues --  -11.26264 -11.25566 -11.25552  -1.59391  -1.58546
 Alpha  occ. eigenvalues --   -1.38944  -1.38107  -1.18854  -1.18076  -1.08268
 Alpha  occ. eigenvalues --   -1.07494  -1.04259  -1.03514  -0.95112  -0.94337
 Alpha  occ. eigenvalues --   -0.85661  -0.84919  -0.81951  -0.81195  -0.76990
 Alpha  occ. eigenvalues --   -0.76215  -0.71631  -0.70828  -0.70737  -0.69985
 Alpha  occ. eigenvalues --   -0.69705  -0.69261  -0.64520  -0.64280  -0.63772
 Alpha  occ. eigenvalues --   -0.63571  -0.61609  -0.60883  -0.54790  -0.54081
 Alpha  occ. eigenvalues --   -0.52580  -0.52363  -0.51802  -0.51648  -0.48384
 Alpha  occ. eigenvalues --   -0.48351  -0.47566  -0.47540  -0.44498  -0.43357
 Alpha  occ. eigenvalues --   -0.36837  -0.36056  -0.35854  -0.35095
 Alpha virt. eigenvalues --    0.05559   0.06382   0.11803   0.12560   0.17033
 Alpha virt. eigenvalues --    0.17839   0.21878   0.22492   0.27785   0.28374
 Alpha virt. eigenvalues --    0.28780   0.29407   0.31411   0.31983   0.33038

 Mulliken charges:
               1
     1  C   -0.170624
     2  C   -0.218763
     3  C   -0.167722
     4  C    0.160580
     5  C   -0.169889
     6  C   -0.218755
     7  H    0.224033
     8  H    0.222408
     9  H    0.277370
    10  H    0.274604
    11  H    0.221818
    12  N    0.489936
    13  O   -0.463192
    14  O   -0.461260
    15  C   -0.170905
    16  C   -0.218813
    17  C   -0.167186
    18  C    0.167412
    19  C   -0.161758
    20  C   -0.219428
    21  H    0.220699
    22  H    0.218972
    23  H    0.273275
    24  H    0.274011
    25  H    0.218635
    26  N    0.491832
    27  O   -0.461016
    28  O   -0.466274
 Sum of Mulliken charges =  -0.00000

 Dipole moment (field-independent basis, Debye):
    X=              1.5683    Y=             -0.8309    Z=             -2.4939  Tot=              3.0609
 Quadrupole moment (field-independent basis, Debye-Ang):
   XX=            -57.0519   YY=           -101.2592   ZZ=           -105.9503
   XY=              6.7223   XZ=              7.6508   YZ=             -7.7476

 Normal termination of Gaussian 16 at Fri May  7 00:13:35 2021.
