 Gaussian 16, Revision A.03,
 Gaussian 16:  EM64L-G16RevA.03 25-Dec-2016

 -------------
 #p 6-31g* mp2
 -------------

 ------------------------------------------------------
 Input file generated by CHIRIPA (05-May-2021 14:57:27)
 ------------------------------------------------------
 Symbolic Z-matrix:
 Charge =  0 Multiplicity = 1

                         Standard orientation:
 ---------------------------------------------------------------------
 Center     Atomic      Atomic             Coordinates (Angstroms)
 Number     Number       Type             X           Y           Z
 ---------------------------------------------------------------------
      1          6           0        2.777472    2.365837   -0.084887
      2          6           0        4.055523    2.088800    0.411455
      3          6           0        4.566434    0.788083    0.370787
      4          6           0        3.768546   -0.215991   -0.175566
      5          6           0        2.491418    0.028394   -0.678070
      6          6           0        2.000868    1.336565   -0.627110
      7          1           0        2.388492    3.379161   -0.049298
      8          1           0        4.660876    2.886165    0.833119
      9          1           0        5.552528    0.545697    0.747992
     10          1           0        1.911496   -0.787330   -1.092439
     11          1           0        1.007967    1.548790   -1.013315
     12          7           0        4.298647   -1.596947   -0.224068
     13          8           0        3.575847   -2.463917   -0.710443
     14          8           0        5.426903   -1.786222    0.225210
     15          6           0       -1.344002    0.673622    0.826348
     16          6           0       -2.134135    1.532469    0.055250
     17          6           0       -3.430534    1.163188   -0.315598
     18          6           0       -3.907128   -0.077853    0.103884
     19          6           0       -3.144307   -0.955513    0.872718
     20          6           0       -1.850717   -0.565443    1.231907
     21          1           0       -0.338019    0.968564    1.109904
     22          1           0       -1.743228    2.495348   -0.261137
     23          1           0       -4.063765    1.808692   -0.912054
     24          1           0       -3.561523   -1.908995    1.173087
     25          1           0       -1.239346   -1.234467    1.830805
     26          7           0       -5.278082   -0.479798   -0.282544
     27          8           0       -5.674712   -1.578529    0.099703
     28          8           0       -5.930046    0.311498   -0.960357
 ---------------------------------------------------------------------

 SCF Done:  E(RHF) =  -868.336865923     A.U. after   16 cycles
 E2 =    -0.2601038579D+01 EUMP2 =    -0.87093790450214D+03

 The electronic state is 1-A.
 Alpha  occ. eigenvalues --  -20.61487 -20.61479 -20.61121 -20.61110 -15.86546
 Alpha  occ. eigenvalues --  -15.86178 -11.32077 -11.31666 -11.28691 -11.28641
 Alpha  occ. eigenvalues --  -11.28478 -11.28305 -11.28217 -11.27984 -11.27746
 Alpha  occ. eigenvalues --  -11.27671 -11.27399 -11.27221  -1.60560  -1.60191
 Alpha  occ. eigenvalues --   -1.40108  -1.39741  -1.20286  -1.19864  -1.09656
 Alpha  occ. eigenvalues --   -1.09243  -1.05707  -1.05284  -0.96447  -0.96052
 Alpha  occ. eigenvalues --   -0.87107  -0.86679  -0.83282  -0.82865  -0.78292
 Alpha  occ. eigenvalues --   -0.77896  -0.72757  -0.72392  -0.71891  -0.71517
 Alpha  occ. eigenvalues --   -0.71378  -0.70990  -0.65927  -0.65785  -0.65485
 Alpha  occ. eigenvalues --   -0.65254  -0.63025  -0.62615  -0.56219  -0.55847
 Alpha  occ. eigenvalues --   -0.53981  -0.53840  -0.53512  -0.53373  -0.49531
 Alpha  occ. eigenvalues --   -0.49503  -0.49163  -0.49139  -0.45476  -0.45119
 Alpha  occ. eigenvalues --   -0.38302  -0.37935  -0.37223  -0.36893
 Alpha virt. eigenvalues --    0.04192   0.04673   0.10185   0.10647   0.15522
 Alpha virt. eigenvalues --    0.16198   0.19620   0.21688   0.25409   0.27167
 Alpha virt. eigenvalues --    0.27627   0.28594   0.29835   0.30917   0.31407

 Mulliken charges:
               1
     1  C   -0.173385
     2  C   -0.217987
     3  C   -0.169641
     4  C    0.159052
     5  C   -0.174112
     6  C   -0.229969
     7  H    0.225979
     8  H    0.226687
     9  H    0.278675
    10  H    0.279604
    11  H    0.225980
    12  N    0.487800
    13  O   -0.458646
    14  O   -0.457775
    15  C   -0.178779
    16  C   -0.224458
    17  C   -0.169629
    18  C    0.158620
    19  C   -0.169371
    20  C   -0.220430
    21  H    0.230808
    22  H    0.216904
    23  H    0.276576
    24  H    0.278707
    25  H    0.228606
    26  N    0.488055
    27  O   -0.458011
    28  O   -0.459860
 Sum of Mulliken charges =  -0.00000

 Dipole moment (field-independent basis, Debye):
    X=              3.0757    Y=              6.1006    Z=              1.5761  Tot=              7.0115
 Quadrupole moment (field-independent basis, Debye-Ang):
   XX=           -152.2214   YY=           -103.6172   ZZ=           -103.7359
   XY=             14.1572   XZ=             -1.5047   YZ=             -2.5649

 Normal termination of Gaussian 16 at Thu May  6 00:28:29 2021.
