 Gaussian 16, Revision A.03,
 Gaussian 16:  EM64L-G16RevA.03 25-Dec-2016

 -------------
 #p 6-31g* mp2
 -------------

 ------------------------------------------------------
 Input file generated by CHIRIPA (05-May-2021 14:55:20)
 ------------------------------------------------------
 Symbolic Z-matrix:
 Charge =  0 Multiplicity = 1

                         Standard orientation:
 ---------------------------------------------------------------------
 Center     Atomic      Atomic             Coordinates (Angstroms)
 Number     Number       Type             X           Y           Z
 ---------------------------------------------------------------------
      1          6           0       -0.881633    0.389512    0.699722
      2          6           0       -1.516580    1.165141   -0.275861
      3          6           0       -2.844765    0.911532   -0.631045
      4          6           0       -3.511043   -0.130237    0.012446
      5          6           0       -2.905854   -0.920678    0.988273
      6          6           0       -1.577070   -0.649091    1.327568
      7          1           0        0.150366    0.593504    0.969466
      8          1           0       -0.978954    1.972380   -0.765115
      9          1           0       -3.360518    1.496413   -1.382929
     10          1           0       -3.467712   -1.718568    1.458491
     11          1           0       -1.086498   -1.253089    2.085573
     12          7           0       -4.917450   -0.408238   -0.355161
     13          8           0       -5.482554   -1.331783    0.226525
     14          8           0       -5.428058    0.302674   -1.218018
     15          6           0        4.315184   -0.598538    0.171647
     16          6           0        4.990714   -1.522035   -0.842649
     17          6           0        5.219547   -2.932108   -0.297560
     18          1           0        4.932577   -0.546764    1.078891
     19          1           0        3.353561   -1.036860    0.472562
     20          1           0        5.950141   -1.081419   -1.142604
     21          1           0        4.371736   -1.571465   -1.747657
     22          1           0        4.268413   -3.395186   -0.015594
     23          1           0        5.855787   -2.902356    0.592898
     24          1           0        5.703506   -3.575496   -1.038974
     25          6           0        4.079698    0.814652   -0.358609
     26          6           0        3.404168    1.738148    0.655688
     27          6           0        3.175335    3.148221    0.110599
     28          1           0        5.041321    1.252973   -0.659523
     29          1           0        3.462304    0.762876   -1.265852
     30          1           0        4.023147    1.787578    1.560696
     31          1           0        2.444740    1.297532    0.955642
     32          1           0        2.539094    3.118469   -0.779859
     33          1           0        4.126469    3.611299   -0.171367
     34          1           0        2.691375    3.791609    0.852013
 ---------------------------------------------------------------------

 SCF Done:  E(RHF) =  -669.535502829     A.U. after   15 cycles
 E2 =    -0.2091155189D+01 EUMP2 =    -0.67162665801801D+03

 The electronic state is 1-A.
 Alpha  occ. eigenvalues --  -20.60752 -20.60747 -15.85806 -11.31172 -11.27743
 Alpha  occ. eigenvalues --  -11.27739 -11.27467 -11.26757 -11.26747 -11.22810
 Alpha  occ. eigenvalues --  -11.22334 -11.22277 -11.22210 -11.22143 -11.21640
 Alpha  occ. eigenvalues --   -1.59827  -1.39381  -1.19345  -1.09345  -1.08739
 Alpha  occ. eigenvalues --   -1.04749  -1.04416  -0.96838  -0.95575  -0.87855
 Alpha  occ. eigenvalues --   -0.86145  -0.82410  -0.80501  -0.79135  -0.77453
 Alpha  occ. eigenvalues --   -0.72023  -0.71151  -0.70478  -0.65985  -0.64996
 Alpha  occ. eigenvalues --   -0.64751  -0.62099  -0.61822  -0.60224  -0.58446
 Alpha  occ. eigenvalues --   -0.56128  -0.55269  -0.53532  -0.53252  -0.53078
 Alpha  occ. eigenvalues --   -0.52840  -0.50787  -0.48816  -0.48778  -0.48764
 Alpha  occ. eigenvalues --   -0.47545  -0.46669  -0.46585  -0.44786  -0.44661
 Alpha  occ. eigenvalues --   -0.37324  -0.36355
 Alpha virt. eigenvalues --    0.05080   0.11299   0.16560   0.18614   0.22703
 Alpha virt. eigenvalues --    0.23727   0.24671   0.25889   0.26879   0.27856
 Alpha virt. eigenvalues --    0.29043   0.30074   0.30943   0.31295   0.32023

 Mulliken charges:
               1
     1  C   -0.178458
     2  C   -0.222686
     3  C   -0.170727
     4  C    0.158280
     5  C   -0.170598
     6  C   -0.221568
     7  H    0.238668
     8  H    0.223899
     9  H    0.275605
    10  H    0.275532
    11  H    0.224088
    12  N    0.487958
    13  O   -0.460456
    14  O   -0.460469
    15  C   -0.297845
    16  C   -0.300379
    17  C   -0.476143
    18  H    0.151518
    19  H    0.144497
    20  H    0.153872
    21  H    0.153361
    22  H    0.154886
    23  H    0.155926
    24  H    0.162895
    25  C   -0.298639
    26  C   -0.305298
    27  C   -0.476626
    28  H    0.153808
    29  H    0.149977
    30  H    0.157277
    31  H    0.142728
    32  H    0.152113
    33  H    0.161088
    34  H    0.161915
 Sum of Mulliken charges =  -0.00000

 Dipole moment (field-independent basis, Debye):
    X=              5.2067    Y=              0.9933    Z=              1.2580  Tot=              5.4478
 Quadrupole moment (field-independent basis, Debye-Ang):
   XX=           -128.3322   YY=            -93.2858   ZZ=            -92.9420
   XY=             -3.3367   XZ=             -4.4404   YZ=             -2.6769

 Normal termination of Gaussian 16 at Thu May  6 12:26:34 2021.
