 Gaussian 16, Revision A.03,
 Gaussian 16:  EM64L-G16RevA.03 25-Dec-2016

 -------------
 #p 6-31g* mp2
 -------------

 ------------------------------------------------------
 Input file generated by CHIRIPA (05-May-2021 14:55:21)
 ------------------------------------------------------
 Symbolic Z-matrix:
 Charge =  0 Multiplicity = 1

                         Standard orientation:
 ---------------------------------------------------------------------
 Center     Atomic      Atomic             Coordinates (Angstroms)
 Number     Number       Type             X           Y           Z
 ---------------------------------------------------------------------
      1          6           0       -5.810186   -1.563269    0.344073
      2          6           0       -4.618003   -1.948767   -0.277709
      3          6           0       -3.581688   -1.028007   -0.458813
      4          6           0       -3.772324    0.275838   -0.003911
      5          6           0       -4.948380    0.690372    0.619261
      6          6           0       -5.971285   -0.247250    0.789788
      7          1           0       -6.610011   -2.285087    0.480651
      8          1           0       -4.490105   -2.970126   -0.624858
      9          1           0       -2.648377   -1.299577   -0.936933
     10          1           0       -5.046513    1.715664    0.954767
     11          1           0       -6.896063    0.054950    1.273012
     12          7           0       -2.682321    1.259531   -0.190039
     13          8           0       -2.875061    2.402183    0.219638
     14          8           0       -1.655878    0.869272   -0.742078
     15          6           0        4.363813   -0.463065   -0.035212
     16          6           0        3.288424    0.432994   -0.650517
     17          6           0        1.904041   -0.216046   -0.645196
     18          1           0        4.400348   -1.412643   -0.586493
     19          1           0        4.078183   -0.711324    0.996378
     20          1           0        3.576679    0.680619   -1.680181
     21          1           0        3.254577    1.380624   -0.097826
     22          1           0        1.591180   -0.447860    0.378025
     23          1           0        1.915112   -1.151842   -1.213320
     24          1           0        1.150554    0.441721   -1.089559
     25          6           0        5.753227    0.171958   -0.033307
     26          6           0        6.828617   -0.724101    0.581998
     27          6           0        8.212999   -0.075062    0.576677
     28          1           0        6.038858    0.420216   -1.064897
     29          1           0        5.716692    1.121536    0.517974
     30          1           0        6.862464   -1.671731    0.029308
     31          1           0        6.540362   -0.971727    1.611661
     32          1           0        8.201929    0.860734    1.144800
     33          1           0        8.525861    0.156753   -0.446544
     34          1           0        8.966487   -0.732828    1.021040
 ---------------------------------------------------------------------

 SCF Done:  E(RHF) =  -669.535963826     A.U. after   15 cycles
 E2 =    -0.2090581088D+01 EUMP2 =    -0.67162654491400D+03

 The electronic state is 1-A.
 Alpha  occ. eigenvalues --  -20.60870 -20.60861 -15.85911 -11.31243 -11.27810
 Alpha  occ. eigenvalues --  -11.27801 -11.27552 -11.26821 -11.26810 -11.21153
 Alpha  occ. eigenvalues --  -11.20809 -11.20691 -11.20682 -11.20616 -11.19761
 Alpha  occ. eigenvalues --   -1.59935  -1.39490  -1.19414  -1.08817  -1.07759
 Alpha  occ. eigenvalues --   -1.04812  -1.02786  -0.95660  -0.95215  -0.86239
 Alpha  occ. eigenvalues --   -0.86206  -0.82490  -0.78875  -0.77573  -0.77523
 Alpha  occ. eigenvalues --   -0.72141  -0.71251  -0.70523  -0.65070  -0.64816
 Alpha  occ. eigenvalues --   -0.64401  -0.62158  -0.60196  -0.58601  -0.56805
 Alpha  occ. eigenvalues --   -0.55318  -0.54529  -0.53144  -0.52904  -0.51845
 Alpha  occ. eigenvalues --   -0.51652  -0.49200  -0.48891  -0.48876  -0.47172
 Alpha  occ. eigenvalues --   -0.45940  -0.45097  -0.45033  -0.44891  -0.42996
 Alpha  occ. eigenvalues --   -0.37395  -0.36414
 Alpha virt. eigenvalues --    0.04990   0.11240   0.16482   0.21354   0.23490
 Alpha virt. eigenvalues --    0.25099   0.27266   0.27275   0.28056   0.28129
 Alpha virt. eigenvalues --    0.28925   0.30906   0.32084   0.32243   0.32525

 Mulliken charges:
               1
     1  C   -0.170673
     2  C   -0.218602
     3  C   -0.170830
     4  C    0.157584
     5  C   -0.170668
     6  C   -0.218633
     7  H    0.225791
     8  H    0.223747
     9  H    0.276480
    10  H    0.275701
    11  H    0.223596
    12  N    0.493512
    13  O   -0.459788
    14  O   -0.464754
    15  C   -0.297304
    16  C   -0.299759
    17  C   -0.481744
    18  H    0.146683
    19  H    0.147755
    20  H    0.149383
    21  H    0.153303
    22  H    0.150938
    23  H    0.144915
    24  H    0.187101
    25  C   -0.297690
    26  C   -0.299004
    27  C   -0.475335
    28  H    0.148676
    29  H    0.149702
    30  H    0.150576
    31  H    0.151005
    32  H    0.155060
    33  H    0.154696
    34  H    0.158582
 Sum of Mulliken charges =  -0.00000

 Dipole moment (field-independent basis, Debye):
    X=             -4.1195    Y=             -3.3741    Z=              0.6296  Tot=              5.3620
 Quadrupole moment (field-independent basis, Debye-Ang):
   XX=            -66.8481   YY=            -94.5405   ZZ=            -93.7226
   XY=              9.8503   XZ=             -4.2633   YZ=              2.3215

 Normal termination of Gaussian 16 at Thu May  6 17:29:09 2021.
