 Gaussian 16, Revision A.03,
 Gaussian 16:  EM64L-G16RevA.03 25-Dec-2016

 -------------
 #p 6-31g* mp2
 -------------

 ------------------------------------------------------
 Input file generated by CHIRIPA (05-May-2021 14:51:12)
 ------------------------------------------------------
 Symbolic Z-matrix:
 Charge =  0 Multiplicity = 1

                         Standard orientation:
 ---------------------------------------------------------------------
 Center     Atomic      Atomic             Coordinates (Angstroms)
 Number     Number       Type             X           Y           Z
 ---------------------------------------------------------------------
      1          6           0       -3.302103   -0.015495   -0.437734
      2          6           0       -4.773531   -0.406583   -0.296542
      3          6           0       -5.095512   -1.745944   -0.960043
      4          1           0       -3.042111    0.030095   -1.504164
      5          1           0       -2.676440   -0.803918    0.003096
      6          1           0       -5.396285    0.382994   -0.736271
      7          1           0       -5.030099   -0.451060    0.769671
      8          1           0       -4.498973   -2.549250   -0.515699
      9          1           0       -4.867239   -1.710457   -2.030198
     10          1           0       -6.152596   -2.006086   -0.847079
     11          6           0       -2.964667    1.321140    0.220499
     12          6           0       -1.493239    1.712228    0.079306
     13          6           0       -1.171258    3.051589    0.742807
     14          1           0       -3.590330    2.109563   -0.220331
     15          1           0       -3.224659    1.275551    1.286928
     16          1           0       -1.236671    1.756705   -0.986907
     17          1           0       -0.870485    0.922652    0.519036
     18          1           0       -1.399531    3.016103    1.812963
     19          1           0       -1.767797    3.854895    0.298464
     20          1           0       -0.114174    3.311731    0.629844
     21          6           0        2.761274   -1.271433    0.358190
     22          6           0        1.294285   -1.001917    0.694772
     23          6           0        0.563235   -2.249088    1.192692
     24          1           0        2.816930   -2.059929   -0.404780
     25          1           0        3.268902   -1.663432    1.250403
     26          1           0        0.789903   -0.609240   -0.197428
     27          1           0        1.242108   -0.213837    1.456889
     28          1           0        1.040383   -2.639937    2.097219
     29          1           0        0.585608   -3.037586    0.433502
     30          1           0       -0.483851   -2.033777    1.427450
     31          6           0        3.505496   -0.034212   -0.140954
     32          6           0        4.972486   -0.303729   -0.477535
     33          6           0        5.703535    0.943442   -0.975457
     34          1           0        2.997868    0.357786   -1.033168
     35          1           0        3.449840    0.754283    0.622016
     36          1           0        5.024662   -1.091809   -1.239654
     37          1           0        5.476868   -0.696405    0.414663
     38          1           0        5.681162    1.731941   -0.216267
     39          1           0        5.226387    1.334291   -1.879983
     40          1           0        6.750621    0.728132   -1.210215
 ---------------------------------------------------------------------

 SCF Done:  E(RHF) =  -470.732613756     A.U. after   11 cycles
 E2 =    -0.1583746316D+01 EUMP2 =    -0.47231636007265D+03

 The electronic state is 1-A.
 Alpha  occ. eigenvalues --  -11.21613 -11.21609 -11.21589 -11.21451 -11.21421
 Alpha  occ. eigenvalues --  -11.21376 -11.21361 -11.21305 -11.21144 -11.21080
 Alpha  occ. eigenvalues --  -11.21059 -11.21013  -1.08468  -1.08379  -1.03586
 Alpha  occ. eigenvalues --   -1.03465  -0.96013  -0.95942  -0.87034  -0.86952
 Alpha  occ. eigenvalues --   -0.79786  -0.79438  -0.78380  -0.78082  -0.65090
 Alpha  occ. eigenvalues --   -0.65031  -0.60957  -0.60907  -0.59459  -0.59238
 Alpha  occ. eigenvalues --   -0.57636  -0.57544  -0.55299  -0.55233  -0.52723
 Alpha  occ. eigenvalues --   -0.52623  -0.52450  -0.52354  -0.49957  -0.49894
 Alpha  occ. eigenvalues --   -0.48250  -0.47673  -0.46676  -0.46582  -0.45998
 Alpha  occ. eigenvalues --   -0.45774  -0.45673  -0.45287  -0.43806  -0.43736
 Alpha virt. eigenvalues --    0.20839   0.23018   0.23969   0.24190   0.25955
 Alpha virt. eigenvalues --    0.26201   0.26849   0.27417   0.28510   0.29304
 Alpha virt. eigenvalues --    0.30974   0.31050   0.31609   0.31901   0.32372

 Mulliken charges:
               1
     1  C   -0.301790
     2  C   -0.299434
     3  C   -0.475730
     4  H    0.149353
     5  H    0.151967
     6  H    0.152051
     7  H    0.151838
     8  H    0.155283
     9  H    0.155059
    10  H    0.160215
    11  C   -0.297226
    12  C   -0.310301
    13  C   -0.475341
    14  H    0.149099
    15  H    0.148936
    16  H    0.150044
    17  H    0.166631
    18  H    0.154414
    19  H    0.154782
    20  H    0.160107
    21  C   -0.297042
    22  C   -0.305114
    23  C   -0.478876
    24  H    0.149694
    25  H    0.149341
    26  H    0.157142
    27  H    0.152008
    28  H    0.155632
    29  H    0.155969
    30  H    0.161215
    31  C   -0.298435
    32  C   -0.299661
    33  C   -0.475718
    34  H    0.149737
    35  H    0.149517
    36  H    0.151984
    37  H    0.151953
    38  H    0.155187
    39  H    0.155201
    40  H    0.160308
 Sum of Mulliken charges =  -0.00000

 Dipole moment (field-independent basis, Debye):
    X=              0.0399    Y=             -0.0253    Z=             -0.0020  Tot=              0.0473
 Quadrupole moment (field-independent basis, Debye-Ang):
   XX=            -85.3958   YY=            -86.1694   ZZ=            -83.4083
   XY=             -0.8990   XZ=              0.5165   YZ=             -0.3050

 Normal termination of Gaussian 16 at Wed May  5 21:30:14 2021.
