 Gaussian 16, Revision A.03,
 Gaussian 16:  EM64L-G16RevA.03 25-Dec-2016

 -------------
 #p 6-31g* mp2
 -------------

 ------------------------------------------------------
 Input file generated by CHIRIPA (05-May-2021 14:51:07)
 ------------------------------------------------------
 Symbolic Z-matrix:
 Charge =  0 Multiplicity = 1

                         Standard orientation:
 ---------------------------------------------------------------------
 Center     Atomic      Atomic             Coordinates (Angstroms)
 Number     Number       Type             X           Y           Z
 ---------------------------------------------------------------------
      1          6           0       -3.528401   -0.212677    0.338407
      2          6           0       -4.463919    0.071693   -0.837146
      3          6           0       -5.697154    0.878382   -0.429496
      4          1           0       -4.082366   -0.755190    1.116705
      5          1           0       -3.213027    0.740094    0.785801
      6          1           0       -4.776336   -0.881291   -1.283052
      7          1           0       -3.907611    0.613424   -1.612816
      8          1           0       -5.402974    1.843324   -0.004118
      9          1           0       -6.276635    0.340117    0.327519
     10          1           0       -6.352158    1.070315   -1.285061
     11          6           0       -2.290946   -1.018296   -0.053272
     12          6           0       -1.355428   -1.302666    1.122281
     13          6           0       -0.122193   -2.109356    0.714632
     14          1           0       -2.606320   -1.971067   -0.500666
     15          1           0       -1.736980   -0.475783   -0.831569
     16          1           0       -1.911736   -1.844397    1.897952
     17          1           0       -1.043011   -0.349682    1.568188
     18          1           0        0.457288   -1.571090   -0.042383
     19          1           0       -0.416373   -3.074297    0.289254
     20          1           0        0.532811   -2.301288    1.570197
     21          6           0        3.241598   -0.020096    0.120668
     22          6           0        3.405211   -1.104610   -0.944718
     23          6           0        4.070773   -2.369988   -0.402834
     24          1           0        4.228141    0.230942    0.533774
     25          1           0        2.646787   -0.420572    0.953263
     26          1           0        3.998367   -0.701767   -1.775682
     27          1           0        2.418185   -1.352959   -1.355472
     28          1           0        3.478227   -2.798142    0.412133
     29          1           0        5.067387   -2.143252   -0.010465
     30          1           0        4.177858   -3.132038   -1.181083
     31          6           0        2.577749    1.251070   -0.405804
     32          6           0        2.414135    2.335582    0.659582
     33          6           0        1.748573    3.600961    0.117699
     34          1           0        3.172560    1.651545   -1.238398
     35          1           0        1.591206    1.000031   -0.818910
     36          1           0        3.401162    2.583932    1.070336
     37          1           0        1.820981    1.932741    1.490546
     38          1           0        0.751961    3.374225   -0.274671
     39          1           0        2.341120    4.029116   -0.697269
     40          1           0        1.641489    4.363012    0.895947
 ---------------------------------------------------------------------

 SCF Done:  E(RHF) =  -470.732817637     A.U. after   11 cycles
 E2 =    -0.1583994704D+01 EUMP2 =    -0.47231681234087D+03

 The electronic state is 1-A.
 Alpha  occ. eigenvalues --  -11.21681 -11.21638 -11.21628 -11.21551 -11.21469
 Alpha  occ. eigenvalues --  -11.21409 -11.21405 -11.21307 -11.21131 -11.21105
 Alpha  occ. eigenvalues --  -11.21096 -11.21009  -1.08503  -1.08414  -1.03606
 Alpha  occ. eigenvalues --   -1.03504  -0.96044  -0.95964  -0.87083  -0.86963
 Alpha  occ. eigenvalues --   -0.79660  -0.79582  -0.78307  -0.78235  -0.65330
 Alpha  occ. eigenvalues --   -0.64916  -0.61121  -0.60793  -0.59430  -0.59315
 Alpha  occ. eigenvalues --   -0.57649  -0.57578  -0.55394  -0.55171  -0.52735
 Alpha  occ. eigenvalues --   -0.52666  -0.52477  -0.52379  -0.50149  -0.49740
 Alpha  occ. eigenvalues --   -0.48019  -0.47874  -0.46721  -0.46580  -0.45938
 Alpha  occ. eigenvalues --   -0.45788  -0.45711  -0.45570  -0.43832  -0.43772
 Alpha virt. eigenvalues --    0.19741   0.22937   0.23857   0.24755   0.25225
 Alpha virt. eigenvalues --    0.26253   0.27250   0.27744   0.28101   0.29549
 Alpha virt. eigenvalues --    0.30559   0.31244   0.31712   0.32132   0.32368

 Mulliken charges:
               1
     1  C   -0.298364
     2  C   -0.299722
     3  C   -0.475761
     4  H    0.149904
     5  H    0.149603
     6  H    0.152038
     7  H    0.151993
     8  H    0.155310
     9  H    0.155240
    10  H    0.160423
    11  C   -0.298664
    12  C   -0.300132
    13  C   -0.483350
    14  H    0.149962
    15  H    0.149124
    16  H    0.152410
    17  H    0.151702
    18  H    0.163542
    19  H    0.155663
    20  H    0.160121
    21  C   -0.302415
    22  C   -0.301881
    23  C   -0.476691
    24  H    0.149925
    25  H    0.154230
    26  H    0.151948
    27  H    0.153549
    28  H    0.157165
    29  H    0.154763
    30  H    0.160033
    31  C   -0.299063
    32  C   -0.299761
    33  C   -0.475613
    34  H    0.149831
    35  H    0.148521
    36  H    0.152286
    37  H    0.151838
    38  H    0.154543
    39  H    0.155395
    40  H    0.160353
 Sum of Mulliken charges =  -0.00000

 Dipole moment (field-independent basis, Debye):
    X=             -0.0145    Y=             -0.0192    Z=              0.0094  Tot=              0.0259
 Quadrupole moment (field-independent basis, Debye-Ang):
   XX=            -84.7607   YY=            -85.1503   ZZ=            -84.7971
   XY=              1.8100   XZ=             -0.2644   YZ=             -0.1070

 Normal termination of Gaussian 16 at Thu May  6 09:59:21 2021.
