 Gaussian 16, Revision A.03,
 Gaussian 16:  EM64L-G16RevA.03 25-Dec-2016

 -------------
 #p 6-31g* mp2
 -------------

 ------------------------------------------------------
 Input file generated by CHIRIPA (05-May-2021 14:57:23)
 ------------------------------------------------------
 Symbolic Z-matrix:
 Charge =  0 Multiplicity = 1

                         Standard orientation:
 ---------------------------------------------------------------------
 Center     Atomic      Atomic             Coordinates (Angstroms)
 Number     Number       Type             X           Y           Z
 ---------------------------------------------------------------------
      1          6           0       -3.539110    2.114041    1.414068
      2          6           0       -4.632072    1.267104    1.202755
      3          6           0       -4.505477    0.132434    0.395882
      4          6           0       -3.265752   -0.126268   -0.186739
      5          6           0       -2.158211    0.698345    0.004721
      6          6           0       -2.307838    1.827463    0.815432
      7          1           0       -3.646398    2.993323    2.042357
      8          1           0       -5.589494    1.487183    1.666385
      9          1           0       -5.335204   -0.540186    0.215457
     10          1           0       -1.216454    0.452819   -0.470913
     11          1           0       -1.457310    2.483428    0.977776
     12          7           0       -3.119540   -1.324554   -1.042971
     13          8           0       -2.016662   -1.530401   -1.544893
     14          8           0       -4.110584   -2.035233   -1.195950
     15          6           0        2.886235   -2.103913    1.484785
     16          6           0        1.859380   -1.602061    0.678415
     17          6           0        2.071732   -0.476393   -0.123038
     18          6           0        3.328869    0.125289   -0.093512
     19          6           0        4.371969   -0.350973    0.699210
     20          6           0        4.137048   -1.477871    1.492595
     21          1           0        2.712509   -2.978837    2.104240
     22          1           0        0.886972   -2.086213    0.670339
     23          1           0        1.294438   -0.066924   -0.756731
     24          1           0        5.330668    0.153152    0.686069
     25          1           0        4.936368   -1.865420    2.117845
     26          7           0        3.565624    1.317634   -0.937704
     27          8           0        4.682151    1.829568   -0.893799
     28          8           0        2.630181    1.717684   -1.627301
 ---------------------------------------------------------------------

 SCF Done:  E(RHF) =  -868.338723448     A.U. after   16 cycles
 E2 =    -0.2599478885D+01 EUMP2 =    -0.87093820233281D+03

 The electronic state is 1-A.
 Alpha  occ. eigenvalues --  -20.61300 -20.61260 -20.60886 -20.60871 -15.86321
 Alpha  occ. eigenvalues --  -15.85928 -11.31556 -11.31213 -11.28139 -11.28072
 Alpha  occ. eigenvalues --  -11.27762 -11.27761 -11.27747 -11.27430 -11.27062
 Alpha  occ. eigenvalues --  -11.27032 -11.26757 -11.26662  -1.60351  -1.59957
 Alpha  occ. eigenvalues --   -1.39912  -1.39514  -1.19699  -1.19356  -1.09110
 Alpha  occ. eigenvalues --   -1.08760  -1.05077  -1.04733  -0.95975  -0.95617
 Alpha  occ. eigenvalues --   -0.86484  -0.86135  -0.82806  -0.82441  -0.77901
 Alpha  occ. eigenvalues --   -0.77500  -0.72542  -0.72146  -0.71668  -0.71280
 Alpha  occ. eigenvalues --   -0.70827  -0.70446  -0.65346  -0.65087  -0.64990
 Alpha  occ. eigenvalues --   -0.64706  -0.62510  -0.62000  -0.55570  -0.55223
 Alpha  occ. eigenvalues --   -0.53413  -0.53187  -0.53068  -0.52781  -0.49314
 Alpha  occ. eigenvalues --   -0.49276  -0.48912  -0.48893  -0.45343  -0.44938
 Alpha  occ. eigenvalues --   -0.37658  -0.37325  -0.36677  -0.36327
 Alpha virt. eigenvalues --    0.04621   0.04996   0.10966   0.11297   0.16168
 Alpha virt. eigenvalues --    0.16525   0.19441   0.22022   0.24760   0.27524
 Alpha virt. eigenvalues --    0.27962   0.29401   0.31028   0.31169   0.31643

 Mulliken charges:
               1
     1  C   -0.170429
     2  C   -0.218513
     3  C   -0.170353
     4  C    0.157577
     5  C   -0.175956
     6  C   -0.220550
     7  H    0.227877
     8  H    0.224759
     9  H    0.276083
    10  H    0.276793
    11  H    0.229602
    12  N    0.487408
    13  O   -0.467120
    14  O   -0.457082
    15  C   -0.171209
    16  C   -0.220757
    17  C   -0.181566
    18  C    0.160430
    19  C   -0.171411
    20  C   -0.218339
    21  H    0.226861
    22  H    0.233066
    23  H    0.279480
    24  H    0.275121
    25  H    0.223467
    26  N    0.487376
    27  O   -0.459813
    28  O   -0.462802
 Sum of Mulliken charges =  -0.00000

 Dipole moment (field-independent basis, Debye):
    X=             -1.4845    Y=              0.0161    Z=              6.0851  Tot=              6.2635
 Quadrupole moment (field-independent basis, Debye-Ang):
   XX=            -97.4715   YY=           -107.5778   ZZ=           -107.2445
   XY=            -26.9494   XZ=              1.0450   YZ=             -0.4411

 Normal termination of Gaussian 16 at Thu May  6 14:37:53 2021.
