 Gaussian 16, Revision A.03,
 Gaussian 16:  EM64L-G16RevA.03 25-Dec-2016

 -------------
 #p 6-31g* mp2
 -------------

 ------------------------------------------------------
 Input file generated by CHIRIPA (05-May-2021 14:55:21)
 ------------------------------------------------------
 Symbolic Z-matrix:
 Charge =  0 Multiplicity = 1

                         Standard orientation:
 ---------------------------------------------------------------------
 Center     Atomic      Atomic             Coordinates (Angstroms)
 Number     Number       Type             X           Y           Z
 ---------------------------------------------------------------------
      1          6           0       -4.207903    1.132076    0.976404
      2          6           0       -4.121686   -0.178403    1.457789
      3          6           0       -3.228345   -1.088130    0.884303
      4          6           0       -2.432636   -0.651655   -0.173820
      5          6           0       -2.495368    0.647354   -0.675746
      6          6           0       -3.395900    1.540053   -0.086952
      7          1           0       -4.904665    1.832160    1.427848
      8          1           0       -4.751068   -0.498018    2.283483
      9          1           0       -3.141156   -2.108530    1.237290
     10          1           0       -1.854999    0.936727   -1.500130
     11          1           0       -3.460715    2.557173   -0.462866
     12          7           0       -1.483089   -1.605729   -0.789047
     13          8           0       -0.793018   -1.196512   -1.720165
     14          8           0       -1.446885   -2.744684   -0.328495
     15          6           0        3.840274    0.120495   -0.117196
     16          6           0        4.788225   -0.274104    1.015793
     17          6           0        5.835214   -1.299783    0.580371
     18          1           0        3.337973   -0.779812   -0.496780
     19          1           0        4.427440    0.526508   -0.952531
     20          1           0        4.199328   -0.677969    1.849285
     21          1           0        5.288185    0.627274    1.392851
     22          1           0        6.447519   -0.902602   -0.235675
     23          1           0        5.352476   -2.215261    0.223352
     24          1           0        6.502288   -1.567669    1.405665
     25          6           0        2.787905    1.145200    0.302601
     26          6           0        1.839954    1.539800   -0.830388
     27          6           0        0.792965    2.565479   -0.394967
     28          1           0        2.200739    0.739187    1.137936
     29          1           0        3.290206    2.045507    0.682185
     30          1           0        1.339994    0.638421   -1.207448
     31          1           0        2.428850    1.943664   -1.663881
     32          1           0        1.275704    3.480958   -0.037948
     33          1           0        0.180660    2.168298    0.421079
     34          1           0        0.125891    2.833365   -1.220260
 ---------------------------------------------------------------------

 SCF Done:  E(RHF) =  -669.536119881     A.U. after   15 cycles
 E2 =    -0.2092473138D+01 EUMP2 =    -0.67162859301836D+03

 The electronic state is 1-A.
 Alpha  occ. eigenvalues --  -20.60975 -20.60963 -15.85990 -11.31258 -11.27832
 Alpha  occ. eigenvalues --  -11.27803 -11.27558 -11.26822 -11.26803 -11.21113
 Alpha  occ. eigenvalues --  -11.21055 -11.20993 -11.20913 -11.20773 -11.20584
 Alpha  occ. eigenvalues --   -1.60027  -1.39584  -1.19433  -1.08845  -1.07932
 Alpha  occ. eigenvalues --   -1.04820  -1.03112  -0.95715  -0.95591  -0.86635
 Alpha  occ. eigenvalues --   -0.86215  -0.82530  -0.79153  -0.77732  -0.77578
 Alpha  occ. eigenvalues --   -0.72218  -0.71340  -0.70543  -0.65088  -0.64833
 Alpha  occ. eigenvalues --   -0.64540  -0.62189  -0.60490  -0.58985  -0.57207
 Alpha  occ. eigenvalues --   -0.55336  -0.54913  -0.53153  -0.52914  -0.52319
 Alpha  occ. eigenvalues --   -0.52023  -0.49532  -0.48984  -0.48968  -0.47488
 Alpha  occ. eigenvalues --   -0.46188  -0.45357  -0.45250  -0.44743  -0.43363
 Alpha  occ. eigenvalues --   -0.37412  -0.36387
 Alpha virt. eigenvalues --    0.04883   0.11206   0.16358   0.20785   0.23318
 Alpha virt. eigenvalues --    0.24261   0.26629   0.27174   0.27755   0.28277
 Alpha virt. eigenvalues --    0.29112   0.30762   0.31521   0.31778   0.32486

 Mulliken charges:
               1
     1  C   -0.170484
     2  C   -0.218843
     3  C   -0.170869
     4  C    0.156537
     5  C   -0.168644
     6  C   -0.219465
     7  H    0.226032
     8  H    0.223648
     9  H    0.275524
    10  H    0.278944
    11  H    0.224470
    12  N    0.488516
    13  O   -0.460452
    14  O   -0.458819
    15  C   -0.300287
    16  C   -0.299241
    17  C   -0.475877
    18  H    0.159098
    19  H    0.148229
    20  H    0.151501
    21  H    0.149248
    22  H    0.154257
    23  H    0.158159
    24  H    0.158268
    25  C   -0.297112
    26  C   -0.312679
    27  C   -0.477526
    28  H    0.147543
    29  H    0.145894
    30  H    0.176672
    31  H    0.150266
    32  H    0.154235
    33  H    0.154287
    34  H    0.148972
 Sum of Mulliken charges =  -0.00000

 Dipole moment (field-independent basis, Debye):
    X=             -3.4483    Y=              3.1777    Z=              2.1093  Tot=              5.1417
 Quadrupole moment (field-independent basis, Debye-Ang):
   XX=            -79.1062   YY=            -97.3319   ZZ=            -93.9737
   XY=             -4.1584   XZ=             -6.2461   YZ=             -4.8477

 Normal termination of Gaussian 16 at Thu May  6 04:36:10 2021.
