 Gaussian 16, Revision A.03,
 Gaussian 16:  EM64L-G16RevA.03 25-Dec-2016

 -------------
 #p 6-31g* mp2
 -------------

 ------------------------------------------------------
 Input file generated by CHIRIPA (05-May-2021 14:55:25)
 ------------------------------------------------------
 Symbolic Z-matrix:
 Charge =  0 Multiplicity = 1

                         Standard orientation:
 ---------------------------------------------------------------------
 Center     Atomic      Atomic             Coordinates (Angstroms)
 Number     Number       Type             X           Y           Z
 ---------------------------------------------------------------------
      1          6           0        1.241697   -0.443825    2.085324
      2          6           0        0.858004   -0.753557    0.776367
      3          6           0        1.742191   -0.555713   -0.288348
      4          6           0        3.008019   -0.044185   -0.006729
      5          6           0        3.419731    0.274094    1.286516
      6          6           0        2.519084    0.068109    2.335779
      7          1           0        0.548446   -0.600677    2.906419
      8          1           0       -0.133396   -1.151268    0.578893
      9          1           0        1.471116   -0.786949   -1.311318
     10          1           0        4.414697    0.669115    1.452098
     11          1           0        2.819787    0.309546    3.351323
     12          7           0        3.952780    0.169573   -1.125716
     13          8           0        5.062328    0.621443   -0.851210
     14          8           0        3.565848   -0.118802   -2.256097
     15          6           0       -3.369432   -0.550725   -0.507769
     16          6           0       -4.027365   -1.798315    0.082679
     17          6           0       -3.453492   -3.095547   -0.487979
     18          1           0       -3.494422   -0.559738   -1.599209
     19          1           0       -2.288064   -0.589676   -0.316663
     20          1           0       -5.107360   -1.756348   -0.108275
     21          1           0       -3.900960   -1.786234    1.172859
     22          1           0       -2.379899   -3.164070   -0.284746
     23          1           0       -3.593153   -3.134015   -1.573159
     24          1           0       -3.938073   -3.974818   -0.052177
     25          6           0       -3.932483    0.754027    0.052874
     26          6           0       -3.274550    2.001618   -0.537575
     27          6           0       -3.848424    3.298850    0.033084
     28          1           0       -5.013850    0.792979   -0.138233
     29          1           0       -3.807493    0.763041    1.144313
     30          1           0       -3.400954    1.989537   -1.627754
     31          1           0       -2.194554    1.959651   -0.346620
     32          1           0       -3.708761    3.337317    1.118265
     33          1           0       -4.922016    3.367373   -0.170150
     34          1           0       -3.363840    4.178120   -0.402719
 ---------------------------------------------------------------------

 SCF Done:  E(RHF) =  -669.535474956     A.U. after   15 cycles
 E2 =    -0.2091396866D+01 EUMP2 =    -0.67162687182259D+03

 The electronic state is 1-A.
 Alpha  occ. eigenvalues --  -20.60765 -20.60759 -15.85819 -11.31196 -11.27775
 Alpha  occ. eigenvalues --  -11.27768 -11.27524 -11.26788 -11.26771 -11.22409
 Alpha  occ. eigenvalues --  -11.22258 -11.22116 -11.22036 -11.21873 -11.21488
 Alpha  occ. eigenvalues --   -1.59840  -1.39393  -1.19375  -1.09159  -1.08767
 Alpha  occ. eigenvalues --   -1.04780  -1.04187  -0.96643  -0.95599  -0.87655
 Alpha  occ. eigenvalues --   -0.86180  -0.82434  -0.80253  -0.78972  -0.77473
 Alpha  occ. eigenvalues --   -0.72037  -0.71163  -0.70483  -0.65865  -0.65027
 Alpha  occ. eigenvalues --   -0.64753  -0.62145  -0.61568  -0.60009  -0.58244
 Alpha  occ. eigenvalues --   -0.55952  -0.55283  -0.53305  -0.53116  -0.53071
 Alpha  occ. eigenvalues --   -0.52868  -0.50592  -0.48805  -0.48791  -0.48557
 Alpha  occ. eigenvalues --   -0.47297  -0.46486  -0.46420  -0.44796  -0.44459
 Alpha  occ. eigenvalues --   -0.37357  -0.36379
 Alpha virt. eigenvalues --    0.05057   0.11215   0.16486   0.18854   0.22816
 Alpha virt. eigenvalues --    0.23462   0.25092   0.26498   0.27319   0.28321
 Alpha virt. eigenvalues --    0.29030   0.30025   0.31140   0.31459   0.31963

 Mulliken charges:
               1
     1  C   -0.172158
     2  C   -0.225798
     3  C   -0.172646
     4  C    0.158595
     5  C   -0.170790
     6  C   -0.218528
     7  H    0.225816
     8  H    0.232845
     9  H    0.276193
    10  H    0.275728
    11  H    0.223452
    12  N    0.488122
    13  O   -0.460518
    14  O   -0.460191
    15  C   -0.302981
    16  C   -0.300405
    17  C   -0.476014
    18  H    0.154670
    19  H    0.141617
    20  H    0.156388
    21  H    0.149395
    22  H    0.148477
    23  H    0.159313
    24  H    0.163828
    25  C   -0.297797
    26  C   -0.300941
    27  C   -0.475997
    28  H    0.152609
    29  H    0.147392
    30  H    0.154497
    31  H    0.152239
    32  H    0.154230
    33  H    0.156241
    34  H    0.163117
 Sum of Mulliken charges =  -0.00000

 Dipole moment (field-independent basis, Debye):
    X=             -3.4856    Y=             -0.7095    Z=              3.8855  Tot=              5.2678
 Quadrupole moment (field-independent basis, Debye-Ang):
   XX=           -111.6181   YY=            -95.6583   ZZ=            -92.5573
   XY=             -0.4250   XZ=             15.4165   YZ=              0.7882

 Normal termination of Gaussian 16 at Thu May  6 04:49:15 2021.
