 Gaussian 16, Revision A.03,
 Gaussian 16:  EM64L-G16RevA.03 25-Dec-2016

 -------------
 #p 6-31g* mp2
 -------------

 ------------------------------------------------------
 Input file generated by CHIRIPA (05-May-2021 14:51:13)
 ------------------------------------------------------
 Symbolic Z-matrix:
 Charge =  0 Multiplicity = 1

                         Standard orientation:
 ---------------------------------------------------------------------
 Center     Atomic      Atomic             Coordinates (Angstroms)
 Number     Number       Type             X           Y           Z
 ---------------------------------------------------------------------
      1          6           0       -2.328653   -0.117734    0.021321
      2          6           0       -3.352014   -0.989146    0.750264
      3          6           0       -3.016578   -2.479222    0.679888
      4          1           0       -2.270589   -0.432731   -1.029560
      5          1           0       -1.334171   -0.291540    0.455131
      6          1           0       -4.344491   -0.812718    0.316125
      7          1           0       -3.407788   -0.671912    1.799486
      8          1           0       -2.038558   -2.675657    1.130988
      9          1           0       -2.980584   -2.817263   -0.360801
     10          1           0       -3.761055   -3.083675    1.207382
     11          6           0       -2.650292    1.374412    0.082788
     12          6           0       -1.626932    2.245825   -0.646155
     13          6           0       -1.962367    3.735900   -0.575779
     14          1           0       -3.644774    1.548218   -0.351023
     15          1           0       -2.708356    1.689409    1.133669
     16          1           0       -1.571157    1.928590   -1.695377
     17          1           0       -0.634454    2.069396   -0.212017
     18          1           0       -1.998361    4.073941    0.464910
     19          1           0       -2.940387    3.932335   -1.026880
     20          1           0       -1.217891    4.340353   -1.103274
     21          6           0        2.441889   -1.337574   -0.331614
     22          6           0        1.020544   -1.901083   -0.316825
     23          6           0        0.941569   -3.320699   -0.879183
     24          1           0        2.822525   -1.346972   -1.362135
     25          1           0        3.097670   -2.000312    0.249871
     26          1           0        0.367359   -1.236742   -0.897012
     27          1           0        0.643177   -1.890165    0.713753
     28          1           0        1.569971   -4.001590   -0.296003
     29          1           0        1.292587   -3.344455   -1.915920
     30          1           0       -0.083388   -3.704004   -0.859166
     31          6           0        2.537056    0.080895    0.227506
     32          6           0        3.958402    0.644405    0.212716
     33          6           0        4.037376    2.064021    0.775074
     34          1           0        1.881275    0.743633   -0.353979
     35          1           0        2.156420    0.090293    1.258027
     36          1           0        4.335768    0.633486   -0.817861
     37          1           0        4.611587   -0.019936    0.792903
     38          1           0        3.686358    2.087776    1.811812
     39          1           0        3.408974    2.744912    0.191894
     40          1           0        5.062333    2.447325    0.755058
 ---------------------------------------------------------------------

 SCF Done:  E(RHF) =  -470.732017939     A.U. after   11 cycles
 E2 =    -0.1585068311D+01 EUMP2 =    -0.47231708624988D+03

 The electronic state is 1-A.
 Alpha  occ. eigenvalues --  -11.21620 -11.21596 -11.21567 -11.21506 -11.21415
 Alpha  occ. eigenvalues --  -11.21340 -11.21337 -11.21228 -11.21091 -11.21069
 Alpha  occ. eigenvalues --  -11.21064 -11.21000  -1.08471  -1.08355  -1.03566
 Alpha  occ. eigenvalues --   -1.03465  -0.95977  -0.95949  -0.87040  -0.86924
 Alpha  occ. eigenvalues --   -0.79741  -0.79488  -0.78533  -0.77906  -0.65062
 Alpha  occ. eigenvalues --   -0.65029  -0.60968  -0.60875  -0.59491  -0.59191
 Alpha  occ. eigenvalues --   -0.57641  -0.57512  -0.55295  -0.55213  -0.52685
 Alpha  occ. eigenvalues --   -0.52662  -0.52572  -0.52208  -0.49940  -0.49878
 Alpha  occ. eigenvalues --   -0.48124  -0.47764  -0.46683  -0.46583  -0.46402
 Alpha  occ. eigenvalues --   -0.45817  -0.45545  -0.44881  -0.43766  -0.43739
 Alpha virt. eigenvalues --    0.21198   0.22121   0.23455   0.24716   0.24982
 Alpha virt. eigenvalues --    0.25821   0.26533   0.27146   0.29035   0.29851
 Alpha virt. eigenvalues --    0.30577   0.31105   0.31394   0.31921   0.32192

 Mulliken charges:
               1
     1  C   -0.304879
     2  C   -0.299387
     3  C   -0.479054
     4  H    0.147957
     5  H    0.160185
     6  H    0.151463
     7  H    0.151392
     8  H    0.158481
     9  H    0.155203
    10  H    0.160098
    11  C   -0.297236
    12  C   -0.304210
    13  C   -0.475315
    14  H    0.148956
    15  H    0.149248
    16  H    0.150967
    17  H    0.155738
    18  H    0.155384
    19  H    0.155253
    20  H    0.159882
    21  C   -0.297546
    22  C   -0.304897
    23  C   -0.478321
    24  H    0.149504
    25  H    0.149110
    26  H    0.159967
    27  H    0.150640
    28  H    0.154497
    29  H    0.154577
    30  H    0.163491
    31  C   -0.302939
    32  C   -0.299270
    33  C   -0.475823
    34  H    0.153499
    35  H    0.148554
    36  H    0.152148
    37  H    0.152113
    38  H    0.154967
    39  H    0.155175
    40  H    0.160430
 Sum of Mulliken charges =  -0.00000

 Dipole moment (field-independent basis, Debye):
    X=              0.0106    Y=             -0.0050    Z=             -0.0006  Tot=              0.0118
 Quadrupole moment (field-independent basis, Debye-Ang):
   XX=            -84.7102   YY=            -87.0224   ZZ=            -83.2921
   XY=             -0.0536   XZ=              0.5042   YZ=             -0.6156

 Normal termination of Gaussian 16 at Wed May  5 23:11:58 2021.
