 Gaussian 16, Revision A.03,
 Gaussian 16:  EM64L-G16RevA.03 25-Dec-2016

 -------------
 #p 6-31g* mp2
 -------------

 ------------------------------------------------------
 Input file generated by CHIRIPA (05-May-2021 14:57:22)
 ------------------------------------------------------
 Symbolic Z-matrix:
 Charge =  0 Multiplicity = 1

                         Standard orientation:
 ---------------------------------------------------------------------
 Center     Atomic      Atomic             Coordinates (Angstroms)
 Number     Number       Type             X           Y           Z
 ---------------------------------------------------------------------
      1          6           0       -2.177461    0.235358    2.264836
      2          6           0       -1.624748   -0.389311    1.141974
      3          6           0       -2.370800   -0.528810   -0.032119
      4          6           0       -3.672346   -0.029811   -0.048450
      5          6           0       -4.251031    0.597412    1.053822
      6          6           0       -3.486530    0.725861    2.217260
      7          1           0       -1.590744    0.339432    3.172761
      8          1           0       -0.608358   -0.771195    1.176049
      9          1           0       -1.967617   -1.008128   -0.915927
     10          1           0       -5.266863    0.968056    0.989576
     11          1           0       -3.918365    1.211436    3.087767
     12          7           0       -4.471924   -0.171643   -1.285769
     13          8           0       -5.616356    0.276449   -1.274594
     14          8           0       -3.939060   -0.728218   -2.243328
     15          6           0        3.760169    2.490597   -0.538409
     16          6           0        2.493601    1.898944   -0.490746
     17          6           0        2.359975    0.523474   -0.279149
     18          6           0        3.519336   -0.233724   -0.118455
     19          6           0        4.795153    0.326440   -0.160832
     20          6           0        4.904885    1.703844   -0.373590
     21          1           0        3.854692    3.559846   -0.703233
     22          1           0        1.602856    2.507482   -0.618421
     23          1           0        1.391708    0.039571   -0.237740
     24          1           0        5.664720   -0.306166   -0.030131
     25          1           0        5.889805    2.160617   -0.410134
     26          7           0        3.390520   -1.690897    0.106169
     27          8           0        4.427430   -2.336050    0.244845
     28          8           0        2.255083   -2.160282    0.139299
 ---------------------------------------------------------------------

 SCF Done:  E(RHF) =  -868.338603130     A.U. after   16 cycles
 E2 =    -0.2599561994D+01 EUMP2 =    -0.87093816512394D+03

 The electronic state is 1-A.
 Alpha  occ. eigenvalues --  -20.61522 -20.61477 -20.60799 -20.60791 -15.86540
 Alpha  occ. eigenvalues --  -15.85851 -11.31810 -11.31237 -11.28413 -11.28313
 Alpha  occ. eigenvalues --  -11.28028 -11.27826 -11.27787 -11.27546 -11.27336
 Alpha  occ. eigenvalues --  -11.27307 -11.26834 -11.26760  -1.60561  -1.59874
 Alpha  occ. eigenvalues --   -1.40124  -1.39426  -1.19956  -1.19414  -1.09359
 Alpha  occ. eigenvalues --   -1.08801  -1.05346  -1.04813  -0.96219  -0.95631
 Alpha  occ. eigenvalues --   -0.86751  -0.86201  -0.83054  -0.82459  -0.78141
 Alpha  occ. eigenvalues --   -0.77495  -0.72760  -0.72066  -0.71874  -0.71201
 Alpha  occ. eigenvalues --   -0.71067  -0.70506  -0.65607  -0.65370  -0.65056
 Alpha  occ. eigenvalues --   -0.64776  -0.62745  -0.62091  -0.55829  -0.55299
 Alpha  occ. eigenvalues --   -0.53674  -0.53468  -0.53144  -0.52842  -0.49531
 Alpha  occ. eigenvalues --   -0.49490  -0.48827  -0.48821  -0.45545  -0.44827
 Alpha  occ. eigenvalues --   -0.37912  -0.37401  -0.36942  -0.36430
 Alpha virt. eigenvalues --    0.04384   0.05004   0.10674   0.11200   0.15932
 Alpha virt. eigenvalues --    0.16376   0.19795   0.21840   0.25226   0.27232
 Alpha virt. eigenvalues --    0.28263   0.28901   0.30250   0.31098   0.32386

 Mulliken charges:
               1
     1  C   -0.171542
     2  C   -0.232105
     3  C   -0.174447
     4  C    0.158361
     5  C   -0.171128
     6  C   -0.218934
     7  H    0.226948
     8  H    0.237425
     9  H    0.278698
    10  H    0.275629
    11  H    0.223351
    12  N    0.487909
    13  O   -0.460781
    14  O   -0.459366
    15  C   -0.170331
    16  C   -0.219732
    17  C   -0.174443
    18  C    0.158769
    19  C   -0.170197
    20  C   -0.218134
    21  H    0.228120
    22  H    0.226900
    23  H    0.271195
    24  H    0.277098
    25  H    0.225732
    26  N    0.489346
    27  O   -0.455346
    28  O   -0.468996
 Sum of Mulliken charges =  -0.00000

 Dipole moment (field-independent basis, Debye):
    X=              3.4759    Y=              5.6835    Z=              3.5627  Tot=              7.5549
 Quadrupole moment (field-independent basis, Debye-Ang):
   XX=           -113.5984   YY=           -107.1400   ZZ=           -105.3479
   XY=             14.0217   XZ=            -20.9400   YZ=              0.4793

 Normal termination of Gaussian 16 at Thu May  6 00:12:04 2021.
