 Gaussian 16, Revision A.03,
 Gaussian 16:  EM64L-G16RevA.03 25-Dec-2016

 -------------
 #p 6-31g* mp2
 -------------

 ------------------------------------------------------
 Input file generated by CHIRIPA (05-May-2021 14:53:18)
 ------------------------------------------------------
 Symbolic Z-matrix:
 Charge =  0 Multiplicity = 1

                         Standard orientation:
 ---------------------------------------------------------------------
 Center     Atomic      Atomic             Coordinates (Angstroms)
 Number     Number       Type             X           Y           Z
 ---------------------------------------------------------------------
      1          6           0        5.213160    0.247806   -0.164845
      2          6           0        6.613832   -0.297901    0.114987
      3          6           0        7.693977    0.389584   -0.720744
      4          1           0        4.985623    0.125831   -1.232691
      5          1           0        5.201241    1.328067    0.035876
      6          1           0        6.622742   -1.377063   -0.084876
      7          1           0        6.837986   -0.174787    1.182327
      8          1           0        7.714163    1.464703   -0.515042
      9          1           0        7.497696    0.255596   -1.789445
     10          1           0        8.687383   -0.015853   -0.504817
     11          6           0        4.122521   -0.429550    0.663058
     12          6           0        2.721849    0.116157    0.383226
     13          6           0        1.641704   -0.571328    1.218957
     14          1           0        4.134441   -1.509811    0.462338
     15          1           0        4.350058   -0.307575    1.730904
     16          1           0        2.497695   -0.006957   -0.684114
     17          1           0        2.712939    1.195319    0.583089
     18          1           0        1.837985   -0.437340    2.287658
     19          1           0        1.621518   -1.646447    1.013255
     20          1           0        0.648298   -0.165891    1.003030
     21          6           0       -6.109055   -0.139038    0.314173
     22          6           0       -5.466462    1.094553    0.461976
     23          6           0       -4.102537    1.222575    0.182928
     24          6           0       -3.408703    0.091299   -0.243802
     25          6           0       -4.020642   -1.151359   -0.400720
     26          6           0       -5.385371   -1.256088   -0.115944
     27          1           0       -7.168896   -0.229443    0.533169
     28          1           0       -6.025970    1.963764    0.795844
     29          1           0       -3.580097    2.165581    0.288831
     30          1           0       -3.436397   -1.999966   -0.735298
     31          1           0       -5.881800   -2.215370   -0.231624
     32          7           0       -1.964353    0.214501   -0.542250
     33          8           0       -1.375458   -0.797239   -0.916713
     34          8           0       -1.448514    1.320473   -0.396059
 ---------------------------------------------------------------------

 SCF Done:  E(RHF) =  -669.536257761     A.U. after   15 cycles
 E2 =    -0.2091529872D+01 EUMP2 =    -0.67162778763300D+03

 The electronic state is 1-A.
 Alpha  occ. eigenvalues --  -20.61020 -20.61014 -15.86023 -11.31330 -11.27887
 Alpha  occ. eigenvalues --  -11.27883 -11.27622 -11.26887 -11.26877 -11.20855
 Alpha  occ. eigenvalues --  -11.20447 -11.20440 -11.20226 -11.20040 -11.19310
 Alpha  occ. eigenvalues --   -1.60070  -1.39622  -1.19493  -1.08902  -1.07354
 Alpha  occ. eigenvalues --   -1.04884  -1.02366  -0.95748  -0.94826  -0.86285
 Alpha  occ. eigenvalues --   -0.85864  -0.82581  -0.78490  -0.77641  -0.77107
 Alpha  occ. eigenvalues --   -0.72233  -0.71397  -0.70602  -0.65146  -0.64888
 Alpha  occ. eigenvalues --   -0.63997  -0.62231  -0.59774  -0.58255  -0.56405
 Alpha  occ. eigenvalues --   -0.55383  -0.54146  -0.53222  -0.52975  -0.51533
 Alpha  occ. eigenvalues --   -0.51275  -0.49013  -0.48957  -0.48785  -0.46761
 Alpha  occ. eigenvalues --   -0.45553  -0.45033  -0.44657  -0.44553  -0.42609
 Alpha  occ. eigenvalues --   -0.37467  -0.36483
 Alpha virt. eigenvalues --    0.04847   0.11173   0.16355   0.21310   0.23861
 Alpha virt. eigenvalues --    0.25562   0.27232   0.27670   0.28182   0.28542
 Alpha virt. eigenvalues --    0.29221   0.30861   0.32428   0.32484   0.32741

 Mulliken charges:
               1
     1  C   -0.297398
     2  C   -0.298715
     3  C   -0.475099
     4  H    0.149749
     5  H    0.148269
     6  H    0.150641
     7  H    0.150165
     8  H    0.154282
     9  H    0.154693
    10  H    0.157698
    11  C   -0.297849
    12  C   -0.296809
    13  C   -0.478075
    14  H    0.146972
    15  H    0.145386
    16  H    0.159003
    17  H    0.150052
    18  H    0.142493
    19  H    0.150629
    20  H    0.178029
    21  C   -0.170410
    22  C   -0.218637
    23  C   -0.170747
    24  C    0.160532
    25  C   -0.170660
    26  C   -0.218641
    27  H    0.226150
    28  H    0.223965
    29  H    0.275973
    30  H    0.276045
    31  H    0.223982
    32  N    0.485837
    33  O   -0.457705
    34  O   -0.459801
 Sum of Mulliken charges =  -0.00000

 Dipole moment (field-independent basis, Debye):
    X=             -5.5084    Y=             -0.3995    Z=              0.9164  Tot=              5.5984
 Quadrupole moment (field-independent basis, Debye-Ang):
   XX=            -62.6867   YY=            -89.8778   ZZ=            -95.8982
   XY=              0.7249   XZ=             -2.2655   YZ=              2.4277

 Normal termination of Gaussian 16 at Thu May  6 04:25:54 2021.
