 Gaussian 16, Revision A.03,
 Gaussian 16:  EM64L-G16RevA.03 25-Dec-2016

 -------------
 #p 6-31g* mp2
 -------------

 ------------------------------------------------------
 Input file generated by CHIRIPA (05-May-2021 14:53:16)
 ------------------------------------------------------
 Symbolic Z-matrix:
 Charge =  0 Multiplicity = 1

                         Standard orientation:
 ---------------------------------------------------------------------
 Center     Atomic      Atomic             Coordinates (Angstroms)
 Number     Number       Type             X           Y           Z
 ---------------------------------------------------------------------
      1          6           0        3.745586   -0.504870   -0.282900
      2          6           0        2.923056   -1.626010   -0.918883
      3          6           0        3.687717   -2.947606   -0.999329
      4          1           0        4.668098   -0.361713   -0.862057
      5          1           0        4.054329   -0.812899    0.725658
      6          1           0        2.614788   -1.315398   -1.925416
      7          1           0        2.002304   -1.766385   -0.338257
      8          1           0        3.982109   -3.283799    0.000125
      9          1           0        4.598074   -2.830249   -1.596052
     10          1           0        3.081120   -3.735169   -1.457199
     11          6           0        2.994713    0.822635   -0.195455
     12          6           0        3.817243    1.943775    0.440528
     13          6           0        3.052583    3.265371    0.520974
     14          1           0        2.685970    1.130665   -1.204014
     15          1           0        2.072201    0.679478    0.383702
     16          1           0        4.737995    2.084150   -0.140098
     17          1           0        4.125511    1.633163    1.447061
     18          1           0        2.142226    3.148014    1.117697
     19          1           0        2.758190    3.601564   -0.478480
     20          1           0        3.659179    4.052934    0.978843
     21          6           0       -4.350930    1.178197   -1.124002
     22          6           0       -3.105943    1.749450   -0.840810
     23          6           0       -2.146411    1.037093   -0.115280
     24          6           0       -2.466840   -0.250031    0.313586
     25          6           0       -3.698332   -0.846527    0.047299
     26          6           0       -4.642636   -0.115688   -0.679826
     27          1           0       -5.090403    1.738751   -1.688231
     28          1           0       -2.876644    2.754112   -1.184499
     29          1           0       -1.174713    1.455213    0.117954
     30          1           0       -3.897872   -1.849977    0.403232
     31          1           0       -5.608685   -0.561860   -0.898290
     32          7           0       -1.459086   -1.013954    1.082517
     33          8           0       -1.765898   -2.146263    1.449097
     34          8           0       -0.381478   -0.465944    1.304065
 ---------------------------------------------------------------------

 SCF Done:  E(RHF) =  -669.536652400     A.U. after   15 cycles
 E2 =    -0.2091635154D+01 EUMP2 =    -0.67162828755327D+03

 The electronic state is 1-A.
 Alpha  occ. eigenvalues --  -20.61029 -20.61024 -15.86052 -11.31311 -11.27871
 Alpha  occ. eigenvalues --  -11.27862 -11.27602 -11.26868 -11.26855 -11.20995
 Alpha  occ. eigenvalues --  -11.20739 -11.20578 -11.20498 -11.20437 -11.20224
 Alpha  occ. eigenvalues --   -1.60080  -1.39639  -1.19476  -1.08893  -1.07594
 Alpha  occ. eigenvalues --   -1.04864  -1.02789  -0.95745  -0.95260  -0.86289
 Alpha  occ. eigenvalues --   -0.86268  -0.82584  -0.78853  -0.77676  -0.77357
 Alpha  occ. eigenvalues --   -0.72281  -0.71384  -0.70587  -0.65139  -0.64868
 Alpha  occ. eigenvalues --   -0.64192  -0.62212  -0.60177  -0.58646  -0.56868
 Alpha  occ. eigenvalues --   -0.55374  -0.54545  -0.53199  -0.52956  -0.51991
 Alpha  occ. eigenvalues --   -0.51706  -0.49240  -0.49027  -0.49017  -0.47181
 Alpha  occ. eigenvalues --   -0.45850  -0.45292  -0.44945  -0.44535  -0.43008
 Alpha  occ. eigenvalues --   -0.37454  -0.36462
 Alpha virt. eigenvalues --    0.04856   0.11192   0.16338   0.20985   0.23496
 Alpha virt. eigenvalues --    0.24715   0.26429   0.27450   0.27767   0.28653
 Alpha virt. eigenvalues --    0.29180   0.31063   0.31704   0.32320   0.32591

 Mulliken charges:
               1
     1  C   -0.295693
     2  C   -0.305815
     3  C   -0.474947
     4  H    0.144257
     5  H    0.151638
     6  H    0.144592
     7  H    0.169502
     8  H    0.156611
     9  H    0.150686
    10  H    0.158224
    11  C   -0.311464
    12  C   -0.298047
    13  C   -0.475866
    14  H    0.140710
    15  H    0.174855
    16  H    0.149030
    17  H    0.153874
    18  H    0.154111
    19  H    0.150059
    20  H    0.158895
    21  C   -0.170388
    22  C   -0.218904
    23  C   -0.170465
    24  C    0.157745
    25  C   -0.170732
    26  C   -0.218661
    27  H    0.226118
    28  H    0.224354
    29  H    0.277017
    30  H    0.275771
    31  H    0.223861
    32  N    0.493613
    33  O   -0.458271
    34  O   -0.466268
 Sum of Mulliken charges =  -0.00000

 Dipole moment (field-independent basis, Debye):
    X=             -3.8282    Y=              2.5884    Z=             -2.5459  Tot=              5.2761
 Quadrupole moment (field-independent basis, Debye-Ang):
   XX=            -76.3056   YY=            -94.8573   ZZ=            -96.6346
   XY=             -2.7098   XZ=              5.8354   YZ=              0.6140

 Normal termination of Gaussian 16 at Thu May  6 17:15:43 2021.
