 Gaussian 16, Revision A.03,
 Gaussian 16:  EM64L-G16RevA.03 25-Dec-2016

 -------------
 #p 6-31g* mp2
 -------------

 ------------------------------------------------------
 Input file generated by CHIRIPA (05-May-2021 14:51:14)
 ------------------------------------------------------
 Symbolic Z-matrix:
 Charge =  0 Multiplicity = 1

                         Standard orientation:
 ---------------------------------------------------------------------
 Center     Atomic      Atomic             Coordinates (Angstroms)
 Number     Number       Type             X           Y           Z
 ---------------------------------------------------------------------
      1          6           0       -3.490195    0.558625    0.168110
      2          6           0       -3.619001   -0.939677   -0.108449
      3          6           0       -5.011256   -1.482892    0.214564
      4          1           0       -3.724795    0.751640    1.223881
      5          1           0       -4.242080    1.099493   -0.423097
      6          1           0       -2.866184   -1.477441    0.482052
      7          1           0       -3.383880   -1.129172   -1.163639
      8          1           0       -5.772408   -0.972598   -0.384476
      9          1           0       -5.251770   -1.322847    1.270566
     10          1           0       -5.081142   -2.555707    0.009514
     11          6           0       -2.104022    1.116403   -0.149908
     12          6           0       -1.975216    2.614705    0.126651
     13          6           0       -0.582961    3.157920   -0.196363
     14          1           0       -1.352137    0.575535    0.441298
     15          1           0       -1.869422    0.923388   -1.205680
     16          1           0       -2.210337    2.804200    1.181841
     17          1           0       -2.728033    3.152470   -0.463850
     18          1           0       -0.342447    2.997875   -1.252364
     19          1           0        0.178191    2.647626    0.402677
     20          1           0       -0.513075    4.230735    0.008687
     21          6           0        2.048518   -0.914844   -0.139730
     22          6           0        1.546061   -2.347476    0.042178
     23          6           0        0.046584   -2.486137   -0.222651
     24          1           0        1.492504   -0.249589    0.534977
     25          1           0        1.823523   -0.581856   -1.162417
     26          1           0        1.773175   -2.678150    1.063789
     27          1           0        2.103468   -3.009427   -0.632902
     28          1           0       -0.193460   -2.182366   -1.246713
     29          1           0       -0.525631   -1.849206    0.459619
     30          1           0       -0.291313   -3.518251   -0.086909
     31          6           0        3.545699   -0.760183    0.121528
     32          6           0        4.048156    0.672447   -0.060379
     33          6           0        5.547633    0.811109    0.204449
     34          1           0        3.770695   -1.093172    1.144216
     35          1           0        4.101713   -1.425440   -0.553178
     36          1           0        3.490749    1.334399    0.614700
     37          1           0        3.821042    1.003122   -1.081990
     38          1           0        6.119848    0.174178   -0.477820
     39          1           0        5.787677    0.507338    1.228511
     40          1           0        5.885530    1.843223    0.068708
 ---------------------------------------------------------------------

 SCF Done:  E(RHF) =  -470.732558694     A.U. after   11 cycles
 E2 =    -0.1584156305D+01 EUMP2 =    -0.47231671499843D+03

 The electronic state is 1-A.
 Alpha  occ. eigenvalues --  -11.21586 -11.21576 -11.21570 -11.21488 -11.21394
 Alpha  occ. eigenvalues --  -11.21352 -11.21335 -11.21293 -11.21058 -11.21042
 Alpha  occ. eigenvalues --  -11.21006 -11.21000  -1.08433  -1.08367  -1.03518
 Alpha  occ. eigenvalues --   -1.03469  -0.95965  -0.95927  -0.86999  -0.86930
 Alpha  occ. eigenvalues --   -0.79648  -0.79493  -0.78359  -0.78041  -0.65154
 Alpha  occ. eigenvalues --   -0.64931  -0.60960  -0.60838  -0.59343  -0.59294
 Alpha  occ. eigenvalues --   -0.57616  -0.57488  -0.55275  -0.55207  -0.52692
 Alpha  occ. eigenvalues --   -0.52634  -0.52384  -0.52327  -0.49960  -0.49855
 Alpha  occ. eigenvalues --   -0.48031  -0.47794  -0.46745  -0.46561  -0.46086
 Alpha  occ. eigenvalues --   -0.45779  -0.45603  -0.45056  -0.43765  -0.43727
 Alpha virt. eigenvalues --    0.20743   0.22796   0.23796   0.24022   0.24914
 Alpha virt. eigenvalues --    0.26217   0.26676   0.27500   0.28877   0.29816
 Alpha virt. eigenvalues --    0.30875   0.31149   0.31733   0.31796   0.31979

 Mulliken charges:
               1
     1  C   -0.298535
     2  C   -0.303523
     3  C   -0.475384
     4  H    0.148788
     5  H    0.149217
     6  H    0.157983
     7  H    0.151984
     8  H    0.154716
     9  H    0.154583
    10  H    0.160162
    11  C   -0.301755
    12  C   -0.299686
    13  C   -0.476239
    14  H    0.153395
    15  H    0.149729
    16  H    0.151407
    17  H    0.151882
    18  H    0.155315
    19  H    0.155835
    20  H    0.159938
    21  C   -0.299906
    22  C   -0.300445
    23  C   -0.478453
    24  H    0.150787
    25  H    0.150152
    26  H    0.151274
    27  H    0.151728
    28  H    0.155918
    29  H    0.159717
    30  H    0.159392
    31  C   -0.298388
    32  C   -0.299707
    33  C   -0.475727
    34  H    0.149245
    35  H    0.149766
    36  H    0.151932
    37  H    0.152335
    38  H    0.155145
    39  H    0.155039
    40  H    0.160385
 Sum of Mulliken charges =  -0.00000

 Dipole moment (field-independent basis, Debye):
    X=              0.0116    Y=             -0.0140    Z=             -0.0184  Tot=              0.0258
 Quadrupole moment (field-independent basis, Debye-Ang):
   XX=            -86.9252   YY=            -85.1604   ZZ=            -82.9113
   XY=             -0.8260   XZ=              0.0988   YZ=              0.0530

 Normal termination of Gaussian 16 at Wed May  5 15:22:51 2021.
