 Gaussian 16, Revision A.03,
 Gaussian 16:  EM64L-G16RevA.03 25-Dec-2016

 -------------
 #p 6-31g* mp2
 -------------

 ------------------------------------------------------
 Input file generated by CHIRIPA (05-May-2021 14:55:25)
 ------------------------------------------------------
 Symbolic Z-matrix:
 Charge =  0 Multiplicity = 1

                         Standard orientation:
 ---------------------------------------------------------------------
 Center     Atomic      Atomic             Coordinates (Angstroms)
 Number     Number       Type             X           Y           Z
 ---------------------------------------------------------------------
      1          6           0        4.747999    1.954193   -0.007591
      2          6           0        5.164146    0.666045    0.344571
      3          6           0        4.260337   -0.400494    0.331475
      4          6           0        2.942007   -0.141897   -0.040581
      5          6           0        2.496977    1.130277   -0.396684
      6          6           0        3.418087    2.181797   -0.376444
      7          1           0        5.456820    2.776873    0.005357
      8          1           0        6.196353    0.486341    0.631448
      9          1           0        4.555667   -1.407653    0.599487
     10          1           0        1.461496    1.278395   -0.678215
     11          1           0        3.092090    3.181150   -0.650421
     12          7           0        1.976027   -1.263044   -0.058226
     13          8           0        0.820086   -1.009031   -0.389758
     14          8           0        2.393124   -2.374584    0.259810
     15          6           0       -3.412335   -0.547960    0.220906
     16          6           0       -3.652038   -1.952489   -0.333914
     17          6           0       -2.528676   -2.927521    0.019873
     18          1           0       -2.457767   -0.165771   -0.165976
     19          1           0       -3.306238   -0.605875    1.313052
     20          1           0       -3.759028   -1.891763   -1.424547
     21          1           0       -4.606238   -2.331304    0.054181
     22          1           0       -2.424673   -3.017705    1.105990
     23          1           0       -1.572650   -2.575665   -0.381140
     24          1           0       -2.720404   -3.925458   -0.386603
     25          6           0       -4.526770    0.438184   -0.124464
     26          6           0       -4.287067    1.842713    0.430355
     27          6           0       -5.410428    2.817745    0.076568
     28          1           0       -4.632866    0.496099   -1.216611
     29          1           0       -5.481338    0.055994    0.262418
     30          1           0       -3.332867    2.221528    0.042260
     31          1           0       -4.180076    1.781987    1.520988
     32          1           0       -6.366455    2.465889    0.477582
     33          1           0       -5.514433    2.907928   -1.009549
     34          1           0       -5.218700    3.815682    0.483045
 ---------------------------------------------------------------------

 SCF Done:  E(RHF) =  -669.536416542     A.U. after   15 cycles
 E2 =    -0.2091243453D+01 EUMP2 =    -0.67162765999493D+03

 The electronic state is 1-A.
 Alpha  occ. eigenvalues --  -20.61028 -20.61011 -15.86045 -11.31337 -11.27897
 Alpha  occ. eigenvalues --  -11.27891 -11.27627 -11.26896 -11.26886 -11.21125
 Alpha  occ. eigenvalues --  -11.20721 -11.20662 -11.20392 -11.20292 -11.19310
 Alpha  occ. eigenvalues --   -1.60071  -1.39630  -1.19501  -1.08910  -1.07560
 Alpha  occ. eigenvalues --   -1.04893  -1.02594  -0.95758  -0.95016  -0.86295
 Alpha  occ. eigenvalues --   -0.86028  -0.82594  -0.78724  -0.77652  -0.77289
 Alpha  occ. eigenvalues --   -0.72267  -0.71380  -0.70610  -0.65159  -0.64896
 Alpha  occ. eigenvalues --   -0.64199  -0.62241  -0.59992  -0.58484  -0.56617
 Alpha  occ. eigenvalues --   -0.55399  -0.54294  -0.53225  -0.52985  -0.51739
 Alpha  occ. eigenvalues --   -0.51431  -0.49229  -0.49013  -0.48744  -0.46975
 Alpha  occ. eigenvalues --   -0.45761  -0.45070  -0.44827  -0.44674  -0.42857
 Alpha  occ. eigenvalues --   -0.37478  -0.36492
 Alpha virt. eigenvalues --    0.04883   0.11164   0.16386   0.21246   0.23611
 Alpha virt. eigenvalues --    0.25292   0.26991   0.27392   0.27952   0.28656
 Alpha virt. eigenvalues --    0.29076   0.30887   0.32169   0.32384   0.32643

 Mulliken charges:
               1
     1  C   -0.170494
     2  C   -0.218597
     3  C   -0.170458
     4  C    0.157624
     5  C   -0.170527
     6  C   -0.218513
     7  H    0.226172
     8  H    0.223985
     9  H    0.276031
    10  H    0.275391
    11  H    0.224011
    12  N    0.491367
    13  O   -0.462644
    14  O   -0.457900
    15  C   -0.299703
    16  C   -0.298344
    17  C   -0.486497
    18  H    0.158599
    19  H    0.147000
    20  H    0.148094
    21  H    0.145594
    22  H    0.150237
    23  H    0.186619
    24  H    0.152719
    25  C   -0.297633
    26  C   -0.297961
    27  C   -0.475044
    28  H    0.147584
    29  H    0.147667
    30  H    0.148217
    31  H    0.151074
    32  H    0.155065
    33  H    0.154127
    34  H    0.157140
 Sum of Mulliken charges =  -0.00000

 Dipole moment (field-independent basis, Debye):
    X=              3.8158    Y=              3.9197    Z=              0.0385  Tot=              5.4704
 Quadrupole moment (field-independent basis, Debye-Ang):
   XX=            -73.9018   YY=            -95.3469   ZZ=            -94.5462
   XY=              9.3536   XZ=              0.8354   YZ=             -1.3286

 Normal termination of Gaussian 16 at Thu May  6 16:03:28 2021.
