 Gaussian 16, Revision A.03,
 Gaussian 16:  EM64L-G16RevA.03 25-Dec-2016

 -------------
 #p 6-31g* mp2
 -------------

 ------------------------------------------------------
 Input file generated by CHIRIPA (05-May-2021 14:57:21)
 ------------------------------------------------------
 Symbolic Z-matrix:
 Charge =  0 Multiplicity = 1

                         Standard orientation:
 ---------------------------------------------------------------------
 Center     Atomic      Atomic             Coordinates (Angstroms)
 Number     Number       Type             X           Y           Z
 ---------------------------------------------------------------------
      1          6           0        2.015843    2.044390    1.218476
      2          6           0        1.666137    0.703231    1.406935
      3          6           0        2.381874   -0.313675    0.768052
      4          6           0        3.446428    0.048072   -0.056056
      5          6           0        3.819213    1.375152   -0.263857
      6          6           0        3.089373    2.375487    0.385151
      7          1           0        1.454364    2.827911    1.718708
      8          1           0        0.832885    0.443149    2.053537
      9          1           0        2.132641   -1.360031    0.896273
     10          1           0        4.654742    1.603356   -0.914419
     11          1           0        3.363213    3.416203    0.236938
     12          7           0        4.211612   -1.019709   -0.737772
     13          8           0        5.145345   -0.674789   -1.458749
     14          8           0        3.863140   -2.181338   -0.538215
     15          6           0       -4.470929    1.856352   -0.901238
     16          6           0       -3.158583    1.927658   -0.422504
     17          6           0       -2.511204    0.781361    0.048085
     18          6           0       -3.209079   -0.425182    0.025387
     19          6           0       -4.517128   -0.528476   -0.445386
     20          6           0       -5.144825    0.630673   -0.911133
     21          1           0       -4.966182    2.751814   -1.264922
     22          1           0       -2.632780    2.878183   -0.413631
     23          1           0       -1.495696    0.808110    0.424175
     24          1           0       -5.015493   -1.490264   -0.441719
     25          1           0       -6.164058    0.572313   -1.282351
     26          7           0       -2.534147   -1.645517    0.521015
     27          8           0       -3.170742   -2.696445    0.490455
     28          8           0       -1.381319   -1.527981    0.930665
 ---------------------------------------------------------------------

 SCF Done:  E(RHF) =  -868.338882239     A.U. after   16 cycles
 E2 =    -0.2599967956D+01 EUMP2 =    -0.87093885019549D+03

 The electronic state is 1-A.
 Alpha  occ. eigenvalues --  -20.61437 -20.61376 -20.60397 -20.60370 -15.86459
 Alpha  occ. eigenvalues --  -15.85439 -11.31715 -11.30848 -11.28305 -11.28242
 Alpha  occ. eigenvalues --  -11.27990 -11.27504 -11.27313 -11.27306 -11.27295
 Alpha  occ. eigenvalues --  -11.27234 -11.26560 -11.26383  -1.60465  -1.59462
 Alpha  occ. eigenvalues --   -1.40030  -1.39011  -1.19877  -1.19055  -1.09288
 Alpha  occ. eigenvalues --   -1.08473  -1.05272  -1.04430  -0.96144  -0.95281
 Alpha  occ. eigenvalues --   -0.86676  -0.85852  -0.82994  -0.82077  -0.78062
 Alpha  occ. eigenvalues --   -0.77086  -0.72692  -0.71774  -0.71657  -0.70990
 Alpha  occ. eigenvalues --   -0.70787  -0.70196  -0.65541  -0.65289  -0.64701
 Alpha  occ. eigenvalues --   -0.64425  -0.62634  -0.61722  -0.55770  -0.55028
 Alpha  occ. eigenvalues --   -0.53597  -0.53390  -0.52788  -0.52496  -0.49439
 Alpha  occ. eigenvalues --   -0.49406  -0.48429  -0.48399  -0.45455  -0.44404
 Alpha  occ. eigenvalues --   -0.37844  -0.37121  -0.36868  -0.36025
 Alpha virt. eigenvalues --    0.04481   0.05405   0.10783   0.11424   0.15998
 Alpha virt. eigenvalues --    0.16813   0.20401   0.21933   0.26075   0.27148
 Alpha virt. eigenvalues --    0.28505   0.28836   0.30330   0.31250   0.32149

 Mulliken charges:
               1
     1  C   -0.176429
     2  C   -0.226066
     3  C   -0.168608
     4  C    0.157087
     5  C   -0.171277
     6  C   -0.219112
     7  H    0.220068
     8  H    0.234170
     9  H    0.288570
    10  H    0.274470
    11  H    0.220504
    12  N    0.487807
    13  O   -0.463101
    14  O   -0.456108
    15  C   -0.169863
    16  C   -0.219485
    17  C   -0.172180
    18  C    0.158020
    19  C   -0.169615
    20  C   -0.218514
    21  H    0.227021
    22  H    0.222046
    23  H    0.272699
    24  H    0.277350
    25  H    0.225491
    26  N    0.490894
    27  O   -0.454487
    28  O   -0.471350
 Sum of Mulliken charges =  -0.00000

 Dipole moment (field-independent basis, Debye):
    X=             -5.2956    Y=              7.7746    Z=              0.6266  Tot=              9.4277
 Quadrupole moment (field-independent basis, Debye-Ang):
   XX=           -103.0797   YY=           -105.1610   ZZ=           -105.5646
   XY=              4.4158   XZ=             13.9994   YZ=             -0.5361

 Normal termination of Gaussian 16 at Thu May  6 14:27:09 2021.
