 Gaussian 16, Revision A.03,
 Gaussian 16:  EM64L-G16RevA.03 25-Dec-2016

 -------------
 #p 6-31g* mp2
 -------------

 ------------------------------------------------------
 Input file generated by CHIRIPA (05-May-2021 14:51:09)
 ------------------------------------------------------
 Symbolic Z-matrix:
 Charge =  0 Multiplicity = 1

                         Standard orientation:
 ---------------------------------------------------------------------
 Center     Atomic      Atomic             Coordinates (Angstroms)
 Number     Number       Type             X           Y           Z
 ---------------------------------------------------------------------
      1          6           0        3.300327    1.173249    0.313334
      2          6           0        2.709735    2.225653   -0.625619
      3          6           0        2.870266    3.649846   -0.092986
      4          1           0        2.816649    1.255314    1.296323
      5          1           0        4.366238    1.388974    0.470471
      6          1           0        1.645578    2.007207   -0.782037
      7          1           0        3.194740    2.140947   -1.606543
      8          1           0        3.928836    3.892084    0.046120
      9          1           0        2.370872    3.757584    0.875311
     10          1           0        2.441170    4.386075   -0.779792
     11          6           0        3.147579   -0.255490   -0.205415
     12          6           0        3.738170   -1.307893    0.733539
     13          6           0        3.577640   -2.732086    0.200905
     14          1           0        2.081668   -0.471214   -0.362551
     15          1           0        3.631256   -0.337554   -1.188404
     16          1           0        3.253166   -1.223187    1.714462
     17          1           0        4.802328   -1.089447    0.889956
     18          1           0        4.077034   -2.839824   -0.767392
     19          1           0        2.519070   -2.974324    0.061799
     20          1           0        4.006736   -3.468315    0.887711
     21          6           0       -3.978591   -0.348452   -0.095905
     22          6           0       -4.416882    1.034290    0.387738
     23          6           0       -5.929275    1.240095    0.297702
     24          1           0       -4.307858   -0.487939   -1.134689
     25          1           0       -4.490256   -1.116862    0.500032
     26          1           0       -3.903488    1.799875   -0.208015
     27          1           0       -4.086366    1.170576    1.425429
     28          1           0       -6.455957    0.498018    0.906411
     29          1           0       -6.272040    1.130891   -0.736314
     30          1           0       -6.220627    2.235073    0.648406
     31          6           0       -2.469315   -0.569308   -0.012014
     32          6           0       -2.031024   -1.952050   -0.495658
     33          6           0       -0.518631   -2.157855   -0.405620
     34          1           0       -1.957649    0.199102   -0.607951
     35          1           0       -2.140048   -0.429821    1.026769
     36          1           0       -2.361539   -2.088336   -1.533348
     37          1           0       -2.544418   -2.717635    0.100096
     38          1           0       -0.175866   -2.048652    0.628395
     39          1           0        0.008051   -1.415777   -1.014330
     40          1           0       -0.227279   -3.152833   -0.756326
 ---------------------------------------------------------------------

 SCF Done:  E(RHF) =  -470.732901011     A.U. after   11 cycles
 E2 =    -0.1583402538D+01 EUMP2 =    -0.47231630354863D+03

 The electronic state is 1-A.
 Alpha  occ. eigenvalues --  -11.21682 -11.21644 -11.21567 -11.21499 -11.21475
 Alpha  occ. eigenvalues --  -11.21410 -11.21311 -11.21210 -11.21183 -11.21103
 Alpha  occ. eigenvalues --  -11.21042 -11.20925  -1.08500  -1.08342  -1.03608
 Alpha  occ. eigenvalues --   -1.03445  -0.96061  -0.95894  -0.87085  -0.86913
 Alpha  occ. eigenvalues --   -0.79714  -0.79487  -0.78334  -0.78128  -0.65131
 Alpha  occ. eigenvalues --   -0.64980  -0.61001  -0.60856  -0.59433  -0.59266
 Alpha  occ. eigenvalues --   -0.57694  -0.57489  -0.55414  -0.55125  -0.52774
 Alpha  occ. eigenvalues --   -0.52610  -0.52529  -0.52271  -0.50061  -0.49772
 Alpha  occ. eigenvalues --   -0.48082  -0.47793  -0.46719  -0.46542  -0.45989
 Alpha  occ. eigenvalues --   -0.45783  -0.45680  -0.45332  -0.43841  -0.43698
 Alpha virt. eigenvalues --    0.21442   0.22945   0.23806   0.24356   0.25566
 Alpha virt. eigenvalues --    0.26607   0.27180   0.27284   0.28007   0.29460
 Alpha virt. eigenvalues --    0.30378   0.31079   0.31634   0.31942   0.32200

 Mulliken charges:
               1
     1  C   -0.297476
     2  C   -0.299536
     3  C   -0.475597
     4  H    0.149248
     5  H    0.149152
     6  H    0.151052
     7  H    0.151714
     8  H    0.155193
     9  H    0.155213
    10  H    0.159922
    11  C   -0.307231
    12  C   -0.298330
    13  C   -0.481693
    14  H    0.159749
    15  H    0.148483
    16  H    0.150839
    17  H    0.151327
    18  H    0.154345
    19  H    0.163042
    20  H    0.159236
    21  C   -0.298318
    22  C   -0.299706
    23  C   -0.475755
    24  H    0.149897
    25  H    0.149743
    26  H    0.152034
    27  H    0.151941
    28  H    0.155254
    29  H    0.155286
    30  H    0.160425
    31  C   -0.298518
    32  C   -0.300667
    33  C   -0.480355
    34  H    0.149154
    35  H    0.149534
    36  H    0.152463
    37  H    0.152347
    38  H    0.155441
    39  H    0.159746
    40  H    0.161403
 Sum of Mulliken charges =  -0.00000

 Dipole moment (field-independent basis, Debye):
    X=             -0.0778    Y=             -0.0269    Z=             -0.0158  Tot=              0.0838
 Quadrupole moment (field-independent basis, Debye-Ang):
   XX=            -85.3437   YY=            -85.9414   ZZ=            -83.7098
   XY=              0.4352   XZ=             -0.5719   YZ=             -0.6184

 Normal termination of Gaussian 16 at Thu May  6 00:35:14 2021.
