 Gaussian 16, Revision A.03,
 Gaussian 16:  EM64L-G16RevA.03 25-Dec-2016

 -------------
 #p 6-31g* mp2
 -------------

 ------------------------------------------------------
 Input file generated by CHIRIPA (05-May-2021 14:57:27)
 ------------------------------------------------------
 Symbolic Z-matrix:
 Charge =  0 Multiplicity = 1

                         Standard orientation:
 ---------------------------------------------------------------------
 Center     Atomic      Atomic             Coordinates (Angstroms)
 Number     Number       Type             X           Y           Z
 ---------------------------------------------------------------------
      1          6           0        2.754441    2.496627   -0.209521
      2          6           0        2.157407    1.700825    0.773724
      3          6           0        2.563672    0.375871    0.958097
      4          6           0        3.574319   -0.123188    0.137839
      5          6           0        4.188509    0.644582   -0.850387
      6          6           0        3.766302    1.966900   -1.017015
      7          1           0        2.432653    3.524860   -0.345854
      8          1           0        1.371351    2.109562    1.402290
      9          1           0        2.118543   -0.262367    1.711709
     10          1           0        4.969648    0.209141   -1.461640
     11          1           0        4.231756    2.582608   -1.781411
     12          7           0        4.012852   -1.524462    0.323634
     13          8           0        4.905294   -1.940500   -0.411958
     14          8           0        3.455827   -2.180209    1.201334
     15          6           0       -0.992172   -0.071963   -0.362533
     16          6           0       -1.647611    0.994700    0.261287
     17          6           0       -3.037888    0.985534    0.408233
     18          6           0       -3.744689   -0.111220   -0.082536
     19          6           0       -3.120492   -1.188991   -0.708698
     20          6           0       -1.729405   -1.158489   -0.844685
     21          1           0        0.088144   -0.056555   -0.472427
     22          1           0       -1.077630    1.839825    0.636694
     23          1           0       -3.570749    1.798048    0.887083
     24          1           0       -3.715696   -2.017594   -1.072796
     25          1           0       -1.223050   -1.988263   -1.329579
     26          7           0       -5.216942   -0.132218    0.067228
     27          8           0       -5.816824   -1.110160   -0.373686
     28          8           0       -5.743135    0.829665    0.622692
 ---------------------------------------------------------------------

 SCF Done:  E(RHF) =  -868.336664834     A.U. after   16 cycles
 E2 =    -0.2601817182D+01 EUMP2 =    -0.87093848201689D+03

 The electronic state is 1-A.
 Alpha  occ. eigenvalues --  -20.61761 -20.61751 -20.60920 -20.60908 -15.86822
 Alpha  occ. eigenvalues --  -15.85974 -11.32393 -11.31368 -11.29002 -11.28924
 Alpha  occ. eigenvalues --  -11.28720 -11.28079 -11.28019 -11.27925 -11.27917
 Alpha  occ. eigenvalues --  -11.27582 -11.27071 -11.26873  -1.60837  -1.59993
 Alpha  occ. eigenvalues --   -1.40382  -1.39545  -1.20599  -1.19552  -1.09931
 Alpha  occ. eigenvalues --   -1.08932  -1.06022  -1.04974  -0.96727  -0.95756
 Alpha  occ. eigenvalues --   -0.87392  -0.86368  -0.83551  -0.82602  -0.78580
 Alpha  occ. eigenvalues --   -0.77653  -0.73024  -0.72191  -0.72181  -0.71633
 Alpha  occ. eigenvalues --   -0.71317  -0.70641  -0.66215  -0.66056  -0.65198
 Alpha  occ. eigenvalues --   -0.64990  -0.63317  -0.62311  -0.56449  -0.55682
 Alpha  occ. eigenvalues --   -0.54134  -0.54037  -0.53288  -0.53046  -0.49803
 Alpha  occ. eigenvalues --   -0.49773  -0.48952  -0.48943  -0.45741  -0.44944
 Alpha  occ. eigenvalues --   -0.38573  -0.37702  -0.37423  -0.36589
 Alpha virt. eigenvalues --    0.03926   0.04914   0.09888   0.11031   0.15330
 Alpha virt. eigenvalues --    0.16384   0.19113   0.21934   0.24832   0.27158
 Alpha virt. eigenvalues --    0.27893   0.28857   0.29448   0.31028   0.32033

 Mulliken charges:
               1
     1  C   -0.170372
     2  C   -0.226238
     3  C   -0.183798
     4  C    0.159607
     5  C   -0.169729
     6  C   -0.217908
     7  H    0.229764
     8  H    0.224391
     9  H    0.280852
    10  H    0.279748
    11  H    0.228606
    12  N    0.487622
    13  O   -0.456668
    14  O   -0.458378
    15  C   -0.176737
    16  C   -0.223878
    17  C   -0.170355
    18  C    0.158173
    19  C   -0.169714
    20  C   -0.219474
    21  H    0.235286
    22  H    0.211797
    23  H    0.274645
    24  H    0.277118
    25  H    0.227796
    26  N    0.488084
    27  O   -0.459092
    28  O   -0.461149
 Sum of Mulliken charges =  -0.00000

 Dipole moment (field-independent basis, Debye):
    X=              3.9800    Y=              4.9177    Z=             -1.2997  Tot=              6.4586
 Quadrupole moment (field-independent basis, Debye-Ang):
   XX=           -152.2589   YY=           -102.4983   ZZ=           -102.0387
   XY=             18.1460   XZ=             -3.8868   YZ=              2.5714

 Normal termination of Gaussian 16 at Thu May  6 11:33:25 2021.
