 Gaussian 16, Revision A.03,
 Gaussian 16:  EM64L-G16RevA.03 25-Dec-2016

 -------------
 #p 6-31g* mp2
 -------------

 ------------------------------------------------------
 Input file generated by CHIRIPA (05-May-2021 14:57:24)
 ------------------------------------------------------
 Symbolic Z-matrix:
 Charge =  0 Multiplicity = 1

                         Standard orientation:
 ---------------------------------------------------------------------
 Center     Atomic      Atomic             Coordinates (Angstroms)
 Number     Number       Type             X           Y           Z
 ---------------------------------------------------------------------
      1          6           0       -2.344511    2.717597    0.027373
      2          6           0       -1.605395    1.945987   -0.875316
      3          6           0       -1.749589    0.555713   -0.905181
      4          6           0       -2.645900   -0.032625   -0.014240
      5          6           0       -3.396472    0.708924    0.896823
      6          6           0       -3.236119    2.097696    0.909007
      7          1           0       -2.226221    3.797012    0.043705
      8          1           0       -0.912222    2.424702   -1.561165
      9          1           0       -1.189895   -0.065664   -1.593695
     10          1           0       -4.079684    0.203177    1.568284
     11          1           0       -3.811437    2.694420    1.611128
     12          7           0       -2.807105   -1.503651   -0.036497
     13          8           0       -3.603321   -1.997881    0.758747
     14          8           0       -2.134189   -2.134557   -0.848765
     15          6           0        1.905586   -2.629293   -0.040721
     16          6           0        2.712109   -2.159327    1.000996
     17          6           0        3.113615   -0.820727    1.039597
     18          6           0        2.688333    0.024088    0.015530
     19          6           0        1.884550   -0.414156   -1.035738
     20          6           0        1.495104   -1.756745   -1.053977
     21          1           0        1.598370   -3.670699   -0.062798
     22          1           0        3.032403   -2.834691    1.789248
     23          1           0        3.737800   -0.430429    1.834253
     24          1           0        1.581158    0.282982   -1.807340
     25          1           0        0.868726   -2.118953   -1.864224
     26          7           0        3.107006    1.443316    0.045618
     27          8           0        2.718914    2.167420   -0.868547
     28          8           0        3.815325    1.804731    0.982794
 ---------------------------------------------------------------------

 SCF Done:  E(RHF) =  -868.339569573     A.U. after   16 cycles
 E2 =    -0.2601237758D+01 EUMP2 =    -0.87094080733159D+03

 The electronic state is 1-A.
 Alpha  occ. eigenvalues --  -20.61242 -20.61208 -20.61024 -20.60988 -15.86261
 Alpha  occ. eigenvalues --  -15.86049 -11.31351 -11.31186 -11.27920 -11.27866
 Alpha  occ. eigenvalues --  -11.27759 -11.27678 -11.27494 -11.27245 -11.26812
 Alpha  occ. eigenvalues --  -11.26755 -11.26624 -11.26554  -1.60289  -1.60080
 Alpha  occ. eigenvalues --   -1.39857  -1.39645  -1.19483  -1.19300  -1.08907
 Alpha  occ. eigenvalues --   -1.08698  -1.04874  -1.04661  -0.95805  -0.95595
 Alpha  occ. eigenvalues --   -0.86248  -0.86055  -0.82658  -0.82455  -0.77830
 Alpha  occ. eigenvalues --   -0.77488  -0.72507  -0.72277  -0.71594  -0.71394
 Alpha  occ. eigenvalues --   -0.70611  -0.70335  -0.65149  -0.64982  -0.64795
 Alpha  occ. eigenvalues --   -0.64608  -0.62375  -0.61879  -0.55317  -0.55075
 Alpha  occ. eigenvalues --   -0.53267  -0.53044  -0.52792  -0.52734  -0.49269
 Alpha  occ. eigenvalues --   -0.49211  -0.49047  -0.48993  -0.45326  -0.45104
 Alpha  occ. eigenvalues --   -0.37421  -0.37200  -0.36658  -0.35991
 Alpha virt. eigenvalues --    0.04637   0.05072   0.11203   0.11371   0.16357
 Alpha virt. eigenvalues --    0.16488   0.19827   0.22399   0.25467   0.27359
 Alpha virt. eigenvalues --    0.28486   0.29604   0.30461   0.31609   0.32941

 Mulliken charges:
               1
     1  C   -0.169516
     2  C   -0.219242
     3  C   -0.167873
     4  C    0.157371
     5  C   -0.171248
     6  C   -0.218502
     7  H    0.230262
     8  H    0.232684
     9  H    0.265214
    10  H    0.274931
    11  H    0.224535
    12  N    0.490163
    13  O   -0.458429
    14  O   -0.471137
    15  C   -0.169365
    16  C   -0.218661
    17  C   -0.172113
    18  C    0.159287
    19  C   -0.177710
    20  C   -0.213047
    21  H    0.233187
    22  H    0.224479
    23  H    0.274542
    24  H    0.264640
    25  H    0.234060
    26  N    0.489018
    27  O   -0.468500
    28  O   -0.459031
 Sum of Mulliken charges =  -0.00000

 Dipole moment (field-independent basis, Debye):
    X=             -0.9758    Y=              0.1024    Z=              0.1105  Tot=              0.9873
 Quadrupole moment (field-independent basis, Debye-Ang):
   XX=           -113.4614   YY=           -105.4089   ZZ=            -99.2347
   XY=            -28.9778   XZ=             -0.9370   YZ=             -0.6528

 Normal termination of Gaussian 16 at Thu May  6 16:19:49 2021.
