 Gaussian 16, Revision A.03,
 Gaussian 16:  EM64L-G16RevA.03 25-Dec-2016

 -------------
 #p 6-31g* mp2
 -------------

 ------------------------------------------------------
 Input file generated by CHIRIPA (05-May-2021 14:51:10)
 ------------------------------------------------------
 Symbolic Z-matrix:
 Charge =  0 Multiplicity = 1

                         Standard orientation:
 ---------------------------------------------------------------------
 Center     Atomic      Atomic             Coordinates (Angstroms)
 Number     Number       Type             X           Y           Z
 ---------------------------------------------------------------------
      1          6           0        2.342433   -1.219013   -0.395371
      2          6           0        1.091842   -1.594477    0.400262
      3          6           0        0.101513   -2.427947   -0.413599
      4          1           0        2.044008   -0.662087   -1.294104
      5          1           0        2.835003   -2.136708   -0.745522
      6          1           0        0.602537   -0.676385    0.749981
      7          1           0        1.393292   -2.150408    1.297305
      8          1           0        0.567547   -3.359648   -0.750269
      9          1           0       -0.227701   -1.877250   -1.300702
     10          1           0       -0.785020   -2.685208    0.174394
     11          6           0        3.341991   -0.385695    0.404750
     12          6           0        4.592582   -0.010231   -0.390884
     13          6           0        5.582911    0.823239    0.422978
     14          1           0        2.849422    0.532001    0.754901
     15          1           0        3.640416   -0.942620    1.303483
     16          1           0        4.291132    0.545700   -1.287926
     17          1           0        5.081887   -0.928323   -0.740603
     18          1           0        5.912125    0.272542    1.310081
     19          1           0        5.116877    1.754940    0.759648
     20          1           0        6.469445    1.080500   -0.165015
     21          6           0       -2.653894    1.527187    0.145593
     22          6           0       -1.293491    1.930813   -0.423947
     23          6           0       -0.930788    3.383677   -0.115039
     24          1           0       -3.426794    2.193899   -0.260691
     25          1           0       -2.648488    1.681371    1.233524
     26          1           0       -1.300999    1.774607   -1.510299
     27          1           0       -0.523765    1.262942   -0.016408
     28          1           0       -0.895660    3.550384    0.966431
     29          1           0       -1.677310    4.064957   -0.535947
     30          1           0        0.045454    3.650987   -0.531398
     31          6           0       -3.030530    0.077521   -0.154971
     32          6           0       -4.390933   -0.326104    0.414568
     33          6           0       -4.753636   -1.778970    0.105660
     34          1           0       -3.035937   -0.076663   -1.242902
     35          1           0       -2.257630   -0.589191    0.251312
     36          1           0       -5.160659    0.341766    0.007031
     37          1           0       -4.383425   -0.169899    1.500921
     38          1           0       -4.007115   -2.460249    0.526569
     39          1           0       -4.788764   -1.945677   -0.975809
     40          1           0       -5.729879   -2.046279    0.522020
 ---------------------------------------------------------------------

 SCF Done:  E(RHF) =  -470.732688538     A.U. after   11 cycles
 E2 =    -0.1584310039D+01 EUMP2 =    -0.47231699857665D+03

 The electronic state is 1-A.
 Alpha  occ. eigenvalues --  -11.21635 -11.21623 -11.21610 -11.21584 -11.21419
 Alpha  occ. eigenvalues --  -11.21394 -11.21360 -11.21303 -11.21116 -11.21077
 Alpha  occ. eigenvalues --  -11.21064 -11.21057  -1.08478  -1.08403  -1.03553
 Alpha  occ. eigenvalues --   -1.03537  -0.96023  -0.95956  -0.87048  -0.86964
 Alpha  occ. eigenvalues --   -0.79689  -0.79533  -0.78297  -0.78217  -0.65280
 Alpha  occ. eigenvalues --   -0.64902  -0.61053  -0.60845  -0.59411  -0.59313
 Alpha  occ. eigenvalues --   -0.57644  -0.57569  -0.55354  -0.55197  -0.52723
 Alpha  occ. eigenvalues --   -0.52671  -0.52447  -0.52374  -0.50042  -0.49834
 Alpha  occ. eigenvalues --   -0.48076  -0.47814  -0.46869  -0.46448  -0.45953
 Alpha  occ. eigenvalues --   -0.45803  -0.45698  -0.45382  -0.43790  -0.43780
 Alpha virt. eigenvalues --    0.20176   0.22554   0.23816   0.24172   0.25945
 Alpha virt. eigenvalues --    0.26330   0.27237   0.27263   0.27669   0.30060
 Alpha virt. eigenvalues --    0.30293   0.31379   0.31771   0.31873   0.32535

 Mulliken charges:
               1
     1  C   -0.298586
     2  C   -0.306875
     3  C   -0.477885
     4  H    0.150564
     5  H    0.149817
     6  H    0.156609
     7  H    0.152200
     8  H    0.155654
     9  H    0.157897
    10  H    0.159936
    11  C   -0.298510
    12  C   -0.299669
    13  C   -0.475750
    14  H    0.149273
    15  H    0.149667
    16  H    0.152052
    17  H    0.151985
    18  H    0.155160
    19  H    0.155269
    20  H    0.160298
    21  C   -0.297417
    22  C   -0.307732
    23  C   -0.475189
    24  H    0.149669
    25  H    0.149089
    26  H    0.151605
    27  H    0.158723
    28  H    0.155215
    29  H    0.155580
    30  H    0.159742
    31  C   -0.305781
    32  C   -0.299546
    33  C   -0.476071
    34  H    0.148860
    35  H    0.159951
    36  H    0.151790
    37  H    0.151596
    38  H    0.155102
    39  H    0.155494
    40  H    0.160221
 Sum of Mulliken charges =  -0.00000

 Dipole moment (field-independent basis, Debye):
    X=              0.0057    Y=             -0.0137    Z=             -0.0125  Tot=              0.0194
 Quadrupole moment (field-independent basis, Debye-Ang):
   XX=            -85.2448   YY=            -85.4374   ZZ=            -84.1511
   XY=             -1.4239   XZ=              0.1156   YZ=             -0.9357

 Normal termination of Gaussian 16 at Wed May  5 16:41:51 2021.
