 Gaussian 16, Revision A.03,
 Gaussian 16:  EM64L-G16RevA.03 25-Dec-2016

 -------------
 #p 6-31g* mp2
 -------------

 ------------------------------------------------------
 Input file generated by CHIRIPA (05-May-2021 14:53:14)
 ------------------------------------------------------
 Symbolic Z-matrix:
 Charge =  0 Multiplicity = 1

                         Standard orientation:
 ---------------------------------------------------------------------
 Center     Atomic      Atomic             Coordinates (Angstroms)
 Number     Number       Type             X           Y           Z
 ---------------------------------------------------------------------
      1          6           0        3.729438    0.552320    0.333615
      2          6           0        3.319121    1.978679   -0.033980
      3          6           0        2.173974    2.505925    0.831145
      4          1           0        2.858462   -0.109946    0.234882
      5          1           0        4.025018    0.524378    1.391560
      6          1           0        3.025723    2.004208   -1.091280
      7          1           0        4.191223    2.637593    0.065454
      8          1           0        2.459618    2.509321    1.888026
      9          1           0        1.287496    1.872338    0.724720
     10          1           0        1.896723    3.527058    0.551362
     11          6           0        4.873144    0.011266   -0.522497
     12          6           0        5.283460   -1.415092   -0.154901
     13          6           0        6.428608   -1.942338   -1.020027
     14          1           0        4.577564    0.039209   -1.580441
     15          1           0        5.744120    0.673533   -0.423764
     16          1           0        4.411359   -2.074006   -0.254336
     17          1           0        5.576859   -1.440621    0.902398
     18          1           0        7.315086   -1.308751   -0.913601
     19          1           0        6.142964   -1.945735   -2.076908
     20          1           0        6.705859   -2.963471   -0.740244
     21          6           0       -5.263884    0.039423   -1.561832
     22          6           0       -5.433998   -0.729979   -0.406149
     23          6           0       -4.386215   -0.880716    0.507075
     24          6           0       -3.176360   -0.245246    0.231907
     25          6           0       -2.975939    0.527877   -0.910635
     26          6           0       -4.037559    0.664793   -1.809949
     27          1           0       -6.083201    0.151150   -2.265843
     28          1           0       -6.385271   -1.216797   -0.210872
     29          1           0       -4.490619   -1.470583    1.409614
     30          1           0       -2.016006    1.001078   -1.078045
     31          1           0       -3.902586    1.262926   -2.706645
     32          7           0       -2.059795   -0.397507    1.191334
     33          8           0       -1.003754    0.172543    0.925902
     34          8           0       -2.261817   -1.084018    2.190597
 ---------------------------------------------------------------------

 SCF Done:  E(RHF) =  -669.536099395     A.U. after   15 cycles
 E2 =    -0.2090752306D+01 EUMP2 =    -0.67162685170116D+03

 The electronic state is 1-A.
 Alpha  occ. eigenvalues --  -20.60939 -20.60926 -15.85985 -11.31297 -11.27861
 Alpha  occ. eigenvalues --  -11.27856 -11.27597 -11.26868 -11.26858 -11.20981
 Alpha  occ. eigenvalues --  -11.20710 -11.20689 -11.20587 -11.20429 -11.19834
 Alpha  occ. eigenvalues --   -1.60001  -1.39558  -1.19465  -1.08870  -1.07637
 Alpha  occ. eigenvalues --   -1.04862  -1.02729  -0.95715  -0.95160  -0.86263
 Alpha  occ. eigenvalues --   -0.86173  -0.82550  -0.78809  -0.77607  -0.77416
 Alpha  occ. eigenvalues --   -0.72212  -0.71317  -0.70575  -0.65124  -0.64865
 Alpha  occ. eigenvalues --   -0.64271  -0.62210  -0.60125  -0.58564  -0.56770
 Alpha  occ. eigenvalues --   -0.55366  -0.54432  -0.53193  -0.52954  -0.51884
 Alpha  occ. eigenvalues --   -0.51563  -0.49127  -0.48963  -0.48900  -0.47103
 Alpha  occ. eigenvalues --   -0.45843  -0.44981  -0.44955  -0.44869  -0.42992
 Alpha  occ. eigenvalues --   -0.37444  -0.36463
 Alpha virt. eigenvalues --    0.04930   0.11192   0.16427   0.21248   0.23605
 Alpha virt. eigenvalues --    0.25032   0.27113   0.27394   0.27881   0.28385
 Alpha virt. eigenvalues --    0.29014   0.30767   0.31889   0.32403   0.32570

 Mulliken charges:
               1
     1  C   -0.299499
     2  C   -0.298050
     3  C   -0.486469
     4  H    0.158521
     5  H    0.149688
     6  H    0.145931
     7  H    0.147297
     8  H    0.154219
     9  H    0.181161
    10  H    0.151289
    11  C   -0.297622
    12  C   -0.299248
    13  C   -0.475209
    14  H    0.146436
    15  H    0.147203
    16  H    0.153106
    17  H    0.152218
    18  H    0.153971
    19  H    0.153429
    20  H    0.158935
    21  C   -0.170622
    22  C   -0.218559
    23  C   -0.170697
    24  C    0.157466
    25  C   -0.170474
    26  C   -0.218526
    27  H    0.226011
    28  H    0.223832
    29  H    0.275896
    30  H    0.275489
    31  H    0.223887
    32  N    0.496777
    33  O   -0.469056
    34  O   -0.458731
 Sum of Mulliken charges =  -0.00000

 Dipole moment (field-independent basis, Debye):
    X=             -4.2323    Y=              0.4335    Z=             -3.2988  Tot=              5.3836
 Quadrupole moment (field-independent basis, Debye-Ang):
   XX=            -69.6528   YY=            -94.6684   ZZ=            -94.9791
   XY=              1.5973   XZ=              9.3392   YZ=             -1.1070

 Normal termination of Gaussian 16 at Wed May  5 18:38:09 2021.
