 Gaussian 16, Revision A.03,
 Gaussian 16:  EM64L-G16RevA.03 25-Dec-2016

 -------------
 #p 6-31g* mp2
 -------------

 ------------------------------------------------------
 Input file generated by CHIRIPA (05-May-2021 14:51:13)
 ------------------------------------------------------
 Symbolic Z-matrix:
 Charge =  0 Multiplicity = 1

                         Standard orientation:
 ---------------------------------------------------------------------
 Center     Atomic      Atomic             Coordinates (Angstroms)
 Number     Number       Type             X           Y           Z
 ---------------------------------------------------------------------
      1          6           0       -3.575343    0.353089    0.009505
      2          6           0       -3.179342    1.787682    0.360373
      3          6           0       -4.385527    2.675318    0.668618
      4          1           0       -4.252401    0.367502   -0.855555
      5          1           0       -4.144677   -0.077477    0.844889
      6          1           0       -2.609735    2.214946   -0.474857
      7          1           0       -2.502995    1.769839    1.224580
      8          1           0       -4.951740    2.275246    1.515935
      9          1           0       -5.059086    2.722882   -0.193158
     10          1           0       -4.079571    3.696413    0.916840
     11          6           0       -2.380363   -0.546487   -0.301163
     12          6           0       -2.776363   -1.981081   -0.652031
     13          6           0       -1.570178   -2.868716   -0.960275
     14          1           0       -1.811028   -0.115922   -1.136547
     15          1           0       -1.703304   -0.560901    0.563897
     16          1           0       -3.452710   -1.963237   -1.516237
     17          1           0       -3.345970   -2.408344    0.183200
     18          1           0       -0.896619   -2.916281   -0.098500
     19          1           0       -1.003966   -2.468644   -1.807593
     20          1           0       -1.876134   -3.889812   -1.208498
     21          6           0        2.640925   -0.398860    0.619467
     22          6           0        2.816040   -1.857542    0.195719
     23          6           0        2.136433   -2.836938    1.153169
     24          1           0        3.047486   -0.266320    1.631439
     25          1           0        1.568307   -0.168392    0.680880
     26          1           0        3.888017   -2.084798    0.133781
     27          1           0        2.409187   -1.986582   -0.815438
     28          1           0        1.061142   -2.638590    1.208008
     29          1           0        2.548374   -2.737364    2.162620
     30          1           0        2.274158   -3.873903    0.831308
     31          6           0        3.314780    0.592258   -0.327810
     32          6           0        3.139665    2.050941    0.095940
     33          6           0        3.819272    3.030336   -0.861511
     34          1           0        4.387398    0.361791   -0.389223
     35          1           0        2.908219    0.459718   -1.339781
     36          1           0        3.546517    2.179980    1.107096
     37          1           0        2.067688    2.278196    0.157876
     38          1           0        3.407331    2.930762   -1.870962
     39          1           0        4.894564    2.831988   -0.916350
     40          1           0        3.681548    4.067302   -0.539649
 ---------------------------------------------------------------------

 SCF Done:  E(RHF) =  -470.733333144     A.U. after   11 cycles
 E2 =    -0.1582960686D+01 EUMP2 =    -0.47231629383064D+03

 The electronic state is 1-A.
 Alpha  occ. eigenvalues --  -11.21643 -11.21642 -11.21576 -11.21562 -11.21467
 Alpha  occ. eigenvalues --  -11.21403 -11.21374 -11.21313 -11.21099 -11.21083
 Alpha  occ. eigenvalues --  -11.21055 -11.21045  -1.08481  -1.08398  -1.03576
 Alpha  occ. eigenvalues --   -1.03496  -0.96035  -0.95940  -0.87058  -0.86952
 Alpha  occ. eigenvalues --   -0.79650  -0.79549  -0.78307  -0.78201  -0.65135
 Alpha  occ. eigenvalues --   -0.65009  -0.61068  -0.60825  -0.59387  -0.59317
 Alpha  occ. eigenvalues --   -0.57658  -0.57547  -0.55478  -0.55100  -0.52708
 Alpha  occ. eigenvalues --   -0.52650  -0.52500  -0.52316  -0.50138  -0.49720
 Alpha  occ. eigenvalues --   -0.48028  -0.47806  -0.46778  -0.46480  -0.45947
 Alpha  occ. eigenvalues --   -0.45775  -0.45726  -0.45520  -0.43827  -0.43756
 Alpha virt. eigenvalues --    0.20469   0.23241   0.23504   0.25070   0.25479
 Alpha virt. eigenvalues --    0.26455   0.26809   0.27484   0.28626   0.29180
 Alpha virt. eigenvalues --    0.30448   0.31333   0.31779   0.31895   0.32110

 Mulliken charges:
               1
     1  C   -0.298278
     2  C   -0.299801
     3  C   -0.475735
     4  H    0.149967
     5  H    0.149835
     6  H    0.151724
     7  H    0.152061
     8  H    0.155335
     9  H    0.155252
    10  H    0.160422
    11  C   -0.299668
    12  C   -0.299474
    13  C   -0.482159
    14  H    0.149301
    15  H    0.149814
    16  H    0.152161
    17  H    0.152161
    18  H    0.161989
    19  H    0.154709
    20  H    0.160751
    21  C   -0.299855
    22  C   -0.299701
    23  C   -0.479522
    24  H    0.149271
    25  H    0.151086
    26  H    0.151782
    27  H    0.153014
    28  H    0.158221
    29  H    0.154915
    30  H    0.160587
    31  C   -0.298120
    32  C   -0.299842
    33  C   -0.475658
    34  H    0.149396
    35  H    0.149551
    36  H    0.151780
    37  H    0.152408
    38  H    0.155028
    39  H    0.155117
    40  H    0.160175
 Sum of Mulliken charges =  -0.00000

 Dipole moment (field-independent basis, Debye):
    X=             -0.0216    Y=             -0.0099    Z=             -0.0024  Tot=              0.0239
 Quadrupole moment (field-independent basis, Debye-Ang):
   XX=            -84.8070   YY=            -85.9680   ZZ=            -83.9303
   XY=              0.1468   XZ=              0.9709   YZ=              0.0292

 Normal termination of Gaussian 16 at Thu May  6 07:07:19 2021.
