 Gaussian 16, Revision A.03,
 Gaussian 16:  EM64L-G16RevA.03 25-Dec-2016

 -------------
 #p 6-31g* mp2
 -------------

 ------------------------------------------------------
 Input file generated by CHIRIPA (05-May-2021 14:53:15)
 ------------------------------------------------------
 Symbolic Z-matrix:
 Charge =  0 Multiplicity = 1

                         Standard orientation:
 ---------------------------------------------------------------------
 Center     Atomic      Atomic             Coordinates (Angstroms)
 Number     Number       Type             X           Y           Z
 ---------------------------------------------------------------------
      1          6           0       -2.124926    1.097103   -0.299902
      2          6           0       -1.973243    2.535724    0.195422
      3          6           0       -0.565591    3.091017   -0.023575
      4          1           0       -1.393463    0.459596    0.215357
      5          1           0       -1.876135    1.056779   -1.369422
      6          1           0       -2.223583    2.573573    1.263370
      7          1           0       -2.705281    3.169846   -0.320937
      8          1           0       -0.309297    3.082299   -1.087924
      9          1           0        0.175138    2.482639    0.505384
     10          1           0       -0.479442    4.120539    0.337705
     11          6           0       -3.526680    0.528012   -0.087893
     12          6           0       -3.678363   -0.910610   -0.583217
     13          6           0       -5.086016   -1.465902   -0.364220
     14          1           0       -3.775471    0.568336    0.981627
     15          1           0       -4.258143    1.165519   -0.603152
     16          1           0       -2.946325   -1.544731   -0.066858
     17          1           0       -3.428023   -0.948458   -1.651165
     18          1           0       -5.826744   -0.857524   -0.893179
     19          1           0       -5.342309   -1.457184    0.700129
     20          1           0       -5.172164   -2.495424   -0.725500
     21          6           0        4.107641    0.811219   -0.663986
     22          6           0        3.761971   -0.350087   -1.362843
     23          6           0        2.711016   -1.158843   -0.920171
     24          6           0        2.023976   -0.774608    0.230319
     25          6           0        2.344504    0.376464    0.948363
     26          6           0        3.399054    1.170154    0.487357
     27          1           0        4.925445    1.433628   -1.014985
     28          1           0        4.310517   -0.631303   -2.257304
     29          1           0        2.422346   -2.063151   -1.442007
     30          1           0        1.779226    0.630854    1.836712
     31          1           0        3.665299    2.071488    1.032110
     32          7           0        0.909474   -1.622826    0.708660
     33          8           0        0.319775   -1.262414    1.725024
     34          8           0        0.646729   -2.632012    0.058164
 ---------------------------------------------------------------------

 SCF Done:  E(RHF) =  -669.536258013     A.U. after   15 cycles
 E2 =    -0.2093239484D+01 EUMP2 =    -0.67162949749639D+03

 The electronic state is 1-A.
 Alpha  occ. eigenvalues --  -20.61020 -20.61010 -15.86020 -11.31302 -11.27865
 Alpha  occ. eigenvalues --  -11.27856 -11.27583 -11.26861 -11.26851 -11.21220
 Alpha  occ. eigenvalues --  -11.20969 -11.20701 -11.20631 -11.20574 -11.20249
 Alpha  occ. eigenvalues --   -1.60064  -1.39623  -1.19469  -1.08878  -1.07757
 Alpha  occ. eigenvalues --   -1.04863  -1.02925  -0.95731  -0.95409  -0.86441
 Alpha  occ. eigenvalues --   -0.86259  -0.82566  -0.79004  -0.77646  -0.77521
 Alpha  occ. eigenvalues --   -0.72250  -0.71375  -0.70582  -0.65126  -0.64864
 Alpha  occ. eigenvalues --   -0.64365  -0.62219  -0.60318  -0.58806  -0.57009
 Alpha  occ. eigenvalues --   -0.55367  -0.54729  -0.53191  -0.52950  -0.52135
 Alpha  occ. eigenvalues --   -0.51825  -0.49373  -0.49016  -0.49009  -0.47330
 Alpha  occ. eigenvalues --   -0.46080  -0.45330  -0.45066  -0.44564  -0.43156
 Alpha  occ. eigenvalues --   -0.37432  -0.36417
 Alpha virt. eigenvalues --    0.04850   0.11134   0.16317   0.21068   0.23451
 Alpha virt. eigenvalues --    0.24724   0.26567   0.27401   0.27842   0.28436
 Alpha virt. eigenvalues --    0.28924   0.30976   0.31551   0.32018   0.32610

 Mulliken charges:
               1
     1  C   -0.306302
     2  C   -0.298252
     3  C   -0.477314
     4  H    0.160931
     5  H    0.144861
     6  H    0.153018
     7  H    0.150273
     8  H    0.153998
     9  H    0.150411
    10  H    0.156625
    11  C   -0.296564
    12  C   -0.304247
    13  C   -0.475406
    14  H    0.151223
    15  H    0.144999
    16  H    0.169039
    17  H    0.147746
    18  H    0.150771
    19  H    0.155384
    20  H    0.160110
    21  C   -0.170337
    22  C   -0.218329
    23  C   -0.170627
    24  C    0.158604
    25  C   -0.170555
    26  C   -0.217385
    27  H    0.226223
    28  H    0.223896
    29  H    0.275865
    30  H    0.275621
    31  H    0.224658
    32  N    0.488301
    33  O   -0.459601
    34  O   -0.457636
 Sum of Mulliken charges =  -0.00000

 Dipole moment (field-independent basis, Debye):
    X=              4.1055    Y=              2.7716    Z=             -1.6193  Tot=              5.2114
 Quadrupole moment (field-independent basis, Debye-Ang):
   XX=            -80.5104   YY=            -98.3924   ZZ=            -92.1822
   XY=              2.2621   XZ=             -3.2969   YZ=              4.5375

 Normal termination of Gaussian 16 at Thu May  6 01:05:12 2021.
