 Gaussian 16, Revision A.03,
 Gaussian 16:  EM64L-G16RevA.03 25-Dec-2016

 -------------
 #p 6-31g* mp2
 -------------

 ------------------------------------------------------
 Input file generated by CHIRIPA (05-May-2021 14:53:13)
 ------------------------------------------------------
 Symbolic Z-matrix:
 Charge =  0 Multiplicity = 1

                         Standard orientation:
 ---------------------------------------------------------------------
 Center     Atomic      Atomic             Coordinates (Angstroms)
 Number     Number       Type             X           Y           Z
 ---------------------------------------------------------------------
      1          6           0       -3.875719    1.004646    0.297237
      2          6           0       -2.542812    1.703598    0.567070
      3          6           0       -2.713014    3.048110    1.274964
      4          1           0       -4.511177    1.662956   -0.310846
      5          1           0       -4.402457    0.854459    1.249805
      6          1           0       -2.018123    1.851179   -0.385578
      7          1           0       -1.910380    1.043469    1.174421
      8          1           0       -3.214223    2.915092    2.239171
      9          1           0       -3.322579    3.727392    0.670309
     10          1           0       -1.747775    3.530456    1.458039
     11          6           0       -3.722034   -0.340712   -0.409954
     12          6           0       -5.054941   -1.039664   -0.679787
     13          6           0       -4.884740   -2.384176   -1.387680
     14          1           0       -3.195296   -0.190525   -1.362522
     15          1           0       -3.086576   -0.999023    0.198130
     16          1           0       -5.687373   -0.379535   -1.287138
     17          1           0       -5.579630   -1.187245    0.272861
     18          1           0       -4.275174   -3.063458   -0.783026
     19          1           0       -4.383530   -2.251159   -2.351888
     20          1           0       -5.849978   -2.866523   -1.570756
     21          6           0        1.633650   -1.727476    1.602997
     22          6           0        2.993754   -1.980170    1.396154
     23          6           0        3.742837   -1.173243    0.534590
     24          6           0        3.096860   -0.117416   -0.106685
     25          6           0        1.743340    0.159857    0.078767
     26          6           0        1.013876   -0.660151    0.944804
     27          1           0        1.059365   -2.359398    2.274018
     28          1           0        3.477713   -2.808369    1.905974
     29          1           0        4.797182   -1.346364    0.356256
     30          1           0        1.288662    0.992828   -0.443577
     31          1           0       -0.042252   -0.461546    1.103533
     32          7           0        3.879495    0.743766   -1.021152
     33          8           0        3.286955    1.667718   -1.574186
     34          8           0        5.070644    0.478501   -1.167561
 ---------------------------------------------------------------------

 SCF Done:  E(RHF) =  -669.535601744     A.U. after   15 cycles
 E2 =    -0.2091317138D+01 EUMP2 =    -0.67162691888251D+03

 The electronic state is 1-A.
 Alpha  occ. eigenvalues --  -20.60718 -20.60713 -15.85770 -11.31120 -11.27692
 Alpha  occ. eigenvalues --  -11.27670 -11.27430 -11.26710 -11.26654 -11.22537
 Alpha  occ. eigenvalues --  -11.22177 -11.22125 -11.22071 -11.21698 -11.21554
 Alpha  occ. eigenvalues --   -1.59794  -1.39347  -1.19290  -1.09151  -1.08690
 Alpha  occ. eigenvalues --   -1.04688  -1.04197  -0.96609  -0.95528  -0.87626
 Alpha  occ. eigenvalues --   -0.86092  -0.82362  -0.80293  -0.78984  -0.77400
 Alpha  occ. eigenvalues --   -0.71989  -0.71116  -0.70404  -0.65804  -0.64941
 Alpha  occ. eigenvalues --   -0.64688  -0.62070  -0.61569  -0.59980  -0.58233
 Alpha  occ. eigenvalues --   -0.55884  -0.55202  -0.53306  -0.53036  -0.53019
 Alpha  occ. eigenvalues --   -0.52790  -0.50547  -0.48761  -0.48745  -0.48570
 Alpha  occ. eigenvalues --   -0.47322  -0.46498  -0.46415  -0.44756  -0.44454
 Alpha  occ. eigenvalues --   -0.37277  -0.36289
 Alpha virt. eigenvalues --    0.05122   0.11348   0.16605   0.19436   0.22653
 Alpha virt. eigenvalues --    0.23696   0.24414   0.25753   0.27237   0.28386
 Alpha virt. eigenvalues --    0.29159   0.30000   0.31297   0.31414   0.32111

 Mulliken charges:
               1
     1  C   -0.298095
     2  C   -0.306754
     3  C   -0.475472
     4  H    0.154253
     5  H    0.150800
     6  H    0.154086
     7  H    0.144350
     8  H    0.156387
     9  H    0.159540
    10  H    0.163094
    11  C   -0.299033
    12  C   -0.300167
    13  C   -0.476029
    14  H    0.152272
    15  H    0.142575
    16  H    0.154705
    17  H    0.152385
    18  H    0.153578
    19  H    0.157165
    20  H    0.162323
    21  C   -0.172239
    22  C   -0.218470
    23  C   -0.171198
    24  C    0.158756
    25  C   -0.174224
    26  C   -0.225227
    27  H    0.225478
    28  H    0.223037
    29  H    0.275310
    30  H    0.276315
    31  H    0.233721
    32  N    0.488137
    33  O   -0.460633
    34  O   -0.460726
 Sum of Mulliken charges =  -0.00000

 Dipole moment (field-independent basis, Debye):
    X=             -2.9787    Y=             -2.9468    Z=              3.1691  Tot=              5.2535
 Quadrupole moment (field-independent basis, Debye-Ang):
   XX=           -107.9483   YY=            -93.4657   ZZ=            -95.4348
   XY=            -12.0599   XZ=             11.4448   YZ=             -1.5677

 Normal termination of Gaussian 16 at Thu May  6 18:43:38 2021.
