 Gaussian 16, Revision A.03,
 Gaussian 16:  EM64L-G16RevA.03 25-Dec-2016

 -------------
 #p 6-31g* mp2
 -------------

 ------------------------------------------------------
 Input file generated by CHIRIPA (05-May-2021 14:57:24)
 ------------------------------------------------------
 Symbolic Z-matrix:
 Charge =  0 Multiplicity = 1

                         Standard orientation:
 ---------------------------------------------------------------------
 Center     Atomic      Atomic             Coordinates (Angstroms)
 Number     Number       Type             X           Y           Z
 ---------------------------------------------------------------------
      1          6           0       -5.061693    1.326969    0.393727
      2          6           0       -3.952920    1.975420   -0.160036
      3          6           0       -2.814286    1.249991   -0.523097
      4          6           0       -2.818662   -0.128782   -0.317534
      5          6           0       -3.907671   -0.803618    0.231964
      6          6           0       -5.035576   -0.058039    0.587617
      7          1           0       -5.942045    1.898326    0.672884
      8          1           0       -3.970391    3.050929   -0.311759
      9          1           0       -1.942065    1.726617   -0.953768
     10          1           0       -3.860629   -1.876853    0.371139
     11          1           0       -5.895213   -0.564295    1.017470
     12          7           0       -1.618920   -0.907427   -0.697969
     13          8           0       -1.647787   -2.121186   -0.506677
     14          8           0       -0.672413   -0.289226   -1.180244
     15          6           0        1.916801   -2.233448    0.662891
     16          6           0        2.967335   -2.127520   -0.254541
     17          6           0        3.583989   -0.894842   -0.488609
     18          6           0        3.122699    0.216417    0.215383
     19          6           0        2.078289    0.143028    1.135771
     20          6           0        1.476407   -1.099834    1.353901
     21          1           0        1.443507   -3.194978    0.838529
     22          1           0        3.311432   -3.006218   -0.792623
     23          1           0        4.399273   -0.784469   -1.193270
     24          1           0        1.757218    1.036684    1.657031
     25          1           0        0.660759   -1.179125    2.066974
     26          7           0        3.767704    1.526789   -0.023976
     27          8           0        3.342780    2.490844    0.609014
     28          8           0        4.685969    1.564992   -0.840044
 ---------------------------------------------------------------------

 SCF Done:  E(RHF) =  -868.338602746     A.U. after   16 cycles
 E2 =    -0.2600843702D+01 EUMP2 =    -0.87093944644796D+03

 The electronic state is 1-A.
 Alpha  occ. eigenvalues --  -20.61419 -20.61332 -20.59850 -20.59835 -15.86377
 Alpha  occ. eigenvalues --  -15.84892 -11.31640 -11.29914 -11.28213 -11.28148
 Alpha  occ. eigenvalues --  -11.27889 -11.27181 -11.27131 -11.26541 -11.26505
 Alpha  occ. eigenvalues --  -11.26120 -11.25442 -11.25397  -1.60435  -1.58926
 Alpha  occ. eigenvalues --   -1.39994  -1.38492  -1.19797  -1.18058  -1.09213
 Alpha  occ. eigenvalues --   -1.07504  -1.05171  -1.03470  -0.96068  -0.94406
 Alpha  occ. eigenvalues --   -0.86575  -0.84893  -0.82901  -0.81292  -0.77966
 Alpha  occ. eigenvalues --   -0.76395  -0.72626  -0.71779  -0.71130  -0.70889
 Alpha  occ. eigenvalues --   -0.70235  -0.69186  -0.65444  -0.65162  -0.63753
 Alpha  occ. eigenvalues --   -0.63532  -0.62513  -0.60884  -0.55671  -0.53938
 Alpha  occ. eigenvalues --   -0.53528  -0.53252  -0.51786  -0.51620  -0.49390
 Alpha  occ. eigenvalues --   -0.49293  -0.47896  -0.47852  -0.45418  -0.43978
 Alpha  occ. eigenvalues --   -0.37783  -0.36774  -0.35901  -0.34990
 Alpha virt. eigenvalues --    0.04533   0.06192   0.10880   0.12609   0.16059
 Alpha virt. eigenvalues --    0.17774   0.21078   0.22580   0.27004   0.27940
 Alpha virt. eigenvalues --    0.28334   0.29530   0.30671   0.32052   0.32207

 Mulliken charges:
               1
     1  C   -0.170402
     2  C   -0.218558
     3  C   -0.171851
     4  C    0.156432
     5  C   -0.172472
     6  C   -0.218540
     7  H    0.227476
     8  H    0.226793
     9  H    0.279174
    10  H    0.273797
    11  H    0.224218
    12  N    0.486860
    13  O   -0.468872
    14  O   -0.452373
    15  C   -0.153736
    16  C   -0.216873
    17  C   -0.169253
    18  C    0.159639
    19  C   -0.165186
    20  C   -0.215217
    21  H    0.227559
    22  H    0.219710
    23  H    0.271203
    24  H    0.267407
    25  H    0.215229
    26  N    0.488301
    27  O   -0.466836
    28  O   -0.463630
 Sum of Mulliken charges =  -0.00000

 Dipole moment (field-independent basis, Debye):
    X=             -6.7872    Y=             -1.9454    Z=              2.0397  Tot=              7.3492
 Quadrupole moment (field-independent basis, Debye-Ang):
   XX=            -93.8606   YY=           -103.7749   ZZ=           -104.0806
   XY=            -22.5481   XZ=             -3.7341   YZ=             -1.8308

 Normal termination of Gaussian 16 at Wed May  5 21:03:51 2021.
