 Gaussian 16, Revision A.03,
 Gaussian 16:  EM64L-G16RevA.03 25-Dec-2016

 -------------
 #p 6-31g* mp2
 -------------

 ------------------------------------------------------
 Input file generated by CHIRIPA (05-May-2021 14:55:19)
 ------------------------------------------------------
 Symbolic Z-matrix:
 Charge =  0 Multiplicity = 1

                         Standard orientation:
 ---------------------------------------------------------------------
 Center     Atomic      Atomic             Coordinates (Angstroms)
 Number     Number       Type             X           Y           Z
 ---------------------------------------------------------------------
      1          6           0        0.848805   -1.763356    1.083424
      2          6           0        1.613641   -2.111295   -0.034827
      3          6           0        2.560946   -1.222413   -0.551596
      4          6           0        2.718038    0.011601    0.077548
      5          6           0        1.971252    0.387323    1.193090
      6          6           0        1.029733   -0.517354    1.692739
      7          1           0        0.115163   -2.459996    1.478213
      8          1           0        1.475273   -3.078272   -0.510071
      9          1           0        3.166501   -1.466133   -1.416073
     10          1           0        2.131764    1.358474    1.645329
     11          1           0        0.437161   -0.244452    2.561317
     12          7           0        3.717845    0.960981   -0.460469
     13          8           0        3.837180    2.042053    0.111965
     14          8           0        4.363227    0.606058   -1.444415
     15          6           0       -3.001802    0.869005   -0.000142
     16          6           0       -3.955877    2.019114   -0.324141
     17          6           0       -3.409001    3.380226    0.107241
     18          1           0       -2.802154    0.859900    1.080138
     19          1           0       -2.037635    1.051274   -0.494666
     20          1           0       -4.918407    1.834037    0.169719
     21          1           0       -4.153428    2.025363   -1.403748
     22          1           0       -2.459489    3.590792   -0.395442
     23          1           0       -3.228815    3.398379    1.186965
     24          1           0       -4.106962    4.188050   -0.133862
     25          6           0       -3.534539   -0.498141   -0.425383
     26          6           0       -2.580463   -1.648249   -0.101382
     27          6           0       -3.127340   -3.009363   -0.532765
     28          1           0       -4.498706   -0.680411    0.069143
     29          1           0       -3.734186   -0.489037   -1.505662
     30          1           0       -2.382912   -1.654499    0.978224
     31          1           0       -1.617933   -1.463173   -0.595244
     32          1           0       -3.307525   -3.027515   -1.612489
     33          1           0       -4.076851   -3.219928   -0.030081
     34          1           0       -2.429379   -3.817187   -0.291661
 ---------------------------------------------------------------------

 SCF Done:  E(RHF) =  -669.535012692     A.U. after   15 cycles
 E2 =    -0.2092575498D+01 EUMP2 =    -0.67162758818983D+03

 The electronic state is 1-A.
 Alpha  occ. eigenvalues --  -20.60754 -20.60749 -15.85811 -11.31160 -11.27763
 Alpha  occ. eigenvalues --  -11.27755 -11.27468 -11.26745 -11.26730 -11.22347
 Alpha  occ. eigenvalues --  -11.21967 -11.21951 -11.21895 -11.21842 -11.21341
 Alpha  occ. eigenvalues --   -1.59832  -1.39385  -1.19353  -1.08993  -1.08733
 Alpha  occ. eigenvalues --   -1.04754  -1.04091  -0.96528  -0.95578  -0.87540
 Alpha  occ. eigenvalues --   -0.86150  -0.82416  -0.80176  -0.78784  -0.77456
 Alpha  occ. eigenvalues --   -0.72028  -0.71157  -0.70454  -0.65611  -0.65000
 Alpha  occ. eigenvalues --   -0.64753  -0.62103  -0.61480  -0.59946  -0.58155
 Alpha  occ. eigenvalues --   -0.55799  -0.55231  -0.53288  -0.53088  -0.52923
 Alpha  occ. eigenvalues --   -0.52842  -0.50456  -0.48788  -0.48783  -0.48465
 Alpha  occ. eigenvalues --   -0.47198  -0.46328  -0.46213  -0.44795  -0.44335
 Alpha  occ. eigenvalues --   -0.37234  -0.36365
 Alpha virt. eigenvalues --    0.05078   0.11203   0.16537   0.20104   0.22645
 Alpha virt. eigenvalues --    0.23793   0.25479   0.26363   0.26721   0.28029
 Alpha virt. eigenvalues --    0.28945   0.30418   0.30877   0.31358   0.32065

 Mulliken charges:
               1
     1  C   -0.165357
     2  C   -0.221669
     3  C   -0.170897
     4  C    0.157557
     5  C   -0.170899
     6  C   -0.218880
     7  H    0.228435
     8  H    0.223463
     9  H    0.275542
    10  H    0.275703
    11  H    0.223203
    12  N    0.488139
    13  O   -0.460568
    14  O   -0.460719
    15  C   -0.298363
    16  C   -0.300144
    17  C   -0.476222
    18  H    0.144464
    19  H    0.153502
    20  H    0.151872
    21  H    0.153688
    22  H    0.157906
    23  H    0.153470
    24  H    0.162063
    25  C   -0.298230
    26  C   -0.304300
    27  C   -0.475632
    28  H    0.150064
    29  H    0.152289
    30  H    0.141437
    31  H    0.159360
    32  H    0.159182
    33  H    0.157903
    34  H    0.152638
 Sum of Mulliken charges =  -0.00000

 Dipole moment (field-independent basis, Debye):
    X=             -3.5937    Y=             -3.2763    Z=              1.8233  Tot=              5.1936
 Quadrupole moment (field-independent basis, Debye-Ang):
   XX=           -114.2120   YY=            -94.2025   ZZ=            -91.5029
   XY=            -10.5003   XZ=              3.7273   YZ=              2.1013

 Normal termination of Gaussian 16 at Thu May  6 15:42:01 2021.
