 Gaussian 16, Revision A.03,
 Gaussian 16:  EM64L-G16RevA.03 25-Dec-2016

 -------------
 #p 6-31g* mp2
 -------------

 ------------------------------------------------------
 Input file generated by CHIRIPA (05-May-2021 14:57:24)
 ------------------------------------------------------
 Symbolic Z-matrix:
 Charge =  0 Multiplicity = 1

                         Standard orientation:
 ---------------------------------------------------------------------
 Center     Atomic      Atomic             Coordinates (Angstroms)
 Number     Number       Type             X           Y           Z
 ---------------------------------------------------------------------
      1          6           0        1.425813   -0.488252   -1.147439
      2          6           0        2.427961   -1.459624   -1.240481
      3          6           0        3.672924   -1.255316   -0.638091
      4          6           0        3.882448   -0.062713    0.052623
      5          6           0        2.904050    0.924119    0.163040
      6          6           0        1.666631    0.698427   -0.447210
      7          1           0        0.461626   -0.655269   -1.618443
      8          1           0        2.243751   -2.382166   -1.783646
      9          1           0        4.466461   -1.990528   -0.694488
     10          1           0        3.117317    1.833730    0.711258
     11          1           0        0.890206    1.454567   -0.373314
     12          7           0        5.196441    0.164898    0.694506
     13          8           0        5.356011    1.224047    1.297315
     14          8           0        6.041899   -0.720159    0.582652
     15          6           0       -4.479214   -2.178610    0.768238
     16          6           0       -3.398428   -2.065683   -0.112484
     17          6           0       -2.939302   -0.808160   -0.515456
     18          6           0       -3.587256    0.320535   -0.015963
     19          6           0       -4.666522    0.240752    0.862735
     20          6           0       -5.108702   -1.027063    1.252184
     21          1           0       -4.829292   -3.159482    1.076024
     22          1           0       -2.907638   -2.958269   -0.489924
     23          1           0       -2.104759   -0.691856   -1.196211
     24          1           0       -5.135515    1.148673    1.222101
     25          1           0       -5.948281   -1.111736    1.936276
     26          7           0       -3.110171    1.657266   -0.435413
     27          8           0       -3.698117    2.636327    0.018895
     28          8           0       -2.157318    1.700625   -1.210545
 ---------------------------------------------------------------------

 SCF Done:  E(RHF) =  -868.338829854     A.U. after   16 cycles
 E2 =    -0.2599671161D+01 EUMP2 =    -0.87093850101552D+03

 The electronic state is 1-A.
 Alpha  occ. eigenvalues --  -20.61930 -20.61851 -20.60520 -20.60508 -15.86918
 Alpha  occ. eigenvalues --  -15.85564 -11.32120 -11.30887 -11.28765 -11.28600
 Alpha  occ. eigenvalues --  -11.28318 -11.27658 -11.27572 -11.27470 -11.27346
 Alpha  occ. eigenvalues --  -11.27197 -11.26541 -11.26252  -1.60945  -1.59592
 Alpha  occ. eigenvalues --   -1.40510  -1.39146  -1.20262  -1.19036  -1.09674
 Alpha  occ. eigenvalues --   -1.08450  -1.05648  -1.04411  -0.96547  -0.95299
 Alpha  occ. eigenvalues --   -0.87052  -0.85807  -0.83392  -0.82119  -0.78480
 Alpha  occ. eigenvalues --   -0.77160  -0.73144  -0.72250  -0.71783  -0.71385
 Alpha  occ. eigenvalues --   -0.70913  -0.70183  -0.65919  -0.65646  -0.64682
 Alpha  occ. eigenvalues --   -0.64373  -0.63019  -0.61733  -0.56134  -0.54982
 Alpha  occ. eigenvalues --   -0.53963  -0.53716  -0.52770  -0.52475  -0.49919
 Alpha  occ. eigenvalues --   -0.49867  -0.48543  -0.48536  -0.45940  -0.44561
 Alpha  occ. eigenvalues --   -0.38201  -0.37246  -0.37030  -0.36009
 Alpha virt. eigenvalues --    0.04025   0.05331   0.10408   0.11640   0.15553
 Alpha virt. eigenvalues --    0.16804   0.18907   0.21986   0.25009   0.26957
 Alpha virt. eigenvalues --    0.27898   0.29089   0.30679   0.30914   0.32899

 Mulliken charges:
               1
     1  C   -0.174978
     2  C   -0.219398
     3  C   -0.172210
     4  C    0.158976
     5  C   -0.172128
     6  C   -0.224940
     7  H    0.223356
     8  H    0.219108
     9  H    0.273753
    10  H    0.276649
    11  H    0.242920
    12  N    0.487915
    13  O   -0.459901
    14  O   -0.462039
    15  C   -0.169516
    16  C   -0.218834
    17  C   -0.173279
    18  C    0.158249
    19  C   -0.169238
    20  C   -0.218024
    21  H    0.229034
    22  H    0.223815
    23  H    0.271203
    24  H    0.278041
    25  H    0.227040
    26  N    0.488568
    27  O   -0.452930
    28  O   -0.471212
 Sum of Mulliken charges =  -0.00000

 Dipole moment (field-independent basis, Debye):
    X=             -6.7354    Y=             -5.3825    Z=             -0.6029  Tot=              8.6429
 Quadrupole moment (field-independent basis, Debye-Ang):
   XX=           -125.6345   YY=           -103.1622   ZZ=           -104.3845
   XY=             10.7733   XZ=            -17.8035   YZ=              3.5875

 Normal termination of Gaussian 16 at Fri May  7 06:30:01 2021.
