 Gaussian 16, Revision A.03,
 Gaussian 16:  EM64L-G16RevA.03 25-Dec-2016

 -------------
 #p 6-31g* mp2
 -------------

 ------------------------------------------------------
 Input file generated by CHIRIPA (05-May-2021 14:51:09)
 ------------------------------------------------------
 Symbolic Z-matrix:
 Charge =  0 Multiplicity = 1

                         Standard orientation:
 ---------------------------------------------------------------------
 Center     Atomic      Atomic             Coordinates (Angstroms)
 Number     Number       Type             X           Y           Z
 ---------------------------------------------------------------------
      1          6           0       -3.654617   -0.040626   -0.272013
      2          6           0       -5.075927   -0.597929   -0.186722
      3          6           0       -5.928741   -0.230797   -1.401513
      4          1           0       -3.701563    1.052417   -0.372010
      5          1           0       -3.174579   -0.417753   -1.185651
      6          1           0       -5.552664   -0.220969    0.727192
      7          1           0       -5.025587   -1.689754   -0.086724
      8          1           0       -5.478613   -0.620647   -2.320208
      9          1           0       -6.008684    0.856484   -1.501668
     10          1           0       -6.940824   -0.639288   -1.319759
     11          6           0       -2.789828   -0.399239    0.935159
     12          6           0       -1.368518    0.158065    0.849868
     13          6           0       -0.515704   -0.209068    2.064659
     14          1           0       -3.269866   -0.022112    1.848797
     15          1           0       -2.742882   -1.492281    1.035156
     16          1           0       -1.418858    1.249890    0.749870
     17          1           0       -0.891781   -0.218896   -0.064046
     18          1           0       -0.435761   -1.296348    2.164814
     19          1           0       -0.965832    0.180783    2.983355
     20          1           0        0.496379    0.199424    1.982905
     21          6           0        3.134642   -0.523062   -0.485594
     22          6           0        4.374880   -1.358679   -0.166940
     23          6           0        4.184174   -2.842982   -0.480418
     24          1           0        2.280915   -0.913118    0.085326
     25          1           0        2.882042   -0.644883   -1.548019
     26          1           0        4.625879   -1.234226    0.894251
     27          1           0        5.225797   -0.966467   -0.738539
     28          1           0        3.956333   -2.986425   -1.541602
     29          1           0        3.353008   -3.255705    0.100466
     30          1           0        5.082841   -3.421686   -0.245131
     31          6           0        3.309803    0.962926   -0.177552
     32          6           0        2.069566    1.798543   -0.496207
     33          6           0        2.260272    3.282847   -0.182729
     34          1           0        3.562403    1.084748    0.884874
     35          1           0        4.163531    1.352982   -0.748472
     36          1           0        1.218649    1.406331    0.075393
     37          1           0        1.818565    1.674090   -1.557397
     38          1           0        3.091437    3.695569   -0.763611
     39          1           0        2.488111    3.426289    0.878456
     40          1           0        1.361604    3.861550   -0.418015
 ---------------------------------------------------------------------

 SCF Done:  E(RHF) =  -470.732689483     A.U. after   11 cycles
 E2 =    -0.1583903798D+01 EUMP2 =    -0.47231659328131D+03

 The electronic state is 1-A.
 Alpha  occ. eigenvalues --  -11.21647 -11.21617 -11.21587 -11.21490 -11.21435
 Alpha  occ. eigenvalues --  -11.21378 -11.21373 -11.21319 -11.21153 -11.21082
 Alpha  occ. eigenvalues --  -11.21064 -11.21035  -1.08482  -1.08390  -1.03604
 Alpha  occ. eigenvalues --   -1.03475  -0.96032  -0.95954  -0.87044  -0.86969
 Alpha  occ. eigenvalues --   -0.79699  -0.79514  -0.78348  -0.78144  -0.65122
 Alpha  occ. eigenvalues --   -0.65054  -0.60998  -0.60945  -0.59477  -0.59218
 Alpha  occ. eigenvalues --   -0.57657  -0.57535  -0.55340  -0.55214  -0.52757
 Alpha  occ. eigenvalues --   -0.52629  -0.52465  -0.52368  -0.49967  -0.49884
 Alpha  occ. eigenvalues --   -0.48008  -0.47826  -0.46665  -0.46588  -0.45925
 Alpha  occ. eigenvalues --   -0.45756  -0.45695  -0.45516  -0.43828  -0.43752
 Alpha virt. eigenvalues --    0.20581   0.23079   0.23920   0.24469   0.26256
 Alpha virt. eigenvalues --    0.26496   0.26852   0.27577   0.27937   0.29781
 Alpha virt. eigenvalues --    0.30677   0.31169   0.31409   0.31817   0.32311

 Mulliken charges:
               1
     1  C   -0.298396
     2  C   -0.299722
     3  C   -0.475719
     4  H    0.149736
     5  H    0.149816
     6  H    0.151939
     7  H    0.151989
     8  H    0.155251
     9  H    0.155209
    10  H    0.160311
    11  C   -0.297957
    12  C   -0.302974
    13  C   -0.480910
    14  H    0.149602
    15  H    0.149764
    16  H    0.152468
    17  H    0.154531
    18  H    0.155398
    19  H    0.155927
    20  H    0.163277
    21  C   -0.302256
    22  C   -0.299411
    23  C   -0.475710
    24  H    0.153264
    25  H    0.149214
    26  H    0.151993
    27  H    0.151974
    28  H    0.155000
    29  H    0.155112
    30  H    0.160247
    31  C   -0.297776
    32  C   -0.312177
    33  C   -0.475149
    34  H    0.148695
    35  H    0.149646
    36  H    0.167013
    37  H    0.151360
    38  H    0.155016
    39  H    0.154578
    40  H    0.159829
 Sum of Mulliken charges =  -0.00000

 Dipole moment (field-independent basis, Debye):
    X=             -0.0433    Y=             -0.0123    Z=              0.0050  Tot=              0.0453
 Quadrupole moment (field-independent basis, Debye-Ang):
   XX=            -85.2241   YY=            -85.3453   ZZ=            -84.3601
   XY=             -0.1158   XZ=             -1.0558   YZ=              0.2349

 Normal termination of Gaussian 16 at Thu May  6 02:08:40 2021.
