 Gaussian 16, Revision A.03,
 Gaussian 16:  EM64L-G16RevA.03 25-Dec-2016

 -------------
 #p 6-31g* mp2
 -------------

 ------------------------------------------------------
 Input file generated by CHIRIPA (05-May-2021 14:53:16)
 ------------------------------------------------------
 Symbolic Z-matrix:
 Charge =  0 Multiplicity = 1

                         Standard orientation:
 ---------------------------------------------------------------------
 Center     Atomic      Atomic             Coordinates (Angstroms)
 Number     Number       Type             X           Y           Z
 ---------------------------------------------------------------------
      1          6           0       -4.578193    0.325481    0.171445
      2          6           0       -4.824418   -1.168041   -0.044777
      3          6           0       -6.256738   -1.585555    0.289790
      4          1           0       -4.801101    0.579804    1.216709
      5          1           0       -5.282298    0.899354   -0.446860
      6          1           0       -4.119134   -1.738926    0.572703
      7          1           0       -4.600714   -1.418875   -1.089599
      8          1           0       -6.972476   -1.041723   -0.335163
      9          1           0       -6.488160   -1.363592    1.336584
     10          1           0       -6.410740   -2.657005    0.128115
     11          6           0       -3.150799    0.758186   -0.158770
     12          6           0       -2.904574    2.251708    0.057451
     13          6           0       -1.472254    2.669222   -0.277115
     14          1           0       -2.446694    0.184313    0.459534
     15          1           0       -2.927891    0.503863   -1.204034
     16          1           0       -3.128278    2.502542    1.102274
     17          1           0       -3.609858    2.822593   -0.560028
     18          1           0       -1.240832    2.447259   -1.323909
     19          1           0       -0.756516    2.125390    0.347838
     20          1           0       -1.318252    3.740671   -0.115440
     21          6           0        1.008763   -1.930868   -0.232053
     22          6           0        2.290247   -2.482942   -0.134404
     23          6           0        3.411337   -1.657240   -0.008227
     24          6           0        3.213493   -0.277562    0.017005
     25          6           0        1.949539    0.302649   -0.078198
     26          6           0        0.842791   -0.542283   -0.203688
     27          1           0        0.143444   -2.579764   -0.329804
     28          1           0        2.422146   -3.560984   -0.156153
     29          1           0        4.414730   -2.058018    0.069212
     30          1           0        1.849710    1.381002   -0.053565
     31          1           0       -0.151240   -0.110745   -0.279330
     32          7           0        4.392749    0.606751    0.150219
     33          8           0        4.191723    1.819119    0.169956
     34          8           0        5.495747    0.070763    0.232374
 ---------------------------------------------------------------------

 SCF Done:  E(RHF) =  -669.534992009     A.U. after   15 cycles
 E2 =    -0.2092566511D+01 EUMP2 =    -0.67162755852041D+03

 The electronic state is 1-A.
 Alpha  occ. eigenvalues --  -20.60671 -20.60666 -15.85722 -11.31065 -11.27640
 Alpha  occ. eigenvalues --  -11.27595 -11.27355 -11.26654 -11.26522 -11.22558
 Alpha  occ. eigenvalues --  -11.22497 -11.22439 -11.22243 -11.22119 -11.21736
 Alpha  occ. eigenvalues --   -1.59747  -1.39301  -1.19229  -1.09392  -1.08628
 Alpha  occ. eigenvalues --   -1.04647  -1.04413  -0.96894  -0.95469  -0.87910
 Alpha  occ. eigenvalues --   -0.86030  -0.82318  -0.80509  -0.79252  -0.77337
 Alpha  occ. eigenvalues --   -0.71941  -0.71070  -0.70344  -0.66030  -0.64882
 Alpha  occ. eigenvalues --   -0.64634  -0.62144  -0.61694  -0.60220  -0.58502
 Alpha  occ. eigenvalues --   -0.56187  -0.55131  -0.53547  -0.53334  -0.52963
 Alpha  occ. eigenvalues --   -0.52728  -0.50833  -0.48826  -0.48697  -0.48661
 Alpha  occ. eigenvalues --   -0.47517  -0.46708  -0.46657  -0.44711  -0.44690
 Alpha  occ. eigenvalues --   -0.37215  -0.36226
 Alpha virt. eigenvalues --    0.05161   0.11386   0.16611   0.20145   0.22350
 Alpha virt. eigenvalues --    0.23579   0.25437   0.25619   0.26073   0.28210
 Alpha virt. eigenvalues --    0.29386   0.29969   0.30810   0.31220   0.31417

 Mulliken charges:
               1
     1  C   -0.297599
     2  C   -0.300429
     3  C   -0.476170
     4  H    0.152960
     5  H    0.153293
     6  H    0.148911
     7  H    0.151615
     8  H    0.157300
     9  H    0.157069
    10  H    0.161512
    11  C   -0.306161
    12  C   -0.299052
    13  C   -0.485456
    14  H    0.144226
    15  H    0.149575
    16  H    0.156428
    17  H    0.156947
    18  H    0.157030
    19  H    0.150428
    20  H    0.170172
    21  C   -0.173986
    22  C   -0.218521
    23  C   -0.171435
    24  C    0.159403
    25  C   -0.176870
    26  C   -0.229416
    27  H    0.225505
    28  H    0.222777
    29  H    0.275072
    30  H    0.277777
    31  H    0.240457
    32  N    0.488215
    33  O   -0.460564
    34  O   -0.461011
 Sum of Mulliken charges =  -0.00000

 Dipole moment (field-independent basis, Debye):
    X=             -4.4688    Y=             -2.9723    Z=             -0.4699  Tot=              5.3875
 Quadrupole moment (field-independent basis, Debye-Ang):
   XX=           -119.9896   YY=            -89.6855   ZZ=            -94.7620
   XY=            -12.4734   XZ=             -1.0823   YZ=             -0.1466

 Normal termination of Gaussian 16 at Thu May  6 12:13:33 2021.
