 Gaussian 16, Revision A.03,
 Gaussian 16:  EM64L-G16RevA.03 25-Dec-2016

 -------------
 #p 6-31g* mp2
 -------------

 ------------------------------------------------------
 Input file generated by CHIRIPA (05-May-2021 14:53:16)
 ------------------------------------------------------
 Symbolic Z-matrix:
 Charge =  0 Multiplicity = 1

                         Standard orientation:
 ---------------------------------------------------------------------
 Center     Atomic      Atomic             Coordinates (Angstroms)
 Number     Number       Type             X           Y           Z
 ---------------------------------------------------------------------
      1          6           0        3.538438    0.024722   -0.072421
      2          6           0        2.775419   -1.092938   -0.784197
      3          6           0        1.263028   -0.868293   -0.785592
      4          1           0        3.177343    0.105426    0.962008
      5          1           0        3.309597    0.982971   -0.559026
      6          1           0        3.006711   -2.048978   -0.297261
      7          1           0        3.138506   -1.171118   -1.816995
      8          1           0        1.013560    0.071079   -1.289523
      9          1           0        0.881017   -0.811769    0.238846
     10          1           0        0.737210   -1.679018   -1.299499
     11          6           0        5.051510   -0.185627   -0.062710
     12          6           0        5.814528    0.932032    0.649067
     13          6           0        7.326919    0.707388    0.650461
     14          1           0        5.280350   -1.143877    0.423896
     15          1           0        5.412604   -0.266331   -1.097138
     16          1           0        5.451441    1.010213    1.681865
     17          1           0        5.583236    1.888073    0.162130
     18          1           0        7.708931    0.650864   -0.373977
     19          1           0        7.576387   -0.231984    1.154392
     20          1           0        7.852737    1.518113    1.164369
     21          6           0       -2.897887   -2.404262    0.317166
     22          6           0       -3.767416   -1.755070    1.199769
     23          6           0       -4.028303   -0.388427    1.062752
     24          6           0       -3.399683    0.301366    0.027226
     25          6           0       -2.528418   -0.317165   -0.868098
     26          6           0       -2.282248   -1.684508   -0.712135
     27          1           0       -2.700941   -3.466176    0.430962
     28          1           0       -4.246940   -2.311514    2.000064
     29          1           0       -4.697111    0.139107    1.731946
     30          1           0       -2.065260    0.264149   -1.656118
     31          1           0       -1.606503   -2.186064   -1.399053
     32          7           0       -3.668082    1.748539   -0.127856
     33          8           0       -3.101726    2.333770   -1.048389
     34          8           0       -4.439727    2.270200    0.674061
 ---------------------------------------------------------------------

 SCF Done:  E(RHF) =  -669.534854283     A.U. after   15 cycles
 E2 =    -0.2091800985D+01 EUMP2 =    -0.67162665526744D+03

 The electronic state is 1-A.
 Alpha  occ. eigenvalues --  -20.60720 -20.60715 -15.85773 -11.31123 -11.27687
 Alpha  occ. eigenvalues --  -11.27669 -11.27424 -11.26716 -11.26672 -11.22024
 Alpha  occ. eigenvalues --  -11.21730 -11.21686 -11.21650 -11.21567 -11.21178
 Alpha  occ. eigenvalues --   -1.59796  -1.39350  -1.19295  -1.08707  -1.08684
 Alpha  occ. eigenvalues --   -1.04700  -1.03832  -0.96303  -0.95530  -0.87338
 Alpha  occ. eigenvalues --   -0.86093  -0.82366  -0.79907  -0.78483  -0.77406
 Alpha  occ. eigenvalues --   -0.71992  -0.71118  -0.70403  -0.65322  -0.64947
 Alpha  occ. eigenvalues --   -0.64735  -0.62086  -0.61224  -0.59678  -0.57901
 Alpha  occ. eigenvalues --   -0.55575  -0.55205  -0.53340  -0.53028  -0.52659
 Alpha  occ. eigenvalues --   -0.52519  -0.50221  -0.48750  -0.48747  -0.48210
 Alpha  occ. eigenvalues --   -0.46914  -0.46032  -0.45939  -0.44759  -0.44091
 Alpha  occ. eigenvalues --   -0.37277  -0.36244
 Alpha virt. eigenvalues --    0.05106   0.11341   0.16557   0.20585   0.22711
 Alpha virt. eigenvalues --    0.24000   0.26037   0.26352   0.26928   0.27912
 Alpha virt. eigenvalues --    0.28905   0.29352   0.31251   0.31669   0.32284

 Mulliken charges:
               1
     1  C   -0.299396
     2  C   -0.300312
     3  C   -0.476699
     4  H    0.150710
     5  H    0.152478
     6  H    0.151106
     7  H    0.152456
     8  H    0.158026
     9  H    0.160709
    10  H    0.147801
    11  C   -0.298495
    12  C   -0.300030
    13  C   -0.475870
    14  H    0.148894
    15  H    0.149925
    16  H    0.152454
    17  H    0.153480
    18  H    0.155342
    19  H    0.154773
    20  H    0.161219
    21  C   -0.173023
    22  C   -0.218603
    23  C   -0.171478
    24  C    0.157867
    25  C   -0.170086
    26  C   -0.214208
    27  H    0.225171
    28  H    0.223021
    29  H    0.275235
    30  H    0.275812
    31  H    0.224913
    32  N    0.488157
    33  O   -0.460649
    34  O   -0.460700
 Sum of Mulliken charges =  -0.00000

 Dipole moment (field-independent basis, Debye):
    X=              1.0463    Y=             -5.0498    Z=              0.5804  Tot=              5.1896
 Quadrupole moment (field-independent basis, Debye-Ang):
   XX=           -100.9221   YY=            -98.3642   ZZ=            -91.2268
   XY=             18.1156   XZ=             -4.7645   YZ=             -0.6684

 Normal termination of Gaussian 16 at Thu May  6 13:53:16 2021.
