 Gaussian 16, Revision A.03,
 Gaussian 16:  EM64L-G16RevA.03 25-Dec-2016

 -------------
 #p 6-31g* mp2
 -------------

 ------------------------------------------------------
 Input file generated by CHIRIPA (05-May-2021 14:55:21)
 ------------------------------------------------------
 Symbolic Z-matrix:
 Charge =  0 Multiplicity = 1

                         Standard orientation:
 ---------------------------------------------------------------------
 Center     Atomic      Atomic             Coordinates (Angstroms)
 Number     Number       Type             X           Y           Z
 ---------------------------------------------------------------------
      1          6           0       -3.131564    0.579304   -1.989525
      2          6           0       -3.122255   -0.800041   -1.757489
      3          6           0       -2.583303   -1.317635   -0.575891
      4          6           0       -2.059704   -0.423068    0.356249
      5          6           0       -2.054410    0.956203    0.154074
      6          6           0       -2.598551    1.451486   -1.034686
      7          1           0       -3.552251    0.972718   -2.910201
      8          1           0       -3.535510   -1.479756   -2.497255
      9          1           0       -2.563241   -2.381071   -0.370659
     10          1           0       -1.635191    1.608836    0.910212
     11          1           0       -2.604433    2.523166   -1.212206
     12          7           0       -1.486393   -0.959212    1.610945
     13          8           0       -1.031235   -0.150041    2.416371
     14          8           0       -1.503044   -2.178461    1.765192
     15          6           0        2.800780    1.183324   -0.083274
     16          6           0        1.468846    1.815435    0.322154
     17          6           0        1.571812    3.326079    0.534639
     18          1           0        3.550909    1.395884    0.690722
     19          1           0        3.159505    1.660672   -1.005689
     20          1           0        1.112058    1.336081    1.242772
     21          1           0        0.721752    1.601182   -0.452805
     22          1           0        1.904115    3.822398   -0.382881
     23          1           0        2.296639    3.555792    1.322331
     24          1           0        0.608392    3.757405    0.823846
     25          6           0        2.713953   -0.326479   -0.299342
     26          6           0        4.045887   -0.958591   -0.704770
     27          6           0        3.942921   -2.469234   -0.917255
     28          1           0        2.355229   -0.803827    0.623073
     29          1           0        1.963824   -0.539040   -1.073339
     30          1           0        4.792981   -0.744338    0.070189
     31          1           0        4.402675   -0.479237   -1.625388
     32          1           0        3.218095   -2.698947   -1.704947
     33          1           0        3.610618   -2.965554    0.000264
     34          1           0        4.906341   -2.900561   -1.206462
 ---------------------------------------------------------------------

 SCF Done:  E(RHF) =  -669.535430128     A.U. after   15 cycles
 E2 =    -0.2093675710D+01 EUMP2 =    -0.67162910583745D+03

 The electronic state is 1-A.
 Alpha  occ. eigenvalues --  -20.60897 -20.60892 -15.85921 -11.31204 -11.27805
 Alpha  occ. eigenvalues --  -11.27773 -11.27544 -11.26786 -11.26774 -11.21312
 Alpha  occ. eigenvalues --  -11.21254 -11.21120 -11.21091 -11.21028 -11.20764
 Alpha  occ. eigenvalues --   -1.59952  -1.39510  -1.19400  -1.08803  -1.08157
 Alpha  occ. eigenvalues --   -1.04801  -1.03306  -0.95785  -0.95643  -0.86789
 Alpha  occ. eigenvalues --   -0.86194  -0.82488  -0.79393  -0.78022  -0.77484
 Alpha  occ. eigenvalues --   -0.72149  -0.71255  -0.70515  -0.65066  -0.64798
 Alpha  occ. eigenvalues --   -0.64766  -0.62163  -0.60695  -0.59155  -0.57395
 Alpha  occ. eigenvalues --   -0.55300  -0.55052  -0.53157  -0.52879  -0.52485
 Alpha  occ. eigenvalues --   -0.52199  -0.49703  -0.48932  -0.48900  -0.47692
 Alpha  occ. eigenvalues --   -0.46382  -0.45596  -0.45457  -0.44697  -0.43551
 Alpha  occ. eigenvalues --   -0.37372  -0.36327
 Alpha virt. eigenvalues --    0.04955   0.11252   0.16381   0.20788   0.23177
 Alpha virt. eigenvalues --    0.24111   0.26420   0.26957   0.27700   0.27906
 Alpha virt. eigenvalues --    0.29328   0.30562   0.31514   0.31696   0.32257

 Mulliken charges:
               1
     1  C   -0.170182
     2  C   -0.219303
     3  C   -0.170491
     4  C    0.158174
     5  C   -0.167622
     6  C   -0.221142
     7  H    0.225798
     8  H    0.223453
     9  H    0.275668
    10  H    0.279684
    11  H    0.223998
    12  N    0.488836
    13  O   -0.460555
    14  O   -0.459247
    15  C   -0.296211
    16  C   -0.319523
    17  C   -0.474607
    18  H    0.151022
    19  H    0.145903
    20  H    0.174200
    21  H    0.147995
    22  H    0.152787
    23  H    0.159362
    24  H    0.150884
    25  C   -0.301512
    26  C   -0.299299
    27  C   -0.476008
    28  H    0.158522
    29  H    0.145900
    30  H    0.152817
    31  H    0.149414
    32  H    0.152772
    33  H    0.159596
    34  H    0.158919
 Sum of Mulliken charges =  -0.00000

 Dipole moment (field-independent basis, Debye):
    X=             -2.0707    Y=              1.7593    Z=             -4.2735  Tot=              5.0641
 Quadrupole moment (field-independent basis, Debye-Ang):
   XX=            -86.9169   YY=            -93.6949   ZZ=            -97.1424
   XY=             -1.9541   XZ=              9.5590   YZ=              3.7828

 Normal termination of Gaussian 16 at Thu May  6 17:30:41 2021.
