 Gaussian 16, Revision A.03,
 Gaussian 16:  EM64L-G16RevA.03 25-Dec-2016

 -------------
 #p 6-31g* mp2
 -------------

 ------------------------------------------------------
 Input file generated by CHIRIPA (05-May-2021 14:57:26)
 ------------------------------------------------------
 Symbolic Z-matrix:
 Charge =  0 Multiplicity = 1

                         Standard orientation:
 ---------------------------------------------------------------------
 Center     Atomic      Atomic             Coordinates (Angstroms)
 Number     Number       Type             X           Y           Z
 ---------------------------------------------------------------------
      1          6           0        3.851029    2.194675   -0.916930
      2          6           0        2.512919    1.897489   -0.638248
      3          6           0        2.142163    0.615356   -0.222046
      4          6           0        3.139923   -0.349790   -0.094545
      5          6           0        4.481543   -0.084544   -0.364712
      6          6           0        4.829346    1.204455   -0.779515
      7          1           0        4.130126    3.193334   -1.239702
      8          1           0        1.751015    2.664524   -0.744097
      9          1           0        1.113680    0.358065    0.000308
     10          1           0        5.218594   -0.870052   -0.250028
     11          1           0        5.869319    1.432401   -0.995250
     12          7           0        2.759571   -1.710761    0.345329
     13          8           0        3.657555   -2.543421    0.449917
     14          8           0        1.570667   -1.919061    0.577185
     15          6           0       -1.783766    1.224220    1.940621
     16          6           0       -1.617636   -0.134686    1.653750
     17          6           0       -2.398249   -0.753923    0.673068
     18          6           0       -3.339779    0.019264   -0.004422
     19          6           0       -3.528889    1.375115    0.258626
     20          6           0       -2.737182    1.973463    1.243373
     21          1           0       -1.173059    1.697145    2.704017
     22          1           0       -0.877976   -0.719027    2.193652
     23          1           0       -2.290452   -1.804231    0.430890
     24          1           0       -4.274387    1.931596   -0.296334
     25          1           0       -2.868383    3.028987    1.464056
     26          7           0       -4.172051   -0.625238   -1.044778
     27          8           0       -4.994644    0.077908   -1.627500
     28          8           0       -3.986035   -1.821341   -1.257787
 ---------------------------------------------------------------------

 SCF Done:  E(RHF) =  -868.339554051     A.U. after   16 cycles
 E2 =    -0.2599938664D+01 EUMP2 =    -0.87093949271581D+03

 The electronic state is 1-A.
 Alpha  occ. eigenvalues --  -20.61408 -20.61345 -20.60649 -20.60626 -15.86425
 Alpha  occ. eigenvalues --  -15.85692 -11.31628 -11.31104 -11.28180 -11.28149
 Alpha  occ. eigenvalues --  -11.27910 -11.27731 -11.27566 -11.27471 -11.27173
 Alpha  occ. eigenvalues --  -11.27160 -11.26787 -11.26552  -1.60443  -1.59716
 Alpha  occ. eigenvalues --   -1.40005  -1.39265  -1.19793  -1.19297  -1.09219
 Alpha  occ. eigenvalues --   -1.08695  -1.05172  -1.04664  -0.96078  -0.95509
 Alpha  occ. eigenvalues --   -0.86580  -0.86063  -0.82923  -0.82301  -0.77991
 Alpha  occ. eigenvalues --   -0.77325  -0.72656  -0.71906  -0.71755  -0.71043
 Alpha  occ. eigenvalues --   -0.70899  -0.70394  -0.65453  -0.65179  -0.64924
 Alpha  occ. eigenvalues --   -0.64612  -0.62523  -0.61953  -0.55685  -0.55202
 Alpha  occ. eigenvalues --   -0.53517  -0.53344  -0.52961  -0.52703  -0.49404
 Alpha  occ. eigenvalues --   -0.49379  -0.48674  -0.48655  -0.45442  -0.44658
 Alpha  occ. eigenvalues --   -0.37774  -0.37346  -0.36769  -0.36271
 Alpha virt. eigenvalues --    0.04522   0.05152   0.10843   0.11322   0.16031
 Alpha virt. eigenvalues --    0.16594   0.20951   0.21700   0.26854   0.27335
 Alpha virt. eigenvalues --    0.28253   0.28435   0.30585   0.31238   0.32046

 Mulliken charges:
               1
     1  C   -0.169971
     2  C   -0.220877
     3  C   -0.176073
     4  C    0.157052
     5  C   -0.170048
     6  C   -0.218839
     7  H    0.226735
     8  H    0.224008
     9  H    0.278946
    10  H    0.276483
    11  H    0.224881
    12  N    0.489646
    13  O   -0.456129
    14  O   -0.469606
    15  C   -0.178504
    16  C   -0.226020
    17  C   -0.171493
    18  C    0.157283
    19  C   -0.172556
    20  C   -0.220633
    21  H    0.224787
    22  H    0.241467
    23  H    0.284954
    24  H    0.274661
    25  H    0.221098
    26  N    0.487879
    27  O   -0.462343
    28  O   -0.456790
 Sum of Mulliken charges =  -0.00000

 Dipole moment (field-independent basis, Debye):
    X=              4.3986    Y=              6.8670    Z=              2.1138  Tot=              8.4244
 Quadrupole moment (field-independent basis, Debye-Ang):
   XX=           -110.5792   YY=           -104.5504   ZZ=           -105.8548
   XY=              3.8094   XZ=            -17.4457   YZ=             -0.8723

 Normal termination of Gaussian 16 at Fri May  7 05:06:37 2021.
