 Gaussian 16, Revision A.03,
 Gaussian 16:  EM64L-G16RevA.03 25-Dec-2016

 -------------
 #p 6-31g* mp2
 -------------

 ------------------------------------------------------
 Input file generated by CHIRIPA (05-May-2021 14:51:10)
 ------------------------------------------------------
 Symbolic Z-matrix:
 Charge =  0 Multiplicity = 1

                         Standard orientation:
 ---------------------------------------------------------------------
 Center     Atomic      Atomic             Coordinates (Angstroms)
 Number     Number       Type             X           Y           Z
 ---------------------------------------------------------------------
      1          6           0       -3.939627   -0.484607   -0.511894
      2          6           0       -3.749213   -1.770480    0.293250
      3          6           0       -4.380868   -2.988936   -0.380673
      4          1           0       -5.013782   -0.307832   -0.659837
      5          1           0       -3.504255   -0.618506   -1.511853
      6          1           0       -4.183589   -1.633718    1.291864
      7          1           0       -2.675392   -1.944113    0.439457
      8          1           0       -3.940890   -3.153475   -1.369585
      9          1           0       -5.457656   -2.841316   -0.512335
     10          1           0       -4.232893   -3.897157    0.211864
     11          6           0       -3.313643    0.742247    0.148939
     12          6           0       -3.504057    2.028120   -0.656205
     13          6           0       -2.872403    3.246576    0.017717
     14          1           0       -3.749015    0.876146    1.148898
     15          1           0       -2.239488    0.565472    0.296881
     16          1           0       -4.577878    2.201753   -0.802412
     17          1           0       -3.069681    1.891358   -1.654819
     18          1           0       -1.795614    3.098956    0.149380
     19          1           0       -3.312380    3.411115    1.006630
     20          1           0       -3.020378    4.154797   -0.574819
     21          6           0        2.878768   -0.152226    0.027925
     22          6           0        2.000176   -0.049840    1.275154
     23          6           0        0.506577   -0.098113    0.951699
     24          1           0        2.624515    0.665677   -0.660069
     25          1           0        2.646944   -1.087852   -0.499577
     26          1           0        2.234569    0.884653    1.800890
     27          1           0        2.256683   -0.867969    1.960343
     28          1           0        0.251701   -1.035920    0.447560
     29          1           0        0.229462    0.726660    0.287201
     30          1           0       -0.103001   -0.023385    1.857619
     31          6           0        4.374503   -0.105413    0.335031
     32          6           0        5.253094   -0.207800   -0.912198
     33          6           0        6.746693   -0.159527   -0.588743
     34          1           0        4.606326    0.830211    0.862532
     35          1           0        4.628754   -0.923316    1.023025
     36          1           0        4.996587    0.610329   -1.597387
     37          1           0        5.018701   -1.142293   -1.437935
     38          1           0        7.023809   -0.984300    0.075754
     39          1           0        7.001570    0.778280   -0.084604
     40          1           0        7.356272   -0.234256   -1.494663
 ---------------------------------------------------------------------

 SCF Done:  E(RHF) =  -470.733007220     A.U. after   11 cycles
 E2 =    -0.1583201080D+01 EUMP2 =    -0.47231620829989D+03

 The electronic state is 1-A.
 Alpha  occ. eigenvalues --  -11.21670 -11.21636 -11.21520 -11.21518 -11.21459
 Alpha  occ. eigenvalues --  -11.21396 -11.21283 -11.21190 -11.21168 -11.21097
 Alpha  occ. eigenvalues --  -11.21031 -11.21019  -1.08488  -1.08326  -1.03595
 Alpha  occ. eigenvalues --   -1.03455  -0.96060  -0.95895  -0.87089  -0.86911
 Alpha  occ. eigenvalues --   -0.79692  -0.79506  -0.78319  -0.78100  -0.65122
 Alpha  occ. eigenvalues --   -0.64963  -0.61043  -0.60812  -0.59417  -0.59269
 Alpha  occ. eigenvalues --   -0.57655  -0.57513  -0.55350  -0.55193  -0.52802
 Alpha  occ. eigenvalues --   -0.52597  -0.52487  -0.52299  -0.50038  -0.49818
 Alpha  occ. eigenvalues --   -0.48009  -0.47828  -0.46765  -0.46466  -0.45960
 Alpha  occ. eigenvalues --   -0.45759  -0.45657  -0.45437  -0.43793  -0.43686
 Alpha virt. eigenvalues --    0.21246   0.22958   0.23688   0.24400   0.25521
 Alpha virt. eigenvalues --    0.26518   0.27117   0.27492   0.27824   0.29580
 Alpha virt. eigenvalues --    0.29703   0.31282   0.31724   0.31931   0.32214

 Mulliken charges:
               1
     1  C   -0.297139
     2  C   -0.301652
     3  C   -0.475601
     4  H    0.148976
     5  H    0.148824
     6  H    0.151522
     7  H    0.153889
     8  H    0.154887
     9  H    0.155088
    10  H    0.159823
    11  C   -0.310991
    12  C   -0.298936
    13  C   -0.476482
    14  H    0.148024
    15  H    0.166954
    16  H    0.151503
    17  H    0.151152
    18  H    0.155028
    19  H    0.155171
    20  H    0.159885
    21  C   -0.298615
    22  C   -0.300573
    23  C   -0.479716
    24  H    0.149648
    25  H    0.149504
    26  H    0.152506
    27  H    0.152371
    28  H    0.156112
    29  H    0.155479
    30  H    0.162797
    31  C   -0.298368
    32  C   -0.299672
    33  C   -0.475744
    34  H    0.149711
    35  H    0.149807
    36  H    0.151990
    37  H    0.151951
    38  H    0.155243
    39  H    0.155272
    40  H    0.160371
 Sum of Mulliken charges =  -0.00000

 Dipole moment (field-independent basis, Debye):
    X=              0.0722    Y=             -0.0085    Z=              0.0255  Tot=              0.0770
 Quadrupole moment (field-independent basis, Debye-Ang):
   XX=            -85.6554   YY=            -84.7677   ZZ=            -84.6757
   XY=             -0.5783   XZ=             -0.6961   YZ=             -0.3523

 Normal termination of Gaussian 16 at Thu May  6 00:38:39 2021.
