 Gaussian 16, Revision A.03,
 Gaussian 16:  EM64L-G16RevA.03 25-Dec-2016

 -------------
 #p 6-31g* mp2
 -------------

 ------------------------------------------------------
 Input file generated by CHIRIPA (05-May-2021 14:53:16)
 ------------------------------------------------------
 Symbolic Z-matrix:
 Charge =  0 Multiplicity = 1

                         Standard orientation:
 ---------------------------------------------------------------------
 Center     Atomic      Atomic             Coordinates (Angstroms)
 Number     Number       Type             X           Y           Z
 ---------------------------------------------------------------------
      1          6           0       -3.613635   -0.023122   -0.168520
      2          6           0       -5.136417   -0.118824   -0.068710
      3          6           0       -5.850748    0.625580   -1.197155
      4          1           0       -3.317543    1.034771   -0.156832
      5          1           0       -3.290555   -0.427439   -1.137819
      6          1           0       -5.456411    0.284284    0.900684
      7          1           0       -5.428905   -1.176618   -0.080443
      8          1           0       -5.560133    0.219062   -2.171263
      9          1           0       -5.587794    1.688264   -1.184562
     10          1           0       -6.938396    0.544119   -1.106351
     11          6           0       -2.885388   -0.762349    0.952608
     12          6           0       -1.362606   -0.666648    0.852798
     13          6           0       -0.648276   -1.411051    1.981243
     14          1           0       -3.208469   -0.358032    1.921908
     15          1           0       -3.181481   -1.820242    0.940921
     16          1           0       -1.070118    0.391147    0.864531
     17          1           0       -1.042613   -1.069755   -0.116596
     18          1           0       -0.911229   -2.473736    1.968650
     19          1           0       -0.938890   -1.004534    2.955352
     20          1           0        0.439373   -1.329591    1.890440
     21          6           0        1.762869    2.632237    0.290787
     22          6           0        2.888844    2.087614    0.916954
     23          6           0        3.327735    0.800133    0.593971
     24          6           0        2.613684    0.082012   -0.364007
     25          6           0        1.488215    0.597069   -1.005355
     26          6           0        1.067374    1.886541   -0.666681
     27          1           0        1.428939    3.633157    0.547783
     28          1           0        3.430927    2.664434    1.660909
     29          1           0        4.196224    0.354181    1.063301
     30          1           0        0.968416   -0.002137   -1.743041
     31          1           0        0.192590    2.306954   -1.154587
     32          7           0        3.068764   -1.282040   -0.714241
     33          8           0        2.422312   -1.894272   -1.561536
     34          8           0        4.063290   -1.713124   -0.134827
 ---------------------------------------------------------------------

 SCF Done:  E(RHF) =  -669.534880736     A.U. after   15 cycles
 E2 =    -0.2093541826D+01 EUMP2 =    -0.67162842256277D+03

 The electronic state is 1-A.
 Alpha  occ. eigenvalues --  -20.60800 -20.60795 -15.85855 -11.31217 -11.27787
 Alpha  occ. eigenvalues --  -11.27775 -11.27533 -11.26791 -11.26771 -11.21852
 Alpha  occ. eigenvalues --  -11.21703 -11.21664 -11.21515 -11.21337 -11.21040
 Alpha  occ. eigenvalues --   -1.59876  -1.39429  -1.19398  -1.08791  -1.08637
 Alpha  occ. eigenvalues --   -1.04800  -1.03684  -0.96139  -0.95623  -0.87153
 Alpha  occ. eigenvalues --   -0.86195  -0.82456  -0.79774  -0.78486  -0.77487
 Alpha  occ. eigenvalues --   -0.72070  -0.71203  -0.70502  -0.65278  -0.65044
 Alpha  occ. eigenvalues --   -0.64785  -0.62146  -0.61078  -0.59536  -0.57792
 Alpha  occ. eigenvalues --   -0.55429  -0.55294  -0.53185  -0.52886  -0.52725
 Alpha  occ. eigenvalues --   -0.52552  -0.50076  -0.48830  -0.48826  -0.48090
 Alpha  occ. eigenvalues --   -0.46800  -0.46013  -0.45929  -0.44828  -0.43962
 Alpha  occ. eigenvalues --   -0.37366  -0.36291
 Alpha virt. eigenvalues --    0.05034   0.11154   0.16500   0.20914   0.22773
 Alpha virt. eigenvalues --    0.24012   0.25836   0.26097   0.27498   0.28191
 Alpha virt. eigenvalues --    0.28897   0.30418   0.31189   0.31562   0.31722

 Mulliken charges:
               1
     1  C   -0.297790
     2  C   -0.299564
     3  C   -0.475815
     4  H    0.143100
     5  H    0.149035
     6  H    0.152120
     7  H    0.154318
     8  H    0.155667
     9  H    0.152927
    10  H    0.161546
    11  C   -0.298157
    12  C   -0.303833
    13  C   -0.475319
    14  H    0.148855
    15  H    0.152387
    16  H    0.151008
    17  H    0.151798
    18  H    0.159041
    19  H    0.153074
    20  H    0.160413
    21  C   -0.171772
    22  C   -0.218141
    23  C   -0.172075
    24  C    0.158174
    25  C   -0.165032
    26  C   -0.218317
    27  H    0.225656
    28  H    0.223534
    29  H    0.275823
    30  H    0.275872
    31  H    0.224386
    32  N    0.488132
    33  O   -0.460806
    34  O   -0.460250
 Sum of Mulliken charges =  -0.00000

 Dipole moment (field-independent basis, Debye):
    X=             -1.5800    Y=              4.7615    Z=              1.2295  Tot=              5.1653
 Quadrupole moment (field-independent basis, Debye-Ang):
   XX=           -101.0888   YY=            -94.0021   ZZ=            -94.2763
   XY=             13.4195   XZ=              6.1792   YZ=             -0.4907

 Normal termination of Gaussian 16 at Thu May  6 07:30:52 2021.
