 Gaussian 16, Revision A.03,
 Gaussian 16:  EM64L-G16RevA.03 25-Dec-2016

 -------------
 #p 6-31g* mp2
 -------------

 ------------------------------------------------------
 Input file generated by CHIRIPA (05-May-2021 14:57:23)
 ------------------------------------------------------
 Symbolic Z-matrix:
 Charge =  0 Multiplicity = 1

                         Standard orientation:
 ---------------------------------------------------------------------
 Center     Atomic      Atomic             Coordinates (Angstroms)
 Number     Number       Type             X           Y           Z
 ---------------------------------------------------------------------
      1          6           0        3.957264    2.498537    0.620443
      2          6           0        4.712631    1.915545   -0.402328
      3          6           0        4.536638    0.569345   -0.735977
      4          6           0        3.592303   -0.167731   -0.023068
      5          6           0        2.824447    0.384484    1.001015
      6          6           0        3.017240    1.732497    1.317621
      7          1           0        4.100505    3.545002    0.873010
      8          1           0        5.443385    2.508044   -0.945457
      9          1           0        5.107949    0.092745   -1.523298
     10          1           0        2.103564   -0.231633    1.524606
     11          1           0        2.429200    2.182608    2.112388
     12          7           0        3.397094   -1.593852   -0.367266
     13          8           0        2.558744   -2.221701    0.275860
     14          8           0        4.086136   -2.056792   -1.273657
     15          6           0       -1.492015   -1.336010    0.423435
     16          6           0       -2.718406   -1.848119    0.859590
     17          6           0       -3.906261   -1.153714    0.611899
     18          6           0       -3.830634    0.055342   -0.077850
     19          6           0       -2.624154    0.591601   -0.525200
     20          6           0       -1.448879   -0.119930   -0.266352
     21          1           0       -0.574147   -1.882092    0.620181
     22          1           0       -2.754925   -2.792307    1.395519
     23          1           0       -4.869283   -1.527200    0.938263
     24          1           0       -2.619568    1.535306   -1.057007
     25          1           0       -0.497873    0.280188   -0.606260
     26          7           0       -5.081504    0.799542   -0.345975
     27          8           0       -4.988013    1.862618   -0.955701
     28          8           0       -6.131740    0.305678    0.058670
 ---------------------------------------------------------------------

 SCF Done:  E(RHF) =  -868.339698589     A.U. after   16 cycles
 E2 =    -0.2599182388D+01 EUMP2 =    -0.87093888097736D+03

 The electronic state is 1-A.
 Alpha  occ. eigenvalues --  -20.61918 -20.61843 -20.60611 -20.60603 -15.86915
 Alpha  occ. eigenvalues --  -15.85662 -11.32137 -11.30939 -11.28712 -11.28617
 Alpha  occ. eigenvalues --  -11.28317 -11.27637 -11.27593 -11.27537 -11.27499
 Alpha  occ. eigenvalues --  -11.27068 -11.26478 -11.26425  -1.60939  -1.59688
 Alpha  occ. eigenvalues --   -1.40502  -1.39244  -1.20274  -1.19097  -1.09682
 Alpha  occ. eigenvalues --   -1.08477  -1.05645  -1.04498  -0.96547  -0.95327
 Alpha  occ. eigenvalues --   -0.87045  -0.85882  -0.83383  -0.82174  -0.78465
 Alpha  occ. eigenvalues --   -0.77264  -0.73136  -0.72256  -0.71879  -0.71351
 Alpha  occ. eigenvalues --   -0.71012  -0.70099  -0.65916  -0.65622  -0.64734
 Alpha  occ. eigenvalues --   -0.64490  -0.62989  -0.61855  -0.56112  -0.54863
 Alpha  occ. eigenvalues --   -0.53988  -0.53716  -0.52826  -0.52573  -0.49902
 Alpha  occ. eigenvalues --   -0.49860  -0.48641  -0.48629  -0.45930  -0.44670
 Alpha  occ. eigenvalues --   -0.38225  -0.37256  -0.37027  -0.36124
 Alpha virt. eigenvalues --    0.04016   0.05279   0.10345   0.11531   0.15555
 Alpha virt. eigenvalues --    0.16790   0.20227   0.21823   0.25988   0.27031
 Alpha virt. eigenvalues --    0.27535   0.28818   0.30363   0.31009   0.32355

 Mulliken charges:
               1
     1  C   -0.170298
     2  C   -0.217909
     3  C   -0.170556
     4  C    0.157617
     5  C   -0.176821
     6  C   -0.218865
     7  H    0.229616
     8  H    0.227160
     9  H    0.277911
    10  H    0.272153
    11  H    0.227320
    12  N    0.490058
    13  O   -0.470352
    14  O   -0.453362
    15  C   -0.180480
    16  C   -0.219593
    17  C   -0.171090
    18  C    0.157603
    19  C   -0.171779
    20  C   -0.223076
    21  H    0.245488
    22  H    0.225094
    23  H    0.274779
    24  H    0.273167
    25  H    0.221142
    26  N    0.488214
    27  O   -0.462262
    28  O   -0.460876
 Sum of Mulliken charges =  -0.00000

 Dipole moment (field-independent basis, Debye):
    X=              5.4985    Y=              2.4242    Z=              2.1386  Tot=              6.3784
 Quadrupole moment (field-independent basis, Debye-Ang):
   XX=           -129.9257   YY=           -104.6867   ZZ=           -102.3953
   XY=             31.6055   XZ=             -4.1920   YZ=             -2.1280

 Normal termination of Gaussian 16 at Thu May  6 08:11:46 2021.
