 Gaussian 16, Revision A.03,
 Gaussian 16:  EM64L-G16RevA.03 25-Dec-2016

 -------------
 #p 6-31g* mp2
 -------------

 ------------------------------------------------------
 Input file generated by CHIRIPA (05-May-2021 14:53:12)
 ------------------------------------------------------
 Symbolic Z-matrix:
 Charge =  0 Multiplicity = 1

                         Standard orientation:
 ---------------------------------------------------------------------
 Center     Atomic      Atomic             Coordinates (Angstroms)
 Number     Number       Type             X           Y           Z
 ---------------------------------------------------------------------
      1          6           0       -5.117402    0.337638    0.027624
      2          6           0       -6.576282   -0.105736   -0.086715
      3          6           0       -7.530584    1.061363   -0.341631
      4          1           0       -5.026483    1.071638    0.839980
      5          1           0       -4.825536    0.856080   -0.896187
      6          1           0       -6.864895   -0.624404    0.836487
      7          1           0       -6.663705   -0.838909   -0.898768
      8          1           0       -7.270507    1.575359   -1.272636
      9          1           0       -7.472841    1.791082    0.472479
     10          1           0       -8.568109    0.721850   -0.419956
     11          6           0       -4.151239   -0.817914    0.282488
     12          6           0       -2.692358   -0.374541    0.396827
     13          6           0       -1.738056   -1.541639    0.651744
     14          1           0       -4.443104   -1.336357    1.206299
     15          1           0       -4.242157   -1.551914   -0.529868
     16          1           0       -2.604936    0.358633    1.208880
     17          1           0       -2.403745    0.144128   -0.526375
     18          1           0       -1.795800   -2.271359   -0.162367
     19          1           0       -1.998133   -2.055635    1.582748
     20          1           0       -0.700532   -1.202127    0.730068
     21          6           0        1.142446    0.526657   -0.452658
     22          6           0        1.721214   -0.717510   -0.723942
     23          6           0        3.093225   -0.916769   -0.543851
     24          6           0        3.860138    0.154830   -0.089087
     25          6           0        3.312894    1.406228    0.189870
     26          6           0        1.938730    1.582694    0.002580
     27          1           0        0.075798    0.672593   -0.595353
     28          1           0        1.105256   -1.539440   -1.077596
     29          1           0        3.567228   -1.869547   -0.746220
     30          1           0        3.952684    2.206620    0.541241
     31          1           0        1.491969    2.550022    0.214065
     32          7           0        5.313764   -0.044051    0.105377
     33          8           0        5.967658    0.916026    0.507011
     34          8           0        5.771698   -1.156247   -0.147518
 ---------------------------------------------------------------------

 SCF Done:  E(RHF) =  -669.534167046     A.U. after   15 cycles
 E2 =    -0.2092972819D+01 EUMP2 =    -0.67162713986509D+03

 The electronic state is 1-A.
 Alpha  occ. eigenvalues --  -20.60745 -20.60739 -15.85798 -11.31166 -11.27737
 Alpha  occ. eigenvalues --  -11.27726 -11.27412 -11.26736 -11.26706 -11.22806
 Alpha  occ. eigenvalues --  -11.22279 -11.22209 -11.22112 -11.22106 -11.21586
 Alpha  occ. eigenvalues --   -1.59820  -1.39373  -1.19342  -1.09295  -1.08735
 Alpha  occ. eigenvalues --   -1.04746  -1.04395  -0.96836  -0.95560  -0.87848
 Alpha  occ. eigenvalues --   -0.86133  -0.82400  -0.80494  -0.79071  -0.77445
 Alpha  occ. eigenvalues --   -0.72017  -0.71143  -0.70491  -0.65921  -0.65002
 Alpha  occ. eigenvalues --   -0.64775  -0.62122  -0.61769  -0.60209  -0.58462
 Alpha  occ. eigenvalues --   -0.56088  -0.55172  -0.53675  -0.53321  -0.52853
 Alpha  occ. eigenvalues --   -0.52764  -0.50749  -0.48818  -0.48772  -0.48747
 Alpha  occ. eigenvalues --   -0.47521  -0.46610  -0.46510  -0.44779  -0.44637
 Alpha  occ. eigenvalues --   -0.37264  -0.36335
 Alpha virt. eigenvalues --    0.05061   0.11190   0.16513   0.20033   0.22417
 Alpha virt. eigenvalues --    0.24042   0.25417   0.25852   0.26647   0.27812
 Alpha virt. eigenvalues --    0.29147   0.30030   0.30912   0.31730   0.32146

 Mulliken charges:
               1
     1  C   -0.299056
     2  C   -0.300317
     3  C   -0.476154
     4  H    0.150441
     5  H    0.148843
     6  H    0.153418
     7  H    0.152874
     8  H    0.155414
     9  H    0.155818
    10  H    0.162266
    11  C   -0.297838
    12  C   -0.304502
    13  C   -0.488321
    14  H    0.153338
    15  H    0.151358
    16  H    0.154935
    17  H    0.143465
    18  H    0.153602
    19  H    0.162767
    20  H    0.165059
    21  C   -0.176945
    22  C   -0.221478
    23  C   -0.171645
    24  C    0.158170
    25  C   -0.170779
    26  C   -0.221466
    27  H    0.237374
    28  H    0.227112
    29  H    0.275713
    30  H    0.275512
    31  H    0.223886
    32  N    0.488052
    33  O   -0.460506
    34  O   -0.460409
 Sum of Mulliken charges =  -0.00000

 Dipole moment (field-independent basis, Debye):
    X=             -5.3123    Y=              0.6761    Z=             -0.6269  Tot=              5.3917
 Quadrupole moment (field-independent basis, Debye-Ang):
   XX=           -134.6784   YY=            -90.5584   ZZ=            -93.9237
   XY=              3.0769   XZ=             -2.5071   YZ=              1.7071

 Normal termination of Gaussian 16 at Thu May  6 08:51:46 2021.
