 Gaussian 16, Revision A.03,
 Gaussian 16:  EM64L-G16RevA.03 25-Dec-2016

 -------------
 #p 6-31g* mp2
 -------------

 ------------------------------------------------------
 Input file generated by CHIRIPA (05-May-2021 14:55:19)
 ------------------------------------------------------
 Symbolic Z-matrix:
 Charge =  0 Multiplicity = 1

                         Standard orientation:
 ---------------------------------------------------------------------
 Center     Atomic      Atomic             Coordinates (Angstroms)
 Number     Number       Type             X           Y           Z
 ---------------------------------------------------------------------
      1          6           0       -2.994817    2.150883    0.786994
      2          6           0       -1.888382    1.839174   -0.009975
      3          6           0       -1.690177    0.534119   -0.470513
      4          6           0       -2.622371   -0.438891   -0.113364
      5          6           0       -3.734664   -0.159600    0.679158
      6          6           0       -3.912808    1.152262    1.128415
      7          1           0       -3.140995    3.167325    1.140369
      8          1           0       -1.173832    2.612687   -0.276698
      9          1           0       -0.842369    0.265211   -1.088839
     10          1           0       -4.429833   -0.952059    0.928491
     11          1           0       -4.772998    1.391447    1.747212
     12          7           0       -2.423160   -1.824097   -0.594943
     13          8           0       -3.258886   -2.663267   -0.266322
     14          8           0       -1.435063   -2.044422   -1.291908
     15          6           0        2.945586    0.725310   -0.369337
     16          6           0        3.137921    2.210830   -0.062377
     17          6           0        2.224544    3.109860   -0.896211
     18          1           0        3.133063    0.550910   -1.437692
     19          1           0        1.896597    0.453308   -0.187593
     20          1           0        4.186548    2.479634   -0.243321
     21          1           0        2.950152    2.381681    1.005410
     22          1           0        1.172830    2.870179   -0.708992
     23          1           0        2.416251    2.968687   -1.964817
     24          1           0        2.378583    4.167536   -0.660728
     25          6           0        3.851736   -0.186194    0.456363
     26          6           0        3.659401   -1.671714    0.149401
     27          6           0        4.572778   -2.570744    0.983236
     28          1           0        4.900725    0.085808    0.274619
     29          1           0        3.664259   -0.011794    1.524718
     30          1           0        3.847171   -1.842565   -0.918385
     31          1           0        2.610774   -1.940517    0.330345
     32          1           0        4.381071   -2.429571    2.051842
     33          1           0        5.624493   -2.331063    0.796016
     34          1           0        4.418739   -3.628421    0.747753
 ---------------------------------------------------------------------

 SCF Done:  E(RHF) =  -669.535543633     A.U. after   15 cycles
 E2 =    -0.2091699450D+01 EUMP2 =    -0.67162724308279D+03

 The electronic state is 1-A.
 Alpha  occ. eigenvalues --  -20.60773 -20.60768 -15.85825 -11.31193 -11.27765
 Alpha  occ. eigenvalues --  -11.27749 -11.27503 -11.26782 -11.26756 -11.22084
 Alpha  occ. eigenvalues --  -11.21883 -11.21690 -11.21461 -11.21381 -11.20871
 Alpha  occ. eigenvalues --   -1.59848  -1.39401  -1.19366  -1.08761  -1.08632
 Alpha  occ. eigenvalues --   -1.04771  -1.03736  -0.96224  -0.95594  -0.87249
 Alpha  occ. eigenvalues --   -0.86166  -0.82430  -0.79825  -0.78382  -0.77471
 Alpha  occ. eigenvalues --   -0.72043  -0.71172  -0.70472  -0.65282  -0.65014
 Alpha  occ. eigenvalues --   -0.64789  -0.62159  -0.61102  -0.59617  -0.57796
 Alpha  occ. eigenvalues --   -0.55563  -0.55259  -0.53098  -0.52997  -0.52872
 Alpha  occ. eigenvalues --   -0.52547  -0.50170  -0.48804  -0.48798  -0.48125
 Alpha  occ. eigenvalues --   -0.46850  -0.45932  -0.45815  -0.44805  -0.43977
 Alpha  occ. eigenvalues --   -0.37347  -0.36368
 Alpha virt. eigenvalues --    0.05034   0.11248   0.16484   0.19411   0.22964
 Alpha virt. eigenvalues --    0.23956   0.25318   0.26167   0.26939   0.28416
 Alpha virt. eigenvalues --    0.29362   0.30044   0.31364   0.31843   0.32021

 Mulliken charges:
               1
     1  C   -0.171403
     2  C   -0.225024
     3  C   -0.175882
     4  C    0.158612
     5  C   -0.170887
     6  C   -0.218453
     7  H    0.226212
     8  H    0.231822
     9  H    0.278632
    10  H    0.275609
    11  H    0.223460
    12  N    0.487949
    13  O   -0.460512
    14  O   -0.460278
    15  C   -0.300817
    16  C   -0.299309
    17  C   -0.479625
    18  H    0.152321
    19  H    0.147483
    20  H    0.155247
    21  H    0.152379
    22  H    0.143925
    23  H    0.159714
    24  H    0.162270
    25  C   -0.298609
    26  C   -0.301253
    27  C   -0.476142
    28  H    0.149556
    29  H    0.149216
    30  H    0.153763
    31  H    0.158804
    32  H    0.154231
    33  H    0.153638
    34  H    0.163349
 Sum of Mulliken charges =  -0.00000

 Dipole moment (field-independent basis, Debye):
    X=             -0.5944    Y=              4.8022    Z=              1.6908  Tot=              5.1258
 Quadrupole moment (field-independent basis, Debye-Ang):
   XX=            -87.1810   YY=            -99.7703   ZZ=            -94.4469
   XY=            -10.8241   XZ=             -7.7380   YZ=             -1.6386

 Normal termination of Gaussian 16 at Thu May  6 19:03:20 2021.
