 Gaussian 16, Revision A.03,
 Gaussian 16:  EM64L-G16RevA.03 25-Dec-2016

 -------------
 #p 6-31g* mp2
 -------------

 ------------------------------------------------------
 Input file generated by CHIRIPA (05-May-2021 14:53:11)
 ------------------------------------------------------
 Symbolic Z-matrix:
 Charge =  0 Multiplicity = 1

                         Standard orientation:
 ---------------------------------------------------------------------
 Center     Atomic      Atomic             Coordinates (Angstroms)
 Number     Number       Type             X           Y           Z
 ---------------------------------------------------------------------
      1          6           0       -5.316041    0.115332    0.390044
      2          6           0       -6.532041   -0.274468   -0.451017
      3          6           0       -7.800424    0.472983   -0.038326
      4          1           0       -5.531875   -0.082595    1.448905
      5          1           0       -5.149839    1.197930    0.301984
      6          1           0       -6.695066   -1.356227   -0.362497
      7          1           0       -6.313215   -0.075770   -1.508018
      8          1           0       -7.662128    1.553893   -0.143720
      9          1           0       -8.046149    0.266160    1.008309
     10          1           0       -8.657364    0.179120   -0.652458
     11          6           0       -4.040348   -0.623486   -0.010561
     12          6           0       -2.824348   -0.233686    0.830500
     13          6           0       -1.555965   -0.981137    0.417809
     14          1           0       -4.206550   -1.706084    0.077500
     15          1           0       -3.824514   -0.425560   -1.069422
     16          1           0       -3.043174   -0.432384    1.887501
     17          1           0       -2.661323    0.848073    0.741980
     18          1           0       -1.310240   -0.774314   -0.628826
     19          1           0       -1.694261   -2.062047    0.523203
     20          1           0       -0.699025   -0.687275    1.031941
     21          6           0        5.841795   -0.937178    0.393420
     22          6           0        4.823695   -1.649121   -0.249332
     23          6           0        3.607858   -1.030036   -0.554335
     24          6           0        3.443412    0.308291   -0.200601
     25          6           0        4.438719    1.044364    0.440377
     26          6           0        5.646402    0.404925    0.735620
     27          1           0        6.783118   -1.426003    0.626563
     28          1           0        4.972643   -2.691523   -0.516273
     29          1           0        2.802869   -1.557598   -1.051415
     30          1           0        4.260781    2.082356    0.694008
     31          1           0        6.435310    0.960304    1.234844
     32          7           0        2.160577    0.974461   -0.518329
     33          8           0        2.040572    2.154480   -0.196161
     34          8           0        1.299387    0.303973   -1.083513
 ---------------------------------------------------------------------

 SCF Done:  E(RHF) =  -669.535617607     A.U. after   15 cycles
 E2 =    -0.2091049596D+01 EUMP2 =    -0.67162666720256D+03

 The electronic state is 1-A.
 Alpha  occ. eigenvalues --  -20.60883 -20.60851 -15.85901 -11.31244 -11.27812
 Alpha  occ. eigenvalues --  -11.27805 -11.27553 -11.26824 -11.26813 -11.21008
 Alpha  occ. eigenvalues --  -11.20659 -11.20570 -11.20518 -11.20459 -11.19660
 Alpha  occ. eigenvalues --   -1.59934  -1.39490  -1.19416  -1.08818  -1.07604
 Alpha  occ. eigenvalues --   -1.04815  -1.02645  -0.95662  -0.95081  -0.86216
 Alpha  occ. eigenvalues --   -0.86103  -0.82491  -0.78740  -0.77545  -0.77392
 Alpha  occ. eigenvalues --   -0.72135  -0.71253  -0.70525  -0.65073  -0.64819
 Alpha  occ. eigenvalues --   -0.64234  -0.62161  -0.60029  -0.58502  -0.56698
 Alpha  occ. eigenvalues --   -0.55320  -0.54361  -0.53147  -0.52907  -0.51783
 Alpha  occ. eigenvalues --   -0.51518  -0.49142  -0.48885  -0.48768  -0.47045
 Alpha  occ. eigenvalues --   -0.45791  -0.44990  -0.44912  -0.44727  -0.42887
 Alpha  occ. eigenvalues --   -0.37396  -0.36417
 Alpha virt. eigenvalues --    0.04982   0.11236   0.16464   0.21358   0.23664
 Alpha virt. eigenvalues --    0.25227   0.27274   0.27454   0.28109   0.28296
 Alpha virt. eigenvalues --    0.29005   0.30921   0.32196   0.32427   0.32698

 Mulliken charges:
               1
     1  C   -0.297812
     2  C   -0.299093
     3  C   -0.475295
     4  H    0.147516
     5  H    0.150393
     6  H    0.150204
     7  H    0.151996
     8  H    0.155218
     9  H    0.154006
    10  H    0.158404
    11  C   -0.298106
    12  C   -0.300447
    13  C   -0.472466
    14  H    0.145785
    15  H    0.151323
    16  H    0.145579
    17  H    0.156863
    18  H    0.173515
    19  H    0.142777
    20  H    0.156515
    21  C   -0.170689
    22  C   -0.218569
    23  C   -0.170717
    24  C    0.157767
    25  C   -0.170834
    26  C   -0.218592
    27  H    0.225802
    28  H    0.223737
    29  H    0.276200
    30  H    0.275697
    31  H    0.223615
    32  N    0.489860
    33  O   -0.460181
    34  O   -0.459973
 Sum of Mulliken charges =  -0.00000

 Dipole moment (field-independent basis, Debye):
    X=              4.7775    Y=             -2.2591    Z=              1.0053  Tot=              5.3794
 Quadrupole moment (field-independent basis, Debye-Ang):
   XX=            -65.6038   YY=            -92.6582   ZZ=            -94.8428
   XY=             -4.8800   XZ=              4.1508   YZ=              2.3779

 Normal termination of Gaussian 16 at Thu May  6 02:29:27 2021.
