 Gaussian 16, Revision A.03,
 Gaussian 16:  EM64L-G16RevA.03 25-Dec-2016

 -------------
 #p 6-31g* mp2
 -------------

 ------------------------------------------------------
 Input file generated by CHIRIPA (05-May-2021 14:57:25)
 ------------------------------------------------------
 Symbolic Z-matrix:
 Charge =  0 Multiplicity = 1

                         Standard orientation:
 ---------------------------------------------------------------------
 Center     Atomic      Atomic             Coordinates (Angstroms)
 Number     Number       Type             X           Y           Z
 ---------------------------------------------------------------------
      1          6           0       -1.788266    1.974104    1.474051
      2          6           0       -1.649275    0.691666    2.014935
      3          6           0       -1.972088   -0.437584    1.256559
      4          6           0       -2.433119   -0.246838   -0.045115
      5          6           0       -2.582328    1.017858   -0.612187
      6          6           0       -2.253528    2.132827    0.164525
      7          1           0       -1.535172    2.845786    2.070298
      8          1           0       -1.288180    0.565384    3.031649
      9          1           0       -1.873953   -1.441901    1.650431
     10          1           0       -2.944743    1.111965   -1.628660
     11          1           0       -2.362463    3.127580   -0.258138
     12          7           0       -2.778036   -1.434766   -0.857680
     13          8           0       -3.182131   -1.239891   -2.001956
     14          8           0       -2.637754   -2.538245   -0.334906
     15          6           0        1.916613    2.316513   -1.099909
     16          6           0        2.620189    1.353493   -1.830727
     17          6           0        2.880587    0.094921   -1.280511
     18          6           0        2.420711   -0.167962    0.008945
     19          6           0        1.717076    0.770537    0.762207
     20          6           0        1.468093    2.022480    0.191948
     21          1           0        1.718763    3.291626   -1.535115
     22          1           0        2.969718    1.579061   -2.834217
     23          1           0        3.422937   -0.669130   -1.824112
     24          1           0        1.381320    0.516375    1.760250
     25          1           0        0.921442    2.768434    0.761835
     26          7           0        2.690341   -1.496847    0.602044
     27          8           0        2.274489   -1.703708    1.739986
     28          8           0        3.312422   -2.306404   -0.082260
 ---------------------------------------------------------------------

 SCF Done:  E(RHF) =  -868.335025088     A.U. after   16 cycles
 E2 =    -0.2604592717D+01 EUMP2 =    -0.87093961780463D+03

 The electronic state is 1-A.
 Alpha  occ. eigenvalues --  -20.60964 -20.60935 -20.60908 -20.60871 -15.86012
 Alpha  occ. eigenvalues --  -15.85947 -11.31588 -11.31325 -11.28225 -11.28134
 Alpha  occ. eigenvalues --  -11.28056 -11.27921 -11.27852 -11.27677 -11.27318
 Alpha  occ. eigenvalues --  -11.27230 -11.26971 -11.26904  -1.60024  -1.59960
 Alpha  occ. eigenvalues --   -1.39570  -1.39518  -1.19820  -1.19498  -1.09211
 Alpha  occ. eigenvalues --   -1.08904  -1.05237  -1.04915  -0.95985  -0.95741
 Alpha  occ. eigenvalues --   -0.86659  -0.86319  -0.82808  -0.82574  -0.77793
 Alpha  occ. eigenvalues --   -0.77615  -0.72229  -0.72170  -0.71353  -0.71277
 Alpha  occ. eigenvalues --   -0.70978  -0.70656  -0.65472  -0.65255  -0.65171
 Alpha  occ. eigenvalues --   -0.64970  -0.62563  -0.62314  -0.55827  -0.55477
 Alpha  occ. eigenvalues --   -0.53990  -0.53331  -0.53045  -0.52764  -0.49009
 Alpha  occ. eigenvalues --   -0.48965  -0.48931  -0.48913  -0.44931  -0.44916
 Alpha  occ. eigenvalues --   -0.38113  -0.37610  -0.36644  -0.36218
 Alpha virt. eigenvalues --    0.04686   0.04932   0.10468   0.11397   0.15949
 Alpha virt. eigenvalues --    0.16490   0.19623   0.22110   0.25864   0.26139
 Alpha virt. eigenvalues --    0.28387   0.28931   0.29860   0.31690   0.31947

 Mulliken charges:
               1
     1  C   -0.179142
     2  C   -0.225294
     3  C   -0.167002
     4  C    0.159819
     5  C   -0.168224
     6  C   -0.216154
     7  H    0.221788
     8  H    0.227160
     9  H    0.284715
    10  H    0.276305
    11  H    0.220612
    12  N    0.487631
    13  O   -0.460948
    14  O   -0.454608
    15  C   -0.173174
    16  C   -0.218039
    17  C   -0.170182
    18  C    0.157572
    19  C   -0.165848
    20  C   -0.208583
    21  H    0.222458
    22  H    0.224298
    23  H    0.277322
    24  H    0.267600
    25  H    0.212139
    26  N    0.489144
    27  O   -0.464792
    28  O   -0.456574
 Sum of Mulliken charges =  -0.00000

 Dipole moment (field-independent basis, Debye):
    X=              0.1440    Y=              8.5452    Z=              0.6652  Tot=              8.5723
 Quadrupole moment (field-independent basis, Debye-Ang):
   XX=           -115.0475   YY=           -107.6672   ZZ=            -99.2649
   XY=             -0.4465   XZ=            -13.5959   YZ=             -2.0305

 Normal termination of Gaussian 16 at Thu May  6 22:52:22 2021.
