 Gaussian 16, Revision A.03,
 Gaussian 16:  EM64L-G16RevA.03 25-Dec-2016

 -------------
 #p 6-31g* mp2
 -------------

 ------------------------------------------------------
 Input file generated by CHIRIPA (05-May-2021 14:51:08)
 ------------------------------------------------------
 Symbolic Z-matrix:
 Charge =  0 Multiplicity = 1

                         Standard orientation:
 ---------------------------------------------------------------------
 Center     Atomic      Atomic             Coordinates (Angstroms)
 Number     Number       Type             X           Y           Z
 ---------------------------------------------------------------------
      1          6           0        4.511453    0.755847    0.015226
      2          6           0        3.055703    0.403133   -0.291972
      3          6           0        2.115494    1.600976   -0.154226
      4          1           0        4.576898    1.159821    1.034768
      5          1           0        4.837398    1.558612   -0.660586
      6          1           0        2.733029   -0.399684    0.383292
      7          1           0        2.993745   -0.000227   -1.310833
      8          1           0        2.409904    2.402580   -0.839320
      9          1           0        2.147706    2.000853    0.864431
     10          1           0        1.079996    1.326413   -0.378322
     11          6           0        5.463563   -0.431342   -0.118177
     12          6           0        6.919313   -0.078629    0.189021
     13          6           0        7.859523   -1.276471    0.051275
     14          1           0        5.137618   -1.234108    0.557635
     15          1           0        5.398118   -0.835316   -1.137719
     16          1           0        6.981271    0.324731    1.207882
     17          1           0        7.241988    0.724188   -0.486243
     18          1           0        7.827311   -1.676349   -0.967381
     19          1           0        7.565113   -2.078076    0.736370
     20          1           0        8.895021   -1.001909    0.275372
     21          6           0       -5.668654    0.173163    0.134959
     22          6           0       -6.841986   -0.739707   -0.222734
     23          6           0       -8.197945   -0.054466   -0.050645
     24          1           0       -5.780147    0.512991    1.173724
     25          1           0       -5.708218    1.073103   -0.494276
     26          1           0       -6.799429   -1.638296    0.406029
     27          1           0       -6.727586   -1.077555   -1.260706
     28          1           0       -8.265639    0.831713   -0.689947
     29          1           0       -8.337890    0.267785    0.986259
     30          1           0       -9.022623   -0.724972   -0.311771
     31          6           0       -4.306363   -0.497667   -0.032009
     32          6           0       -3.133030    0.415203    0.325685
     33          6           0       -1.777072   -0.270038    0.153596
     34          1           0       -4.266798   -1.397607    0.597227
     35          1           0       -4.194870   -0.837495   -1.070772
     36          1           0       -3.247430    0.753051    1.363657
     37          1           0       -3.175587    1.313792   -0.303078
     38          1           0       -1.637126   -0.592290   -0.883308
     39          1           0       -1.709377   -1.156216    0.792898
     40          1           0       -0.952394    0.400469    0.414722
 ---------------------------------------------------------------------

 SCF Done:  E(RHF) =  -470.733289132     A.U. after   11 cycles
 E2 =    -0.1582097631D+01 EUMP2 =    -0.47231538676278D+03

 The electronic state is 1-A.
 Alpha  occ. eigenvalues --  -11.21602 -11.21600 -11.21584 -11.21564 -11.21403
 Alpha  occ. eigenvalues --  -11.21380 -11.21344 -11.21320 -11.21069 -11.21065
 Alpha  occ. eigenvalues --  -11.21057 -11.21024  -1.08430  -1.08404  -1.03538
 Alpha  occ. eigenvalues --   -1.03496  -0.96011  -0.95930  -0.87047  -0.86930
 Alpha  occ. eigenvalues --   -0.79610  -0.79550  -0.78241  -0.78215  -0.65059
 Alpha  occ. eigenvalues --   -0.65034  -0.60927  -0.60901  -0.59620  -0.59131
 Alpha  occ. eigenvalues --   -0.57707  -0.57439  -0.55267  -0.55242  -0.52983
 Alpha  occ. eigenvalues --   -0.52506  -0.52422  -0.52184  -0.49920  -0.49896
 Alpha  occ. eigenvalues --   -0.47960  -0.47828  -0.46625  -0.46599  -0.45784
 Alpha  occ. eigenvalues --   -0.45758  -0.45708  -0.45683  -0.43937  -0.43582
 Alpha virt. eigenvalues --    0.22136   0.22983   0.23484   0.24896   0.26646
 Alpha virt. eigenvalues --    0.26663   0.26979   0.27482   0.27595   0.28736
 Alpha virt. eigenvalues --    0.30560   0.31396   0.31446   0.31858   0.32009

 Mulliken charges:
               1
     1  C   -0.298352
     2  C   -0.299152
     3  C   -0.482575
     4  H    0.149521
     5  H    0.149426
     6  H    0.152483
     7  H    0.151921
     8  H    0.155021
     9  H    0.154564
    10  H    0.166861
    11  C   -0.298243
    12  C   -0.299629
    13  C   -0.475689
    14  H    0.149559
    15  H    0.149625
    16  H    0.151896
    17  H    0.151878
    18  H    0.155159
    19  H    0.155173
    20  H    0.160185
    21  C   -0.298258
    22  C   -0.299639
    23  C   -0.475703
    24  H    0.149658
    25  H    0.149567
    26  H    0.151914
    27  H    0.151939
    28  H    0.155197
    29  H    0.155180
    30  H    0.160244
    31  C   -0.298516
    32  C   -0.299109
    33  C   -0.482617
    34  H    0.149517
    35  H    0.149636
    36  H    0.151996
    37  H    0.152075
    38  H    0.155003
    39  H    0.155328
    40  H    0.166957
 Sum of Mulliken charges =  -0.00000

 Dipole moment (field-independent basis, Debye):
    X=             -0.0128    Y=             -0.0046    Z=              0.0009  Tot=              0.0136
 Quadrupole moment (field-independent basis, Debye-Ang):
   XX=            -86.6310   YY=            -85.3869   ZZ=            -82.8396
   XY=              1.0045   XZ=             -0.0837   YZ=             -0.6349

 Normal termination of Gaussian 16 at Thu May  6 08:26:03 2021.
