 Gaussian 16, Revision A.03,
 Gaussian 16:  EM64L-G16RevA.03 25-Dec-2016

 -------------
 #p 6-31g* mp2
 -------------

 ------------------------------------------------------
 Input file generated by CHIRIPA (05-May-2021 14:57:27)
 ------------------------------------------------------
 Symbolic Z-matrix:
 Charge =  0 Multiplicity = 1

                         Standard orientation:
 ---------------------------------------------------------------------
 Center     Atomic      Atomic             Coordinates (Angstroms)
 Number     Number       Type             X           Y           Z
 ---------------------------------------------------------------------
      1          6           0        3.111920    2.218635    1.392062
      2          6           0        2.276377    1.101675    1.495927
      3          6           0        2.539807   -0.053527    0.753861
      4          6           0        3.652386   -0.057190   -0.086047
      5          6           0        4.503619    1.039636   -0.211206
      6          6           0        4.220920    2.184112    0.540329
      7          1           0        2.899797    3.111857    1.972195
      8          1           0        1.414405    1.125644    2.156590
      9          1           0        1.909511   -0.932384    0.815143
     10          1           0        5.355414    0.985791   -0.878262
     11          1           0        4.871549    3.050075    0.457661
     12          7           0        3.941468   -1.274473   -0.876651
     13          8           0        4.927949   -1.252413   -1.609457
     14          8           0        3.176094   -2.227589   -0.748550
     15          6           0       -2.267928   -1.929439    1.134317
     16          6           0       -1.631376   -1.038357    0.264090
     17          6           0       -2.362102   -0.044838   -0.394322
     18          6           0       -3.733980    0.029231   -0.158195
     19          6           0       -4.396938   -0.843826    0.702936
     20          6           0       -3.646247   -1.829506    1.350582
     21          1           0       -1.692527   -2.698184    1.641606
     22          1           0       -0.561083   -1.113607    0.094226
     23          1           0       -1.894672    0.658023   -1.073229
     24          1           0       -5.465202   -0.743965    0.852132
     25          1           0       -4.143259   -2.520168    2.025866
     26          7           0       -4.518135    1.076876   -0.849527
     27          8           0       -5.725628    1.121153   -0.624500
     28          8           0       -3.910415    1.833907   -1.603330
 ---------------------------------------------------------------------

 SCF Done:  E(RHF) =  -868.337706246     A.U. after   16 cycles
 E2 =    -0.2599509571D+01 EUMP2 =    -0.87093721581672D+03

 The electronic state is 1-A.
 Alpha  occ. eigenvalues --  -20.61433 -20.61399 -20.60956 -20.60951 -15.86471
 Alpha  occ. eigenvalues --  -15.86012 -11.31860 -11.31405 -11.28510 -11.28344
 Alpha  occ. eigenvalues --  -11.28072 -11.27993 -11.27978 -11.27732 -11.27439
 Alpha  occ. eigenvalues --  -11.27354 -11.27027 -11.26982  -1.60490  -1.60032
 Alpha  occ. eigenvalues --   -1.40047  -1.39584  -1.20007  -1.19589  -1.09380
 Alpha  occ. eigenvalues --   -1.08977  -1.05421  -1.04996  -0.96226  -0.95803
 Alpha  occ. eigenvalues --   -0.86809  -0.86394  -0.83063  -0.82634  -0.78136
 Alpha  occ. eigenvalues --   -0.77674  -0.72687  -0.72228  -0.71812  -0.71357
 Alpha  occ. eigenvalues --   -0.71107  -0.70683  -0.65657  -0.65438  -0.65239
 Alpha  occ. eigenvalues --   -0.64991  -0.62824  -0.62286  -0.55872  -0.55485
 Alpha  occ. eigenvalues --   -0.53736  -0.53535  -0.53326  -0.53039  -0.49457
 Alpha  occ. eigenvalues --   -0.49433  -0.48990  -0.48981  -0.45448  -0.44983
 Alpha  occ. eigenvalues --   -0.37947  -0.37574  -0.37029  -0.36599
 Alpha virt. eigenvalues --    0.04384   0.04862   0.10580   0.11015   0.15905
 Alpha virt. eigenvalues --    0.16336   0.19226   0.21836   0.24967   0.27256
 Alpha virt. eigenvalues --    0.28030   0.28929   0.30109   0.31000   0.31810

 Mulliken charges:
               1
     1  C   -0.170226
     2  C   -0.218476
     3  C   -0.178768
     4  C    0.161074
     5  C   -0.170255
     6  C   -0.217288
     7  H    0.229175
     8  H    0.225245
     9  H    0.268728
    10  H    0.277867
    11  H    0.226745
    12  N    0.488180
    13  O   -0.456280
    14  O   -0.464649
    15  C   -0.172016
    16  C   -0.225732
    17  C   -0.172247
    18  C    0.158567
    19  C   -0.170733
    20  C   -0.218688
    21  H    0.227390
    22  H    0.226603
    23  H    0.277017
    24  H    0.276324
    25  H    0.224567
    26  N    0.487995
    27  O   -0.459888
    28  O   -0.460232
 Sum of Mulliken charges =  -0.00000

 Dipole moment (field-independent basis, Debye):
    X=              1.8793    Y=              0.7360    Z=              5.2158  Tot=              5.5927
 Quadrupole moment (field-independent basis, Debye-Ang):
   XX=           -125.4423   YY=           -104.7852   ZZ=           -105.4764
   XY=             34.0874   XZ=             -3.3338   YZ=             -1.6164

 Normal termination of Gaussian 16 at Thu May  6 11:33:13 2021.
