 Gaussian 16, Revision A.03,
 Gaussian 16:  EM64L-G16RevA.03 25-Dec-2016

 -------------
 #p 6-31g* mp2
 -------------

 ------------------------------------------------------
 Input file generated by CHIRIPA (05-May-2021 14:57:23)
 ------------------------------------------------------
 Symbolic Z-matrix:
 Charge =  0 Multiplicity = 1

                         Standard orientation:
 ---------------------------------------------------------------------
 Center     Atomic      Atomic             Coordinates (Angstroms)
 Number     Number       Type             X           Y           Z
 ---------------------------------------------------------------------
      1          6           0       -1.943381    1.765797   -1.227071
      2          6           0       -1.329176    0.606274   -0.742529
      3          6           0       -2.087004   -0.394486   -0.127124
      4          6           0       -3.462903   -0.201986   -0.012505
      5          6           0       -4.104027    0.942047   -0.485196
      6          6           0       -3.326408    1.929694   -1.097088
      7          1           0       -1.346995    2.538118   -1.703768
      8          1           0       -0.255289    0.476289   -0.842099
      9          1           0       -1.637252   -1.302056    0.256877
     10          1           0       -5.176525    1.043161   -0.371432
     11          1           0       -3.806105    2.829156   -1.472458
     12          7           0       -4.275658   -1.254505    0.637137
     13          8           0       -5.486143   -1.060882    0.725869
     14          8           0       -3.686820   -2.253162    1.045294
     15          6           0        4.071911   -1.840719   -1.403544
     16          6           0        4.479457   -1.824098   -0.065579
     17          6           0        4.073874   -0.793357    0.787429
     18          6           0        3.257125    0.209230    0.266823
     19          6           0        2.834369    0.220550   -1.061499
     20          6           0        3.252113   -0.820141   -1.896365
     21          1           0        4.391701   -2.645287   -2.059135
     22          1           0        5.116119   -2.615375    0.319890
     23          1           0        4.374641   -0.755890    1.827407
     24          1           0        2.199678    1.023214   -1.416910
     25          1           0        2.934063   -0.830469   -2.935010
     26          7           0        2.821315    1.305696    1.160261
     27          8           0        2.101785    2.177257    0.677255
     28          8           0        3.207509    1.272783    2.326626
 ---------------------------------------------------------------------

 SCF Done:  E(RHF) =  -868.337898421     A.U. after   16 cycles
 E2 =    -0.2600233862D+01 EUMP2 =    -0.87093813228385D+03

 The electronic state is 1-A.
 Alpha  occ. eigenvalues --  -20.61618 -20.61575 -20.60529 -20.60524 -15.86642
 Alpha  occ. eigenvalues --  -15.85581 -11.32049 -11.30877 -11.28671 -11.28505
 Alpha  occ. eigenvalues --  -11.28239 -11.27624 -11.27524 -11.27445 -11.27440
 Alpha  occ. eigenvalues --  -11.27147 -11.26436 -11.26422  -1.60663  -1.59605
 Alpha  occ. eigenvalues --   -1.40220  -1.39161  -1.20189  -1.19040  -1.09557
 Alpha  occ. eigenvalues --   -1.08441  -1.05594  -1.04440  -0.96400  -0.95291
 Alpha  occ. eigenvalues --   -0.86985  -0.85841  -0.83229  -0.82133  -0.78305
 Alpha  occ. eigenvalues --   -0.77195  -0.72855  -0.71988  -0.71802  -0.71272
 Alpha  occ. eigenvalues --   -0.70926  -0.70142  -0.65828  -0.65591  -0.64695
 Alpha  occ. eigenvalues --   -0.64463  -0.62945  -0.61783  -0.56037  -0.54930
 Alpha  occ. eigenvalues --   -0.53917  -0.53676  -0.52758  -0.52513  -0.49629
 Alpha  occ. eigenvalues --   -0.49599  -0.48560  -0.48553  -0.45606  -0.44583
 Alpha  occ. eigenvalues --   -0.38128  -0.37192  -0.36992  -0.36035
 Alpha virt. eigenvalues --    0.04198   0.05350   0.10303   0.11618   0.15765
 Alpha virt. eigenvalues --    0.16869   0.19942   0.21905   0.25695   0.27132
 Alpha virt. eigenvalues --    0.28210   0.28815   0.30590   0.31049   0.31848

 Mulliken charges:
               1
     1  C   -0.169566
     2  C   -0.216347
     3  C   -0.173141
     4  C    0.158774
     5  C   -0.171289
     6  C   -0.218604
     7  H    0.226659
     8  H    0.222341
     9  H    0.273946
    10  H    0.274708
    11  H    0.222955
    12  N    0.488225
    13  O   -0.461079
    14  O   -0.461827
    15  C   -0.170480
    16  C   -0.216734
    17  C   -0.170352
    18  C    0.160473
    19  C   -0.179387
    20  C   -0.217971
    21  H    0.229392
    22  H    0.227677
    23  H    0.278846
    24  H    0.268274
    25  H    0.225469
    26  N    0.488790
    27  O   -0.465638
    28  O   -0.454112
 Sum of Mulliken charges =  -0.00000

 Dipole moment (field-independent basis, Debye):
    X=              4.7355    Y=             -0.2229    Z=             -5.3425  Tot=              7.1426
 Quadrupole moment (field-independent basis, Debye-Ang):
   XX=           -109.7336   YY=           -106.3747   ZZ=           -104.3577
   XY=            -30.5170   XZ=              1.0732   YZ=             -3.3940

 Normal termination of Gaussian 16 at Fri May  7 11:01:28 2021.
