 Gaussian 16, Revision A.03,
 Gaussian 16:  EM64L-G16RevA.03 25-Dec-2016

 -------------
 #p 6-31g* mp2
 -------------

 ------------------------------------------------------
 Input file generated by CHIRIPA (05-May-2021 14:55:24)
 ------------------------------------------------------
 Symbolic Z-matrix:
 Charge =  0 Multiplicity = 1

                         Standard orientation:
 ---------------------------------------------------------------------
 Center     Atomic      Atomic             Coordinates (Angstroms)
 Number     Number       Type             X           Y           Z
 ---------------------------------------------------------------------
      1          6           0        2.417054    2.134803    0.564473
      2          6           0        1.436997    1.393401    1.232554
      3          6           0        1.313938    0.018268    1.012522
      4          6           0        2.191592   -0.585896    0.113634
      5          6           0        3.178269    0.125551   -0.567249
      6          6           0        3.283036    1.499631   -0.331716
      7          1           0        2.505545    3.202630    0.741420
      8          1           0        0.763091    1.884031    1.929100
      9          1           0        0.564231   -0.579728    1.516266
     10          1           0        3.835575   -0.391477   -1.255760
     11          1           0        4.045106    2.072895   -0.851968
     12          7           0        2.070997   -2.041130   -0.127509
     13          8           0        2.856434   -2.549807   -0.924362
     14          8           0        1.193322   -2.645511    0.484902
     15          6           0       -2.799440    1.187672   -0.029449
     16          6           0       -1.687322    1.929299   -0.771855
     17          6           0       -1.637581    3.418183   -0.427548
     18          1           0       -3.765240    1.653320   -0.268923
     19          1           0       -2.653219    1.310030    1.052698
     20          1           0       -1.834812    1.804423   -1.852256
     21          1           0       -0.724078    1.461713   -0.530736
     22          1           0       -1.466970    3.560178    0.644520
     23          1           0       -2.584017    3.904835   -0.684509
     24          1           0       -0.835413    3.928946   -0.969312
     25          6           0       -2.861916   -0.301770   -0.363196
     26          6           0       -3.974034   -1.043397    0.379210
     27          6           0       -4.023775   -2.532281    0.034904
     28          1           0       -3.008137   -0.424128   -1.445343
     29          1           0       -1.896116   -0.767417   -0.123722
     30          1           0       -4.937279   -0.575810    0.138091
     31          1           0       -3.826544   -0.918521    1.459611
     32          1           0       -3.077339   -3.018933    0.291865
     33          1           0       -4.194385   -2.674275   -1.037165
     34          1           0       -4.825943   -3.043044    0.576667
 ---------------------------------------------------------------------

 SCF Done:  E(RHF) =  -669.534745100     A.U. after   15 cycles
 E2 =    -0.2094148413D+01 EUMP2 =    -0.67162889351247D+03

 The electronic state is 1-A.
 Alpha  occ. eigenvalues --  -20.60891 -20.60883 -15.85937 -11.31321 -11.27873
 Alpha  occ. eigenvalues --  -11.27862 -11.27598 -11.26892 -11.26881 -11.21709
 Alpha  occ. eigenvalues --  -11.21591 -11.21573 -11.21499 -11.21348 -11.20723
 Alpha  occ. eigenvalues --   -1.59957  -1.39512  -1.19496  -1.08879  -1.08519
 Alpha  occ. eigenvalues --   -1.04908  -1.03591  -0.96066  -0.95708  -0.87074
 Alpha  occ. eigenvalues --   -0.86286  -0.82546  -0.79668  -0.78308  -0.77590
 Alpha  occ. eigenvalues --   -0.72154  -0.71277  -0.70579  -0.65230  -0.65122
 Alpha  occ. eigenvalues --   -0.64888  -0.62235  -0.61021  -0.59464  -0.57656
 Alpha  occ. eigenvalues --   -0.55391  -0.55365  -0.53276  -0.52974  -0.52734
 Alpha  occ. eigenvalues --   -0.52462  -0.49997  -0.48913  -0.48910  -0.47964
 Alpha  occ. eigenvalues --   -0.46700  -0.45845  -0.45779  -0.44890  -0.43854
 Alpha  occ. eigenvalues --   -0.37454  -0.36380
 Alpha virt. eigenvalues --    0.04907   0.11022   0.16372   0.19868   0.23144
 Alpha virt. eigenvalues --    0.23841   0.25819   0.26549   0.27595   0.28581
 Alpha virt. eigenvalues --    0.28930   0.30220   0.31401   0.32043   0.32358

 Mulliken charges:
               1
     1  C   -0.169885
     2  C   -0.218596
     3  C   -0.173667
     4  C    0.160520
     5  C   -0.171001
     6  C   -0.218024
     7  H    0.226922
     8  H    0.225860
     9  H    0.276662
    10  H    0.276088
    11  H    0.224162
    12  N    0.488506
    13  O   -0.459302
    14  O   -0.461312
    15  C   -0.297376
    16  C   -0.309337
    17  C   -0.474504
    18  H    0.150663
    19  H    0.141342
    20  H    0.153614
    21  H    0.162245
    22  H    0.145673
    23  H    0.158082
    24  H    0.157525
    25  C   -0.302019
    26  C   -0.299010
    27  C   -0.477963
    28  H    0.151778
    29  H    0.153486
    30  H    0.150764
    31  H    0.148953
    32  H    0.164670
    33  H    0.155335
    34  H    0.159144
 Sum of Mulliken charges =  -0.00000

 Dipole moment (field-independent basis, Debye):
    X=              0.5529    Y=              4.9945    Z=              0.7826  Tot=              5.0855
 Quadrupole moment (field-independent basis, Debye-Ang):
   XX=            -89.9239   YY=           -102.6818   ZZ=            -92.4143
   XY=             11.3892   XZ=             -0.2833   YZ=             -0.4117

 Normal termination of Gaussian 16 at Wed May  5 19:10:50 2021.
