 Gaussian 16, Revision A.03,
 Gaussian 16:  EM64L-G16RevA.03 25-Dec-2016

 -------------
 #p 6-31g* mp2
 -------------

 ------------------------------------------------------
 Input file generated by CHIRIPA (05-May-2021 14:53:13)
 ------------------------------------------------------
 Symbolic Z-matrix:
 Charge =  0 Multiplicity = 1

                         Standard orientation:
 ---------------------------------------------------------------------
 Center     Atomic      Atomic             Coordinates (Angstroms)
 Number     Number       Type             X           Y           Z
 ---------------------------------------------------------------------
      1          6           0       -3.664184    0.942814   -0.294535
      2          6           0       -2.559001    1.611689    0.523488
      3          6           0       -2.049957    2.903920   -0.115893
      4          1           0       -3.286732    0.730129   -1.304109
      5          1           0       -4.499014    1.647066   -0.414885
      6          1           0       -1.727082    0.905899    0.643435
      7          1           0       -2.939067    1.822633    1.531291
      8          1           0       -2.863971    3.628465   -0.220853
      9          1           0       -1.645099    2.706522   -1.113754
     10          1           0       -1.260423    3.365417    0.485368
     11          6           0       -4.183379   -0.350196    0.331794
     12          6           0       -5.288563   -1.019071   -0.486229
     13          6           0       -5.797607   -2.311302    0.153152
     14          1           0       -3.348550   -1.054448    0.452144
     15          1           0       -4.560832   -0.137511    1.341368
     16          1           0       -4.908496   -1.230015   -1.494032
     17          1           0       -6.120482   -0.313281   -0.606176
     18          1           0       -6.202465   -2.113904    1.151013
     19          1           0       -4.983593   -3.035847    0.258111
     20          1           0       -6.587141   -2.772799   -0.448109
     21          6           0        2.734968    2.269830   -0.024220
     22          6           0        1.626168    1.417201   -0.034611
     23          6           0        1.797390    0.029684   -0.029384
     24          6           0        3.097405   -0.473310   -0.013620
     25          6           0        4.222161    0.350158   -0.002982
     26          6           0        4.027148    1.734531   -0.008468
     27          1           0        2.592718    3.346465   -0.028382
     28          1           0        0.621481    1.830115   -0.046850
     29          1           0        0.956670   -0.653358   -0.037173
     30          1           0        5.211419   -0.091021    0.009152
     31          1           0        4.890109    2.394286   -0.000373
     32          7           0        3.291263   -1.940548   -0.007949
     33          8           0        4.446933   -2.358724    0.005995
     34          8           0        2.283870   -2.644610   -0.017556
 ---------------------------------------------------------------------

 SCF Done:  E(RHF) =  -669.535309947     A.U. after   15 cycles
 E2 =    -0.2091754010D+01 EUMP2 =    -0.67162706395644D+03

 The electronic state is 1-A.
 Alpha  occ. eigenvalues --  -20.60730 -20.60724 -15.85781 -11.31128 -11.27692
 Alpha  occ. eigenvalues --  -11.27679 -11.27415 -11.26709 -11.26609 -11.22597
 Alpha  occ. eigenvalues --  -11.22267 -11.22045 -11.21885 -11.21791 -11.21217
 Alpha  occ. eigenvalues --   -1.59805  -1.39359  -1.19291  -1.09045  -1.08688
 Alpha  occ. eigenvalues --   -1.04696  -1.04172  -0.96629  -0.95530  -0.87648
 Alpha  occ. eigenvalues --   -0.86085  -0.82364  -0.80260  -0.78774  -0.77419
 Alpha  occ. eigenvalues --   -0.72000  -0.71127  -0.70406  -0.65739  -0.64940
 Alpha  occ. eigenvalues --   -0.64708  -0.62219  -0.61416  -0.60019  -0.58197
 Alpha  occ. eigenvalues --   -0.55925  -0.55167  -0.53378  -0.53071  -0.53017
 Alpha  occ. eigenvalues --   -0.52659  -0.50554  -0.48758  -0.48751  -0.48559
 Alpha  occ. eigenvalues --   -0.47301  -0.46325  -0.46210  -0.44769  -0.44402
 Alpha  occ. eigenvalues --   -0.37272  -0.36290
 Alpha virt. eigenvalues --    0.05111   0.11340   0.16592   0.19298   0.22827
 Alpha virt. eigenvalues --    0.23914   0.24978   0.26374   0.26779   0.28364
 Alpha virt. eigenvalues --    0.29236   0.30607   0.30944   0.31424   0.31915

 Mulliken charges:
               1
     1  C   -0.298746
     2  C   -0.302946
     3  C   -0.487067
     4  H    0.150764
     5  H    0.151962
     6  H    0.146518
     7  H    0.157833
     8  H    0.165652
     9  H    0.155264
    10  H    0.154514
    11  C   -0.299323
    12  C   -0.300275
    13  C   -0.476499
    14  H    0.151511
    15  H    0.150956
    16  H    0.153211
    17  H    0.151954
    18  H    0.155397
    19  H    0.158069
    20  H    0.161551
    21  C   -0.174195
    22  C   -0.229600
    23  C   -0.175548
    24  C    0.159306
    25  C   -0.171485
    26  C   -0.218327
    27  H    0.225725
    28  H    0.243971
    29  H    0.274859
    30  H    0.275293
    31  H    0.223091
    32  N    0.488132
    33  O   -0.460649
    34  O   -0.460873
 Sum of Mulliken charges =  -0.00000

 Dipole moment (field-independent basis, Debye):
    X=             -0.9430    Y=              5.1684    Z=             -0.0188  Tot=              5.2538
 Quadrupole moment (field-independent basis, Debye-Ang):
   XX=            -92.8749   YY=           -100.6629   ZZ=            -95.5032
   XY=             16.3881   XZ=             -0.2308   YZ=              0.5397

 Normal termination of Gaussian 16 at Wed May  5 21:49:05 2021.
