 Gaussian 16, Revision A.03,
 Gaussian 16:  EM64L-G16RevA.03 25-Dec-2016

 -------------
 #p 6-31g* mp2
 -------------

 ------------------------------------------------------
 Input file generated by CHIRIPA (05-May-2021 14:55:25)
 ------------------------------------------------------
 Symbolic Z-matrix:
 Charge =  0 Multiplicity = 1

                         Standard orientation:
 ---------------------------------------------------------------------
 Center     Atomic      Atomic             Coordinates (Angstroms)
 Number     Number       Type             X           Y           Z
 ---------------------------------------------------------------------
      1          6           0        5.069885    0.384987   -1.188601
      2          6           0        5.117292   -0.551422   -0.150617
      3          6           0        3.965251   -0.863257    0.577470
      4          6           0        2.777397   -0.216834    0.239195
      5          6           0        2.698090    0.720604   -0.789499
      6          6           0        3.862564    1.016897   -1.504173
      7          1           0        5.969647    0.621191   -1.748986
      8          1           0        6.053524   -1.043729    0.096668
      9          1           0        3.973651   -1.584250    1.385873
     10          1           0        1.750160    1.194952   -1.012749
     11          1           0        3.822780    1.744538   -2.309779
     12          7           0        1.551202   -0.538733    1.002888
     13          8           0        0.517068    0.044619    0.685234
     14          8           0        1.647463   -1.368293    1.904664
     15          6           0       -3.884304    0.963009   -0.249412
     16          6           0       -2.985827    1.789467    0.671289
     17          6           0       -3.138281    3.294743    0.450616
     18          1           0       -3.650964    1.207275   -1.294798
     19          1           0       -4.931237    1.254228   -0.086569
     20          1           0       -1.941017    1.495797    0.507748
     21          1           0       -3.221202    1.543064    1.714601
     22          1           0       -4.171231    3.608204    0.633254
     23          1           0       -2.883773    3.560669   -0.580456
     24          1           0       -2.487014    3.866485    1.119064
     25          6           0       -3.743189   -0.543730   -0.040710
     26          6           0       -4.641664   -1.370188   -0.961411
     27          6           0       -4.489211   -2.875464   -0.740739
     28          1           0       -2.696256   -0.834949   -0.203554
     29          1           0       -3.976529   -0.787996    1.004676
     30          1           0       -4.406291   -1.123785   -2.004724
     31          1           0       -5.686475   -1.076518   -0.797871
     32          1           0       -4.743718   -3.141390    0.290334
     33          1           0       -3.456261   -3.188925   -0.923377
     34          1           0       -5.140478   -3.447207   -1.409186
 ---------------------------------------------------------------------

 SCF Done:  E(RHF) =  -669.536141522     A.U. after   15 cycles
 E2 =    -0.2091058324D+01 EUMP2 =    -0.67162719984643D+03

 The electronic state is 1-A.
 Alpha  occ. eigenvalues --  -20.60983 -20.60970 -15.86022 -11.31327 -11.27892
 Alpha  occ. eigenvalues --  -11.27884 -11.27623 -11.26894 -11.26884 -11.20736
 Alpha  occ. eigenvalues --  -11.20363 -11.20288 -11.20277 -11.20200 -11.20192
 Alpha  occ. eigenvalues --   -1.60040  -1.39598  -1.19494  -1.08900  -1.07368
 Alpha  occ. eigenvalues --   -1.04889  -1.02551  -0.95744  -0.95038  -0.86290
 Alpha  occ. eigenvalues --   -0.86058  -0.82583  -0.78591  -0.77641  -0.77130
 Alpha  occ. eigenvalues --   -0.72245  -0.71355  -0.70604  -0.65153  -0.64892
 Alpha  occ. eigenvalues --   -0.63998  -0.62238  -0.59955  -0.58400  -0.56629
 Alpha  occ. eigenvalues --   -0.55393  -0.54343  -0.53221  -0.52981  -0.51763
 Alpha  occ. eigenvalues --   -0.51455  -0.49032  -0.49003  -0.48953  -0.46912
 Alpha  occ. eigenvalues --   -0.45610  -0.45001  -0.44719  -0.44541  -0.42787
 Alpha  occ. eigenvalues --   -0.37472  -0.36490
 Alpha virt. eigenvalues --    0.04889   0.11165   0.16385   0.21234   0.23846
 Alpha virt. eigenvalues --    0.25161   0.27140   0.27464   0.28025   0.28756
 Alpha virt. eigenvalues --    0.28981   0.30840   0.32045   0.32440   0.32721

 Mulliken charges:
               1
     1  C   -0.170580
     2  C   -0.218553
     3  C   -0.170584
     4  C    0.157274
     5  C   -0.170485
     6  C   -0.218488
     7  H    0.226135
     8  H    0.223950
     9  H    0.275983
    10  H    0.275198
    11  H    0.223974
    12  N    0.496825
    13  O   -0.469047
    14  O   -0.458308
    15  C   -0.296948
    16  C   -0.309112
    17  C   -0.474913
    18  H    0.143841
    19  H    0.144443
    20  H    0.176975
    21  H    0.151348
    22  H    0.151484
    23  H    0.149244
    24  H    0.157867
    25  C   -0.300828
    26  C   -0.298909
    27  C   -0.474836
    28  H    0.162650
    29  H    0.149924
    30  H    0.148076
    31  H    0.148698
    32  H    0.155480
    33  H    0.156134
    34  H    0.156090
 Sum of Mulliken charges =  -0.00000

 Dipole moment (field-independent basis, Debye):
    X=              4.6765    Y=              1.0303    Z=             -2.5889  Tot=              5.4437
 Quadrupole moment (field-independent basis, Debye-Ang):
   XX=            -70.5170   YY=            -95.6063   ZZ=            -94.6233
   XY=              0.5775   XZ=             -5.8692   YZ=             -1.3765

 Normal termination of Gaussian 16 at Thu May  6 19:24:22 2021.
