 Gaussian 16, Revision A.03,
 Gaussian 16:  EM64L-G16RevA.03 25-Dec-2016

 -------------
 #p 6-31g* mp2
 -------------

 ------------------------------------------------------
 Input file generated by CHIRIPA (05-May-2021 14:57:27)
 ------------------------------------------------------
 Symbolic Z-matrix:
 Charge =  0 Multiplicity = 1

                         Standard orientation:
 ---------------------------------------------------------------------
 Center     Atomic      Atomic             Coordinates (Angstroms)
 Number     Number       Type             X           Y           Z
 ---------------------------------------------------------------------
      1          6           0       -2.325726    2.353711    0.989529
      2          6           0       -3.360588    1.649043    1.613249
      3          6           0       -3.901069    0.505775    1.017123
      4          6           0       -3.380414    0.093497   -0.208534
      5          6           0       -2.349758    0.774160   -0.854860
      6          6           0       -1.824498    1.914794   -0.240366
      7          1           0       -1.911780    3.240807    1.459749
      8          1           0       -3.751815    1.987597    2.568428
      9          1           0       -4.702579   -0.058652    1.478016
     10          1           0       -1.980491    0.412283   -1.806755
     11          1           0       -1.020848    2.460068   -0.727058
     12          7           0       -3.944540   -1.115436   -0.849349
     13          8           0       -3.468342   -1.458062   -1.929386
     14          8           0       -4.852218   -1.697479   -0.259448
     15          6           0        1.350550   -1.473368    1.207688
     16          6           0        2.659242   -1.729149    1.630089
     17          6           0        3.740087   -1.080763    1.025177
     18          6           0        3.474690   -0.178605   -0.003885
     19          6           0        2.182152    0.097461   -0.447083
     20          6           0        1.116595   -0.562485    0.172275
     21          1           0        0.516862   -1.981541    1.683209
     22          1           0        2.843922   -2.436056    2.433968
     23          1           0        4.763242   -1.260050    1.332465
     24          1           0        2.029534    0.807381   -1.250910
     25          1           0        0.101297   -0.361880   -0.157835
     26          7           0        4.610840    0.513931   -0.651925
     27          8           0        4.350449    1.304308   -1.556434
     28          8           0        5.740233    0.253251   -0.243078
 ---------------------------------------------------------------------

 SCF Done:  E(RHF) =  -868.337036330     A.U. after   16 cycles
 E2 =    -0.2601467124D+01 EUMP2 =    -0.87093850345399D+03

 The electronic state is 1-A.
 Alpha  occ. eigenvalues --  -20.61625 -20.61620 -20.60985 -20.60973 -15.86684
 Alpha  occ. eigenvalues --  -15.86032 -11.32201 -11.31378 -11.28757 -11.28698
 Alpha  occ. eigenvalues --  -11.28409 -11.27959 -11.27901 -11.27779 -11.27711
 Alpha  occ. eigenvalues --  -11.27594 -11.26909 -11.26815  -1.60704  -1.60057
 Alpha  occ. eigenvalues --   -1.40251  -1.39612  -1.20366  -1.19522  -1.09697
 Alpha  occ. eigenvalues --   -1.08909  -1.05792  -1.04921  -0.96519  -0.95760
 Alpha  occ. eigenvalues --   -0.87137  -0.86317  -0.83352  -0.82596  -0.78400
 Alpha  occ. eigenvalues --   -0.77661  -0.72885  -0.72251  -0.72045  -0.71392
 Alpha  occ. eigenvalues --   -0.71380  -0.70622  -0.65989  -0.65728  -0.65168
 Alpha  occ. eigenvalues --   -0.64942  -0.63117  -0.62284  -0.56178  -0.55414
 Alpha  occ. eigenvalues --   -0.54216  -0.53826  -0.53242  -0.52856  -0.49659
 Alpha  occ. eigenvalues --   -0.49642  -0.49013  -0.49000  -0.45622  -0.45024
 Alpha  occ. eigenvalues --   -0.38317  -0.37515  -0.37354  -0.36487
 Alpha virt. eigenvalues --    0.04094   0.04866   0.10123   0.11176   0.15527
 Alpha virt. eigenvalues --    0.16410   0.19935   0.21773   0.25379   0.27289
 Alpha virt. eigenvalues --    0.28056   0.28699   0.30115   0.31018   0.31810

 Mulliken charges:
               1
     1  C   -0.169984
     2  C   -0.217809
     3  C   -0.172066
     4  C    0.160595
     5  C   -0.190543
     6  C   -0.217716
     7  H    0.231138
     8  H    0.227443
     9  H    0.278235
    10  H    0.277824
    11  H    0.228092
    12  N    0.487617
    13  O   -0.458819
    14  O   -0.457650
    15  C   -0.174233
    16  C   -0.218132
    17  C   -0.171673
    18  C    0.159445
    19  C   -0.177291
    20  C   -0.220913
    21  H    0.228280
    22  H    0.224266
    23  H    0.275851
    24  H    0.269297
    25  H    0.232287
    26  N    0.488170
    27  O   -0.462282
    28  O   -0.459429
 Sum of Mulliken charges =  -0.00000

 Dipole moment (field-independent basis, Debye):
    X=             -2.2820    Y=              1.8725    Z=              4.6987  Tot=              5.5491
 Quadrupole moment (field-independent basis, Debye-Ang):
   XX=           -142.2659   YY=           -102.6784   ZZ=           -101.6381
   XY=            -23.8591   XZ=             -0.8370   YZ=             -3.0872

 Normal termination of Gaussian 16 at Fri May  7 03:35:16 2021.
