 Gaussian 16, Revision A.03,
 Gaussian 16:  EM64L-G16RevA.03 25-Dec-2016

 -------------
 #p 6-31g* mp2
 -------------

 ------------------------------------------------------
 Input file generated by CHIRIPA (05-May-2021 14:51:09)
 ------------------------------------------------------
 Symbolic Z-matrix:
 Charge =  0 Multiplicity = 1

                         Standard orientation:
 ---------------------------------------------------------------------
 Center     Atomic      Atomic             Coordinates (Angstroms)
 Number     Number       Type             X           Y           Z
 ---------------------------------------------------------------------
      1          6           0       -2.433851   -0.200618    0.636555
      2          6           0       -1.468047   -1.364985    0.858942
      3          6           0       -0.199333   -0.946857    1.602802
      4          1           0       -1.920651    0.590629    0.073084
      5          1           0       -2.704138    0.233344    1.609189
      6          1           0       -1.200745   -1.797501   -0.113733
      7          1           0       -1.983665   -2.153632    1.421782
      8          1           0       -0.447499   -0.534711    2.586241
      9          1           0        0.339869   -0.176556    1.042001
     10          1           0        0.476950   -1.794519    1.751023
     11          6           0       -3.706945   -0.602849   -0.105852
     12          6           0       -4.672750    0.561518   -0.328239
     13          6           0       -5.941463    0.143390   -1.072100
     14          1           0       -3.436659   -1.036811   -1.078487
     15          1           0       -4.220145   -1.394097    0.457618
     16          1           0       -4.157132    1.350165   -0.891080
     17          1           0       -4.940051    0.994033    0.644435
     18          1           0       -6.480666   -0.626911   -0.511299
     19          1           0       -5.693298   -0.268756   -2.055538
     20          1           0       -6.617747    0.991052   -1.220321
     21          6           0        3.339708   -0.257328    0.011310
     22          6           0        3.536117   -1.329824   -1.060680
     23          6           0        4.075378   -2.642560   -0.491718
     24          1           0        4.297622   -0.073455    0.516818
     25          1           0        2.649671   -0.636800    0.777629
     26          1           0        4.224498   -0.947922   -1.825466
     27          1           0        2.577666   -1.511029   -1.563824
     28          1           0        3.387585   -3.049467    0.256592
     29          1           0        5.043774   -2.483161   -0.006536
     30          1           0        4.208240   -3.395148   -1.275185
     31          6           0        2.801088    1.060795   -0.542013
     32          6           0        2.604680    2.133292    0.529977
     33          6           0        2.065418    3.446027   -0.038983
     34          1           0        3.491126    1.440267   -1.308331
     35          1           0        1.843175    0.876922   -1.047520
     36          1           0        3.563130    2.314495    1.033121
     37          1           0        1.916299    1.751389    1.294763
     38          1           0        1.097022    3.286628   -0.524166
     39          1           0        2.753211    3.852933   -0.787294
     40          1           0        1.932558    4.198615    0.744483
 ---------------------------------------------------------------------

 SCF Done:  E(RHF) =  -470.732333250     A.U. after   11 cycles
 E2 =    -0.1584119492D+01 EUMP2 =    -0.47231645274174D+03

 The electronic state is 1-A.
 Alpha  occ. eigenvalues --  -11.21691 -11.21641 -11.21571 -11.21554 -11.21474
 Alpha  occ. eigenvalues --  -11.21410 -11.21369 -11.21223 -11.21161 -11.21101
 Alpha  occ. eigenvalues --  -11.21067 -11.21047  -1.08508  -1.08387  -1.03603
 Alpha  occ. eigenvalues --   -1.03501  -0.96082  -0.95930  -0.87087  -0.86965
 Alpha  occ. eigenvalues --   -0.79687  -0.79562  -0.78327  -0.78175  -0.65316
 Alpha  occ. eigenvalues --   -0.64923  -0.61000  -0.60910  -0.59433  -0.59303
 Alpha  occ. eigenvalues --   -0.57657  -0.57561  -0.55540  -0.55058  -0.52783
 Alpha  occ. eigenvalues --   -0.52658  -0.52465  -0.52362  -0.50008  -0.49893
 Alpha  occ. eigenvalues --   -0.48035  -0.47841  -0.46769  -0.46593  -0.45935
 Alpha  occ. eigenvalues --   -0.45789  -0.45717  -0.45424  -0.43819  -0.43739
 Alpha virt. eigenvalues --    0.20342   0.23141   0.23382   0.24991   0.25909
 Alpha virt. eigenvalues --    0.26312   0.27292   0.27537   0.27916   0.29760
 Alpha virt. eigenvalues --    0.30247   0.31376   0.31652   0.31789   0.32643

 Mulliken charges:
               1
     1  C   -0.298637
     2  C   -0.299546
     3  C   -0.484749
     4  H    0.149189
     5  H    0.149900
     6  H    0.151865
     7  H    0.152416
     8  H    0.155784
     9  H    0.164676
    10  H    0.160665
    11  C   -0.298378
    12  C   -0.299716
    13  C   -0.475757
    14  H    0.149619
    15  H    0.149899
    16  H    0.152017
    17  H    0.152065
    18  H    0.155247
    19  H    0.155258
    20  H    0.160444
    21  C   -0.305367
    22  C   -0.299046
    23  C   -0.475763
    24  H    0.149021
    25  H    0.159105
    26  H    0.151596
    27  H    0.151119
    28  H    0.154780
    29  H    0.155238
    30  H    0.160030
    31  C   -0.299801
    32  C   -0.303718
    33  C   -0.475271
    34  H    0.150291
    35  H    0.147897
    36  H    0.152412
    37  H    0.155285
    38  H    0.154300
    39  H    0.155224
    40  H    0.160408
 Sum of Mulliken charges =  -0.00000

 Dipole moment (field-independent basis, Debye):
    X=             -0.0374    Y=             -0.0060    Z=              0.0394  Tot=              0.0546
 Quadrupole moment (field-independent basis, Debye-Ang):
   XX=            -84.7890   YY=            -85.7461   ZZ=            -84.2978
   XY=              0.6830   XZ=             -1.1031   YZ=             -0.0546

 Normal termination of Gaussian 16 at Wed May  5 15:09:27 2021.
