 Gaussian 16, Revision A.03,
 Gaussian 16:  EM64L-G16RevA.03 25-Dec-2016

 -------------
 #p 6-31g* mp2
 -------------

 ------------------------------------------------------
 Input file generated by CHIRIPA (05-May-2021 14:51:08)
 ------------------------------------------------------
 Symbolic Z-matrix:
 Charge =  0 Multiplicity = 1

                         Standard orientation:
 ---------------------------------------------------------------------
 Center     Atomic      Atomic             Coordinates (Angstroms)
 Number     Number       Type             X           Y           Z
 ---------------------------------------------------------------------
      1          6           0        2.708138   -1.042825   -0.198235
      2          6           0        1.296048   -0.666747   -0.648295
      3          6           0        0.369266   -1.877630   -0.760694
      4          1           0        3.131986   -1.766107   -0.908278
      5          1           0        2.652007   -1.554151    0.772738
      6          1           0        1.354946   -0.155053   -1.617478
      7          1           0        0.875585    0.055869    0.062797
      8          1           0        0.280823   -2.386004    0.204881
      9          1           0        0.762907   -2.598124   -1.484942
     10          1           0       -0.634930   -1.585981   -1.083788
     11          6           0        3.646383    0.157060   -0.081185
     12          6           0        5.058472   -0.219018    0.368874
     13          6           0        5.985254    0.991865    0.481273
     14          1           0        3.702513    0.668386   -1.052159
     15          1           0        3.222535    0.880342    0.628858
     16          1           0        5.478936   -0.941634   -0.342218
     17          1           0        4.999575   -0.730712    1.338057
     18          1           0        5.591613    1.712360    1.205521
     19          1           0        6.073698    1.500239   -0.484302
     20          1           0        6.989451    0.700216    0.804367
     21          6           0       -3.414903   -0.220313   -0.155467
     22          6           0       -3.473860   -1.353649    0.869255
     23          6           0       -3.951057   -2.673981    0.263615
     24          1           0       -4.410673   -0.083285   -0.598875
     25          1           0       -2.744767   -0.511792   -0.976048
     26          1           0       -4.142604   -1.059555    1.688343
     27          1           0       -2.477877   -1.487866    1.310414
     28          1           0       -3.280199   -2.993804   -0.540291
     29          1           0       -4.954385   -2.563060   -0.160214
     30          1           0       -3.985702   -3.470371    1.013562
     31          6           0       -2.939617    1.106077    0.434888
     32          6           0       -2.880660    2.239414   -0.589835
     33          6           0       -2.403464    3.559746    0.015807
     34          1           0       -3.609753    1.397557    1.255469
     35          1           0       -1.943847    0.969051    0.878295
     36          1           0       -3.876643    2.373631   -1.030993
     37          1           0       -2.211916    1.945320   -1.408923
     38          1           0       -1.400136    3.448824    0.439634
     39          1           0       -3.074322    3.879569    0.819711
     40          1           0       -2.368818    4.356137   -0.734140
 ---------------------------------------------------------------------

 SCF Done:  E(RHF) =  -470.733181516     A.U. after   11 cycles
 E2 =    -0.1583562668D+01 EUMP2 =    -0.47231674418404D+03

 The electronic state is 1-A.
 Alpha  occ. eigenvalues --  -11.21694 -11.21636 -11.21590 -11.21557 -11.21461
 Alpha  occ. eigenvalues --  -11.21399 -11.21394 -11.21334 -11.21140 -11.21096
 Alpha  occ. eigenvalues --  -11.21064 -11.21024  -1.08495  -1.08410  -1.03595
 Alpha  occ. eigenvalues --   -1.03499  -0.96041  -0.95955  -0.87069  -0.86961
 Alpha  occ. eigenvalues --   -0.79653  -0.79567  -0.78301  -0.78233  -0.65194
 Alpha  occ. eigenvalues --   -0.65023  -0.61020  -0.60898  -0.59407  -0.59297
 Alpha  occ. eigenvalues --   -0.57653  -0.57564  -0.55318  -0.55243  -0.52745
 Alpha  occ. eigenvalues --   -0.52647  -0.52486  -0.52356  -0.50006  -0.49868
 Alpha  occ. eigenvalues --   -0.48005  -0.47863  -0.46730  -0.46546  -0.45888
 Alpha  occ. eigenvalues --   -0.45778  -0.45747  -0.45640  -0.43802  -0.43763
 Alpha virt. eigenvalues --    0.19630   0.23079   0.23548   0.24904   0.25797
 Alpha virt. eigenvalues --    0.26143   0.27196   0.27506   0.27920   0.29380
 Alpha virt. eigenvalues --    0.30651   0.31158   0.31697   0.31849   0.32397

 Mulliken charges:
               1
     1  C   -0.298429
     2  C   -0.301124
     3  C   -0.483014
     4  H    0.150023
     5  H    0.149724
     6  H    0.152081
     7  H    0.152479
     8  H    0.155901
     9  H    0.155599
    10  H    0.166725
    11  C   -0.298314
    12  C   -0.299709
    13  C   -0.475753
    14  H    0.149665
    15  H    0.149589
    16  H    0.152040
    17  H    0.152021
    18  H    0.155261
    19  H    0.155255
    20  H    0.160391
    21  C   -0.302248
    22  C   -0.300959
    23  C   -0.476654
    24  H    0.150004
    25  H    0.152376
    26  H    0.151758
    27  H    0.154027
    28  H    0.156472
    29  H    0.154839
    30  H    0.160078
    31  C   -0.299877
    32  C   -0.299671
    33  C   -0.475647
    34  H    0.149594
    35  H    0.150969
    36  H    0.151904
    37  H    0.152219
    38  H    0.155055
    39  H    0.155071
    40  H    0.160281
 Sum of Mulliken charges =  -0.00000

 Dipole moment (field-independent basis, Debye):
    X=              0.0241    Y=             -0.0079    Z=             -0.0049  Tot=              0.0258
 Quadrupole moment (field-independent basis, Debye-Ang):
   XX=            -84.5019   YY=            -86.3662   ZZ=            -83.8625
   XY=             -1.2364   XZ=             -0.6855   YZ=             -0.2132

 Normal termination of Gaussian 16 at Wed May  5 21:19:30 2021.
