 Gaussian 16, Revision A.03,
 Gaussian 16:  EM64L-G16RevA.03 25-Dec-2016

 -------------
 #p 6-31g* mp2
 -------------

 ------------------------------------------------------
 Input file generated by CHIRIPA (05-May-2021 14:53:15)
 ------------------------------------------------------
 Symbolic Z-matrix:
 Charge =  0 Multiplicity = 1

                         Standard orientation:
 ---------------------------------------------------------------------
 Center     Atomic      Atomic             Coordinates (Angstroms)
 Number     Number       Type             X           Y           Z
 ---------------------------------------------------------------------
      1          6           0       -3.360467    0.840485   -0.424884
      2          6           0       -1.956882    1.362251   -0.734227
      3          6           0       -1.955955    2.821502   -1.190714
      4          1           0       -3.989629    0.946802   -1.319197
      5          1           0       -3.814610    1.469378    0.353347
      6          1           0       -1.504993    0.731721   -1.510657
      7          1           0       -1.330935    1.254503    0.160870
      8          1           0       -2.382356    3.467597   -0.416540
      9          1           0       -2.557403    2.941845   -2.097565
     10          1           0       -0.942526    3.174008   -1.406492
     11          6           0       -3.377803   -0.616915    0.032733
     12          6           0       -4.781389   -1.138681    0.342076
     13          6           0       -4.782315   -2.597932    0.798563
     14          1           0       -2.923661   -1.245808   -0.745497
     15          1           0       -2.748642   -0.723232    0.927047
     16          1           0       -5.407335   -1.030933   -0.553020
     17          1           0       -5.233277   -0.508151    1.118507
     18          1           0       -4.180867   -2.718275    1.705415
     19          1           0       -4.355915   -3.244027    0.024390
     20          1           0       -5.795744   -2.950438    1.014342
     21          6           0        1.780404    1.677087    1.742932
     22          6           0        2.529747    0.600386    2.228442
     23          6           0        3.006764   -0.383071    1.356767
     24          6           0        2.714479   -0.257909   -0.000507
     25          6           0        1.970517    0.802932   -0.514731
     26          6           0        1.503668    1.774751    0.375306
     27          1           0        1.413795    2.436539    2.427202
     28          1           0        2.746196    0.521961    3.290065
     29          1           0        3.589198   -1.227120    1.705722
     30          1           0        1.770895    0.853961   -1.578199
     31          1           0        0.921961    2.609831   -0.004567
     32          7           0        3.214093   -1.292891   -0.933030
     33          8           0        2.942961   -1.159704   -2.124409
     34          8           0        3.867363   -2.217700   -0.454905
 ---------------------------------------------------------------------

 SCF Done:  E(RHF) =  -669.534493846     A.U. after   15 cycles
 E2 =    -0.2092971394D+01 EUMP2 =    -0.67162746523959D+03

 The electronic state is 1-A.
 Alpha  occ. eigenvalues --  -20.60761 -20.60755 -15.85813 -11.31181 -11.27735
 Alpha  occ. eigenvalues --  -11.27723 -11.27480 -11.26770 -11.26711 -11.22128
 Alpha  occ. eigenvalues --  -11.21951 -11.21807 -11.21794 -11.21626 -11.21198
 Alpha  occ. eigenvalues --   -1.59835  -1.39389  -1.19352  -1.08828  -1.08736
 Alpha  occ. eigenvalues --   -1.04766  -1.03958  -0.96433  -0.95581  -0.87440
 Alpha  occ. eigenvalues --   -0.86154  -0.82419  -0.80029  -0.78594  -0.77455
 Alpha  occ. eigenvalues --   -0.72032  -0.71157  -0.70456  -0.65478  -0.65002
 Alpha  occ. eigenvalues --   -0.64781  -0.62195  -0.61337  -0.59793  -0.58021
 Alpha  occ. eigenvalues --   -0.55704  -0.55245  -0.53235  -0.53127  -0.52932
 Alpha  occ. eigenvalues --   -0.52602  -0.50342  -0.48790  -0.48786  -0.48341
 Alpha  occ. eigenvalues --   -0.47038  -0.46137  -0.46034  -0.44793  -0.44208
 Alpha  occ. eigenvalues --   -0.37324  -0.36281
 Alpha virt. eigenvalues --    0.05061   0.11219   0.16517   0.20025   0.22767
 Alpha virt. eigenvalues --    0.23916   0.26002   0.26389   0.27054   0.28150
 Alpha virt. eigenvalues --    0.29053   0.29903   0.31024   0.31712   0.31980

 Mulliken charges:
               1
     1  C   -0.298002
     2  C   -0.306454
     3  C   -0.479559
     4  H    0.151255
     5  H    0.148306
     6  H    0.154905
     7  H    0.154922
     8  H    0.155866
     9  H    0.162254
    10  H    0.149454
    11  C   -0.298983
    12  C   -0.300001
    13  C   -0.475990
    14  H    0.153110
    15  H    0.149473
    16  H    0.152783
    17  H    0.150902
    18  H    0.154888
    19  H    0.157399
    20  H    0.160744
    21  C   -0.174390
    22  C   -0.218143
    23  C   -0.171363
    24  C    0.158499
    25  C   -0.171173
    26  C   -0.219173
    27  H    0.225823
    28  H    0.223273
    29  H    0.275485
    30  H    0.275385
    31  H    0.231345
    32  N    0.488121
    33  O   -0.460500
    34  O   -0.460461
 Sum of Mulliken charges =  -0.00000

 Dipole moment (field-independent basis, Debye):
    X=             -1.8533    Y=              3.5683    Z=              3.2716  Tot=              5.1837
 Quadrupole moment (field-independent basis, Debye-Ang):
   XX=           -103.9176   YY=            -97.1702   ZZ=            -91.2382
   XY=              9.1797   XZ=             11.1765   YZ=             -2.2433

 Normal termination of Gaussian 16 at Wed May  5 20:16:32 2021.
