 Gaussian 16, Revision A.03,
 Gaussian 16:  EM64L-G16RevA.03 25-Dec-2016

 -------------
 #p 6-31g* mp2
 -------------

 ------------------------------------------------------
 Input file generated by CHIRIPA (05-May-2021 14:55:24)
 ------------------------------------------------------
 Symbolic Z-matrix:
 Charge =  0 Multiplicity = 1

                         Standard orientation:
 ---------------------------------------------------------------------
 Center     Atomic      Atomic             Coordinates (Angstroms)
 Number     Number       Type             X           Y           Z
 ---------------------------------------------------------------------
      1          6           0       -1.905684    2.145174    0.054430
      2          6           0       -1.387475    1.106491    0.834891
      3          6           0       -1.998195   -0.151105    0.839208
      4          6           0       -3.130698   -0.335871    0.047635
      5          6           0       -3.670838    0.679087   -0.740653
      6          6           0       -3.043706    1.928538   -0.729469
      7          1           0       -1.424887    3.118941    0.057097
      8          1           0       -0.503796    1.271859    1.444653
      9          1           0       -1.618046   -0.972783    1.433978
     10          1           0       -4.553035    0.483958   -1.338207
     11          1           0       -3.448358    2.733352   -1.336574
     12          7           0       -3.785928   -1.662921    0.044001
     13          8           0       -4.782565   -1.800133   -0.662062
     14          8           0       -3.290452   -2.540722    0.747283
     15          6           0        3.749669    0.897155    0.042557
     16          6           0        2.271124    1.285440    0.008994
     17          6           0        2.048408    2.783451    0.219124
     18          1           0        4.180414    1.201721    1.006218
     19          1           0        4.287334    1.460976   -0.732310
     20          1           0        1.736160    0.720028    0.782777
     21          1           0        1.843803    0.979742   -0.954624
     22          1           0        2.556621    3.361431   -0.559502
     23          1           0        2.448368    3.100242    1.187771
     24          1           0        0.984538    3.038935    0.191402
     25          6           0        3.988464   -0.597232   -0.166036
     26          6           0        5.467009   -0.985517   -0.132473
     27          6           0        5.689725   -2.483528   -0.342603
     28          1           0        3.450799   -1.161053    0.608830
     29          1           0        3.557719   -0.901798   -1.129697
     30          1           0        5.894330   -0.679819    0.831146
     31          1           0        6.001973   -0.420105   -0.906255
     32          1           0        5.289765   -2.800319   -1.311250
     33          1           0        5.181511   -3.061507    0.436023
     34          1           0        6.753595   -2.739011   -0.314880
 ---------------------------------------------------------------------

 SCF Done:  E(RHF) =  -669.534276344     A.U. after   15 cycles
 E2 =    -0.2092819943D+01 EUMP2 =    -0.67162709628738D+03

 The electronic state is 1-A.
 Alpha  occ. eigenvalues --  -20.60741 -20.60736 -15.85794 -11.31158 -11.27718
 Alpha  occ. eigenvalues --  -11.27707 -11.27448 -11.26742 -11.26686 -11.22511
 Alpha  occ. eigenvalues --  -11.22211 -11.22041 -11.21961 -11.21839 -11.21313
 Alpha  occ. eigenvalues --   -1.59816  -1.39370  -1.19326  -1.09057  -1.08721
 Alpha  occ. eigenvalues --   -1.04736  -1.04179  -0.96647  -0.95559  -0.87659
 Alpha  occ. eigenvalues --   -0.86129  -0.82400  -0.80264  -0.78811  -0.77436
 Alpha  occ. eigenvalues --   -0.72014  -0.71139  -0.70473  -0.65719  -0.64987
 Alpha  occ. eigenvalues --   -0.64777  -0.62183  -0.61515  -0.60003  -0.58211
 Alpha  occ. eigenvalues --   -0.55910  -0.55278  -0.53365  -0.53108  -0.52958
 Alpha  occ. eigenvalues --   -0.52796  -0.50559  -0.48780  -0.48767  -0.48554
 Alpha  occ. eigenvalues --   -0.47273  -0.46351  -0.46246  -0.44776  -0.44426
 Alpha  occ. eigenvalues --   -0.37293  -0.36307
 Alpha virt. eigenvalues --    0.05075   0.11251   0.16513   0.19834   0.22641
 Alpha virt. eigenvalues --    0.24133   0.25191   0.26253   0.26616   0.27534
 Alpha virt. eigenvalues --    0.28794   0.29935   0.30854   0.31769   0.32122

 Mulliken charges:
               1
     1  C   -0.174858
     2  C   -0.215910
     3  C   -0.172768
     4  C    0.158450
     5  C   -0.171172
     6  C   -0.218620
     7  H    0.227151
     8  H    0.228103
     9  H    0.275147
    10  H    0.275414
    11  H    0.223371
    12  N    0.488106
    13  O   -0.460538
    14  O   -0.460485
    15  C   -0.299013
    16  C   -0.300169
    17  C   -0.481087
    18  H    0.150202
    19  H    0.151506
    20  H    0.144953
    21  H    0.158236
    22  H    0.161415
    23  H    0.157700
    24  H    0.149605
    25  C   -0.298890
    26  C   -0.300199
    27  C   -0.476180
    28  H    0.149738
    29  H    0.151965
    30  H    0.152111
    31  H    0.152446
    32  H    0.156520
    33  H    0.156351
    34  H    0.161399
 Sum of Mulliken charges =  -0.00000

 Dipole moment (field-independent basis, Debye):
    X=              2.4875    Y=              4.6211    Z=             -0.0586  Tot=              5.2484
 Quadrupole moment (field-independent basis, Debye-Ang):
   XX=           -106.8052   YY=            -99.0830   ZZ=            -92.1562
   XY=            -16.5816   XZ=              2.4754   YZ=             -1.4582

 Normal termination of Gaussian 16 at Thu May  6 11:02:25 2021.
