 Gaussian 16, Revision A.03,
 Gaussian 16:  EM64L-G16RevA.03 25-Dec-2016

 -------------
 #p 6-31g* mp2
 -------------

 ------------------------------------------------------
 Input file generated by CHIRIPA (05-May-2021 14:51:11)
 ------------------------------------------------------
 Symbolic Z-matrix:
 Charge =  0 Multiplicity = 1

                         Standard orientation:
 ---------------------------------------------------------------------
 Center     Atomic      Atomic             Coordinates (Angstroms)
 Number     Number       Type             X           Y           Z
 ---------------------------------------------------------------------
      1          6           0        3.667361    0.607708    0.261910
      2          6           0        3.635434    2.010838   -0.344877
      3          6           0        2.476949    2.857234    0.183631
      4          1           0        2.715395    0.101842    0.050235
      5          1           0        3.741182    0.690152    1.355138
      6          1           0        3.563088    1.925761   -1.436731
      7          1           0        4.587660    2.513352   -0.131898
      8          1           0        2.547834    2.971741    1.270123
      9          1           0        1.517440    2.380811   -0.042124
     10          1           0        2.473132    3.856297   -0.263268
     11          6           0        4.819905   -0.250485   -0.256622
     12          6           0        4.851832   -1.653616    0.350165
     13          6           0        6.010316   -2.500012   -0.178343
     14          1           0        4.746083   -0.332930   -1.349850
     15          1           0        5.771870    0.255380   -0.044947
     16          1           0        3.899605   -2.156130    0.137186
     17          1           0        4.924177   -1.568539    1.442019
     18          1           0        6.969825   -2.023589    0.047412
     19          1           0        5.939432   -2.614519   -1.264835
     20          1           0        6.014133   -3.499074    0.268556
     21          6           0       -3.533768   -0.457129    0.041532
     22          6           0       -2.453700    0.623706   -0.015330
     23          6           0       -1.038891    0.050906    0.074175
     24          1           0       -3.425378   -1.026085    0.975067
     25          1           0       -3.373101   -1.169760   -0.779285
     26          1           0       -2.617173    1.334858    0.804521
     27          1           0       -2.564792    1.190277   -0.948748
     28          1           0       -0.851393   -0.643294   -0.751374
     29          1           0       -0.904072   -0.497892    1.011856
     30          1           0       -0.282531    0.840823    0.031633
     31          6           0       -4.953498    0.099907   -0.046820
     32          6           0       -6.033565   -0.980927    0.010041
     33          6           0       -7.448375   -0.408128   -0.079463
     34          1           0       -5.114164    0.812538    0.773996
     35          1           0       -5.061887    0.668862   -0.980355
     36          1           0       -5.922473   -1.547500    0.943460
     37          1           0       -5.870092   -1.692081   -0.809809
     38          1           0       -7.583193    0.140669   -1.017144
     39          1           0       -7.635872    0.286072    0.746086
     40          1           0       -8.204735   -1.198045   -0.036921
 ---------------------------------------------------------------------

 SCF Done:  E(RHF) =  -470.733327275     A.U. after   11 cycles
 E2 =    -0.1582483849D+01 EUMP2 =    -0.47231581112360D+03

 The electronic state is 1-A.
 Alpha  occ. eigenvalues --  -11.21622 -11.21608 -11.21579 -11.21566 -11.21416
 Alpha  occ. eigenvalues --  -11.21362 -11.21356 -11.21300 -11.21099 -11.21075
 Alpha  occ. eigenvalues --  -11.21063 -11.21045  -1.08443  -1.08395  -1.03550
 Alpha  occ. eigenvalues --   -1.03500  -0.96007  -0.95947  -0.87031  -0.86959
 Alpha  occ. eigenvalues --   -0.79632  -0.79544  -0.78255  -0.78201  -0.65071
 Alpha  occ. eigenvalues --   -0.65030  -0.60941  -0.60931  -0.59441  -0.59261
 Alpha  occ. eigenvalues --   -0.57691  -0.57490  -0.55280  -0.55250  -0.52762
 Alpha  occ. eigenvalues --   -0.52650  -0.52480  -0.52276  -0.49935  -0.49891
 Alpha  occ. eigenvalues --   -0.47992  -0.47811  -0.46638  -0.46591  -0.45797
 Alpha  occ. eigenvalues --   -0.45748  -0.45719  -0.45671  -0.43774  -0.43735
 Alpha virt. eigenvalues --    0.21503   0.22986   0.23473   0.24858   0.26021
 Alpha virt. eigenvalues --    0.26647   0.27114   0.27293   0.27868   0.28816
 Alpha virt. eigenvalues --    0.30188   0.31399   0.31773   0.31807   0.31988

 Mulliken charges:
               1
     1  C   -0.300573
     2  C   -0.299169
     3  C   -0.482762
     4  H    0.152874
     5  H    0.149280
     6  H    0.151764
     7  H    0.151878
     8  H    0.155367
     9  H    0.161097
    10  H    0.160415
    11  C   -0.298248
    12  C   -0.299688
    13  C   -0.475683
    14  H    0.149405
    15  H    0.149474
    16  H    0.152324
    17  H    0.151827
    18  H    0.155069
    19  H    0.155104
    20  H    0.160155
    21  C   -0.298630
    22  C   -0.299015
    23  C   -0.484794
    24  H    0.149760
    25  H    0.149444
    26  H    0.152396
    27  H    0.151913
    28  H    0.154736
    29  H    0.155996
    30  H    0.168017
    31  C   -0.298243
    32  C   -0.299650
    33  C   -0.475713
    34  H    0.149642
    35  H    0.149670
    36  H    0.151973
    37  H    0.151901
    38  H    0.155188
    39  H    0.155228
    40  H    0.160270
 Sum of Mulliken charges =  -0.00000

 Dipole moment (field-independent basis, Debye):
    X=             -0.0164    Y=             -0.0012    Z=              0.0069  Tot=              0.0179
 Quadrupole moment (field-independent basis, Debye-Ang):
   XX=            -86.2849   YY=            -85.3161   ZZ=            -83.2260
   XY=              1.0444   XZ=              0.5891   YZ=              0.1553

 Normal termination of Gaussian 16 at Wed May  5 23:05:04 2021.
