 Gaussian 16, Revision A.03,
 Gaussian 16:  EM64L-G16RevA.03 25-Dec-2016

 -------------
 #p 6-31g* mp2
 -------------

 ------------------------------------------------------
 Input file generated by CHIRIPA (05-May-2021 14:57:23)
 ------------------------------------------------------
 Symbolic Z-matrix:
 Charge =  0 Multiplicity = 1

                         Standard orientation:
 ---------------------------------------------------------------------
 Center     Atomic      Atomic             Coordinates (Angstroms)
 Number     Number       Type             X           Y           Z
 ---------------------------------------------------------------------
      1          6           0       -3.442971   -2.257553   -0.236311
      2          6           0       -4.491010   -1.438194   -0.668499
      3          6           0       -4.399761   -0.047989   -0.552086
      4          6           0       -3.240808    0.491589    0.003767
      5          6           0       -2.179612   -0.298197    0.443529
      6          6           0       -2.292645   -1.685947    0.317348
      7          1           0       -3.522316   -3.336544   -0.330537
      8          1           0       -5.385557   -1.879343   -1.098869
      9          1           0       -5.196109    0.609768   -0.878587
     10          1           0       -1.300411    0.170727    0.868421
     11          1           0       -1.477151   -2.319815    0.653838
     12          7           0       -3.132676    1.962037    0.132179
     13          8           0       -2.101060    2.412783    0.625366
     14          8           0       -4.081585    2.635986   -0.262791
     15          6           0        1.690794   -2.125027    0.641294
     16          6           0        2.185760   -2.031191   -0.663591
     17          6           0        3.055068   -0.996072   -1.020499
     18          6           0        3.410202   -0.067897   -0.042919
     19          6           0        2.933905   -0.134461    1.265516
     20          6           0        2.065786   -1.178032    1.599992
     21          1           0        1.015957   -2.932414    0.909835
     22          1           0        1.896246   -2.765220   -1.410202
     23          1           0        3.453120   -0.899665   -2.023333
     24          1           0        3.240518    0.612207    1.987939
     25          1           0        1.682948   -1.248417    2.614156
     26          7           0        4.329870    1.032410   -0.408888
     27          8           0        4.627539    1.837512    0.470795
     28          8           0        4.735624    1.068894   -1.568487
 ---------------------------------------------------------------------

 SCF Done:  E(RHF) =  -868.336605380     A.U. after   16 cycles
 E2 =    -0.2600646361D+01 EUMP2 =    -0.87093725174058D+03

 The electronic state is 1-A.
 Alpha  occ. eigenvalues --  -20.61036 -20.61031 -20.60973 -20.60963 -15.86097
 Alpha  occ. eigenvalues --  -15.86031 -11.31633 -11.31585 -11.28210 -11.28207
 Alpha  occ. eigenvalues --  -11.28194 -11.28168 -11.28163 -11.27999 -11.27365
 Alpha  occ. eigenvalues --  -11.27339 -11.27315 -11.27204  -1.60110  -1.60038
 Alpha  occ. eigenvalues --   -1.39660  -1.39585  -1.19848  -1.19789  -1.09238
 Alpha  occ. eigenvalues --   -1.09167  -1.05268  -1.05219  -0.96020  -0.95974
 Alpha  occ. eigenvalues --   -0.86673  -0.86622  -0.82869  -0.82774  -0.77841
 Alpha  occ. eigenvalues --   -0.77795  -0.72311  -0.72250  -0.71436  -0.71358
 Alpha  occ. eigenvalues --   -0.71052  -0.70902  -0.65508  -0.65448  -0.65329
 Alpha  occ. eigenvalues --   -0.65208  -0.62599  -0.62568  -0.55941  -0.55697
 Alpha  occ. eigenvalues --   -0.53628  -0.53503  -0.53365  -0.53300  -0.49082
 Alpha  occ. eigenvalues --   -0.49058  -0.49027  -0.48986  -0.45037  -0.44938
 Alpha  occ. eigenvalues --   -0.37922  -0.37783  -0.36878  -0.36781
 Alpha virt. eigenvalues --    0.04621   0.04773   0.10696   0.10859   0.15888
 Alpha virt. eigenvalues --    0.16222   0.19007   0.21920   0.25217   0.26729
 Alpha virt. eigenvalues --    0.27837   0.28676   0.29870   0.31625   0.32216

 Mulliken charges:
               1
     1  C   -0.171648
     2  C   -0.218536
     3  C   -0.169909
     4  C    0.158969
     5  C   -0.171400
     6  C   -0.218768
     7  H    0.224412
     8  H    0.224676
     9  H    0.277325
    10  H    0.277061
    11  H    0.213325
    12  N    0.488022
    13  O   -0.458758
    14  O   -0.459022
    15  C   -0.177184
    16  C   -0.216682
    17  C   -0.169442
    18  C    0.160926
    19  C   -0.168045
    20  C   -0.222841
    21  H    0.218190
    22  H    0.223663
    23  H    0.278127
    24  H    0.280046
    25  H    0.224879
    26  N    0.488212
    27  O   -0.456836
    28  O   -0.458762
 Sum of Mulliken charges =  -0.00000

 Dipole moment (field-independent basis, Debye):
    X=             -3.4495    Y=             -8.7926    Z=              0.7526  Tot=              9.4750
 Quadrupole moment (field-independent basis, Debye-Ang):
   XX=           -119.9309   YY=           -110.3375   ZZ=           -100.4297
   XY=              3.1193   XZ=              8.0223   YZ=              1.7390

 Normal termination of Gaussian 16 at Fri May  7 00:16:10 2021.
