 Gaussian 16, Revision A.03,
 Gaussian 16:  EM64L-G16RevA.03 25-Dec-2016

 -------------
 #p 6-31g* mp2
 -------------

 ------------------------------------------------------
 Input file generated by CHIRIPA (05-May-2021 14:57:22)
 ------------------------------------------------------
 Symbolic Z-matrix:
 Charge =  0 Multiplicity = 1

                         Standard orientation:
 ---------------------------------------------------------------------
 Center     Atomic      Atomic             Coordinates (Angstroms)
 Number     Number       Type             X           Y           Z
 ---------------------------------------------------------------------
      1          6           0        5.518337    0.428871    0.534436
      2          6           0        5.209901   -0.709798   -0.217111
      3          6           0        3.879735   -1.037765   -0.495756
      4          6           0        2.878549   -0.201054   -0.005010
      5          6           0        3.153848    0.940261    0.746588
      6          6           0        4.491137    1.248820    1.013043
      7          1           0        6.554408    0.676105    0.746159
      8          1           0        6.005581   -1.348410   -0.590089
      9          1           0        3.612716   -1.913256   -1.075096
     10          1           0        2.339002    1.557589    1.104847
     11          1           0        4.727713    2.133757    1.596964
     12          7           0        1.466591   -0.537986   -0.293546
     13          8           0        0.602843    0.215428    0.150236
     14          8           0        1.250383   -1.549107   -0.958020
     15          6           0       -3.705926   -2.179900    0.735076
     16          6           0       -4.204883   -1.064925    1.416540
     17          6           0       -3.881965    0.228213    0.994562
     18          6           0       -3.053766    0.370338   -0.117721
     19          6           0       -2.540922   -0.720722   -0.817630
     20          6           0       -2.877000   -2.004549   -0.377872
     21          1           0       -3.961888   -3.180825    1.069785
     22          1           0       -4.848853   -1.198092    2.281187
     23          1           0       -4.254371    1.108876    1.503644
     24          1           0       -1.901242   -0.556220   -1.676215
     25          1           0       -2.488049   -2.868620   -0.909044
     26          7           0       -2.704942    1.734397   -0.573862
     27          8           0       -1.973389    1.832800   -1.556606
     28          8           0       -3.169691    2.679315    0.059996
 ---------------------------------------------------------------------

 SCF Done:  E(RHF) =  -868.339639973     A.U. after   16 cycles
 E2 =    -0.2600396443D+01 EUMP2 =    -0.87094003641606D+03

 The electronic state is 1-A.
 Alpha  occ. eigenvalues --  -20.61094 -20.61012 -20.59366 -20.59302 -15.86062
 Alpha  occ. eigenvalues --  -15.84380 -11.31247 -11.29540 -11.27824 -11.27758
 Alpha  occ. eigenvalues --  -11.27526 -11.26798 -11.26754 -11.26287 -11.26042
 Alpha  occ. eigenvalues --  -11.26028 -11.25292 -11.25088  -1.60102  -1.58396
 Alpha  occ. eigenvalues --   -1.39659  -1.37959  -1.19406  -1.17765  -1.08842
 Alpha  occ. eigenvalues --   -1.07223  -1.04782  -1.03159  -0.95708  -0.94079
 Alpha  occ. eigenvalues --   -0.86190  -0.84585  -0.82546  -0.80928  -0.77607
 Alpha  occ. eigenvalues --   -0.75959  -0.72327  -0.71388  -0.70639  -0.70521
 Alpha  occ. eigenvalues --   -0.69659  -0.68963  -0.65065  -0.64791  -0.63454
 Alpha  occ. eigenvalues --   -0.63215  -0.62128  -0.60522  -0.55307  -0.53777
 Alpha  occ. eigenvalues --   -0.53121  -0.52875  -0.51547  -0.51292  -0.49069
 Alpha  occ. eigenvalues --   -0.48999  -0.47391  -0.47361  -0.45102  -0.43383
 Alpha  occ. eigenvalues --   -0.37381  -0.36375  -0.35779  -0.34691
 Alpha virt. eigenvalues --    0.04921   0.06598   0.11282   0.12945   0.16442
 Alpha virt. eigenvalues --    0.18063   0.21422   0.22828   0.27346   0.28304
 Alpha virt. eigenvalues --    0.28766   0.29717   0.30991   0.32284   0.32566

 Mulliken charges:
               1
     1  C   -0.170187
     2  C   -0.218755
     3  C   -0.170732
     4  C    0.158712
     5  C   -0.169388
     6  C   -0.218784
     7  H    0.226062
     8  H    0.223183
     9  H    0.273919
    10  H    0.279446
    11  H    0.225039
    12  N    0.490623
    13  O   -0.455992
    14  O   -0.469597
    15  C   -0.171709
    16  C   -0.220963
    17  C   -0.172651
    18  C    0.160805
    19  C   -0.146649
    20  C   -0.220606
    21  H    0.219048
    22  H    0.216039
    23  H    0.269507
    24  H    0.279695
    25  H    0.222892
    26  N    0.490236
    27  O   -0.458880
    28  O   -0.470310
 Sum of Mulliken charges =  -0.00000

 Dipole moment (field-independent basis, Debye):
    X=              4.2358    Y=             -3.5460    Z=              2.4849  Tot=              6.0573
 Quadrupole moment (field-independent basis, Debye-Ang):
   XX=            -69.4505   YY=           -106.2927   ZZ=           -102.3899
   XY=             14.4961   XZ=             -4.3148   YZ=              5.2116

 Normal termination of Gaussian 16 at Fri May  7 01:48:25 2021.
