 Gaussian 16, Revision A.03,
 Gaussian 16:  EM64L-G16RevA.03 25-Dec-2016

 -------------
 #p 6-31g* mp2
 -------------

 ------------------------------------------------------
 Input file generated by CHIRIPA (05-May-2021 14:53:18)
 ------------------------------------------------------
 Symbolic Z-matrix:
 Charge =  0 Multiplicity = 1

                         Standard orientation:
 ---------------------------------------------------------------------
 Center     Atomic      Atomic             Coordinates (Angstroms)
 Number     Number       Type             X           Y           Z
 ---------------------------------------------------------------------
      1          6           0        4.364554   -0.068434    0.087258
      2          6           0        4.576041    1.378125   -0.360768
      3          6           0        5.913840    1.952188    0.106715
      4          1           0        4.423817   -0.118564    1.183123
      5          1           0        5.185586   -0.688290   -0.298850
      6          1           0        3.754116    1.994815    0.024910
      7          1           0        4.516077    1.424849   -1.455683
      8          1           0        6.746086    1.361518   -0.289611
      9          1           0        5.979796    1.934723    1.199394
     10          1           0        6.044329    2.987129   -0.224540
     11          6           0        3.031573   -0.656286   -0.372438
     12          6           0        2.820085   -2.102844    0.075588
     13          6           0        1.482287   -2.676908   -0.391896
     14          1           0        2.210541   -0.036430    0.013669
     15          1           0        2.972310   -0.606155   -1.468303
     16          1           0        2.880050   -2.149568    1.170502
     17          1           0        3.642010   -2.719535   -0.310090
     18          1           0        1.416330   -2.659442   -1.484574
     19          1           0        0.650040   -2.086237    0.004431
     20          1           0        1.351798   -3.711848   -0.060641
     21          6           0       -2.954175    2.800660   -0.042063
     22          6           0       -2.048665    2.175153    0.821254
     23          6           0       -2.003821    0.780931    0.914418
     24          6           0       -2.882822    0.039704    0.126234
     25          6           0       -3.796326    0.633556   -0.743330
     26          6           0       -3.823582    2.029225   -0.820228
     27          1           0       -2.982179    3.884288   -0.108117
     28          1           0       -1.372289    2.771728    1.426778
     29          1           0       -1.312798    0.270781    1.574456
     30          1           0       -4.458107    0.012183   -1.334395
     31          1           0       -4.527859    2.512286   -1.491562
     32          7           0       -2.844658   -1.437063    0.216253
     33          8           0       -3.629580   -2.067560   -0.488733
     34          8           0       -2.030543   -1.936091    0.990091
 ---------------------------------------------------------------------

 SCF Done:  E(RHF) =  -669.536069568     A.U. after   15 cycles
 E2 =    -0.2091197272D+01 EUMP2 =    -0.67162726684003D+03

 The electronic state is 1-A.
 Alpha  occ. eigenvalues --  -20.60916 -20.60911 -15.85935 -11.31271 -11.27842
 Alpha  occ. eigenvalues --  -11.27829 -11.27571 -11.26849 -11.26837 -11.21634
 Alpha  occ. eigenvalues --  -11.21280 -11.21164 -11.21124 -11.21067 -11.20118
 Alpha  occ. eigenvalues --   -1.59967  -1.39526  -1.19440  -1.08841  -1.08225
 Alpha  occ. eigenvalues --   -1.04840  -1.03227  -0.95694  -0.95637  -0.86660
 Alpha  occ. eigenvalues --   -0.86239  -0.82517  -0.79314  -0.78022  -0.77567
 Alpha  occ. eigenvalues --   -0.72161  -0.71277  -0.70550  -0.65098  -0.64870
 Alpha  occ. eigenvalues --   -0.64839  -0.62190  -0.60623  -0.59070  -0.57261
 Alpha  occ. eigenvalues --   -0.55342  -0.54933  -0.53167  -0.52933  -0.52309
 Alpha  occ. eigenvalues --   -0.52077  -0.49613  -0.48924  -0.48911  -0.47623
 Alpha  occ. eigenvalues --   -0.46393  -0.45587  -0.45508  -0.44781  -0.43490
 Alpha  occ. eigenvalues --   -0.37415  -0.36440
 Alpha virt. eigenvalues --    0.04927   0.11190   0.16395   0.21146   0.22980
 Alpha virt. eigenvalues --    0.24460   0.26373   0.27290   0.27647   0.28116
 Alpha virt. eigenvalues --    0.28732   0.30558   0.31614   0.31967   0.32318

 Mulliken charges:
               1
     1  C   -0.297952
     2  C   -0.298531
     3  C   -0.475472
     4  H    0.148743
     5  H    0.150390
     6  H    0.147618
     7  H    0.152038
     8  H    0.156174
     9  H    0.154696
    10  H    0.158875
    11  C   -0.296253
    12  C   -0.300398
    13  C   -0.479782
    14  H    0.143169
    15  H    0.149313
    16  H    0.150821
    17  H    0.149887
    18  H    0.150326
    19  H    0.167374
    20  H    0.164032
    21  C   -0.170594
    22  C   -0.218284
    23  C   -0.171584
    24  C    0.158931
    25  C   -0.170801
    26  C   -0.218439
    27  H    0.225973
    28  H    0.223705
    29  H    0.275438
    30  H    0.275857
    31  H    0.223800
    32  N    0.488353
    33  O   -0.458443
    34  O   -0.458979
 Sum of Mulliken charges =  -0.00000

 Dipole moment (field-independent basis, Debye):
    X=             -0.3262    Y=              5.1401    Z=             -0.3127  Tot=              5.1599
 Quadrupole moment (field-independent basis, Debye-Ang):
   XX=            -92.5732   YY=            -94.9611   ZZ=            -92.4061
   XY=            -15.6226   XZ=              3.2635   YZ=              0.9433

 Normal termination of Gaussian 16 at Wed May  5 23:41:31 2021.
