 Gaussian 16, Revision A.03,
 Gaussian 16:  EM64L-G16RevA.03 25-Dec-2016

 -------------
 #p 6-31g* mp2
 -------------

 ------------------------------------------------------
 Input file generated by CHIRIPA (05-May-2021 14:55:25)
 ------------------------------------------------------
 Symbolic Z-matrix:
 Charge =  0 Multiplicity = 1

                         Standard orientation:
 ---------------------------------------------------------------------
 Center     Atomic      Atomic             Coordinates (Angstroms)
 Number     Number       Type             X           Y           Z
 ---------------------------------------------------------------------
      1          6           0        1.748343    1.576114   -0.079946
      2          6           0        1.768205    0.488441    0.799312
      3          6           0        2.849788   -0.397358    0.808626
      4          6           0        3.899355   -0.164414   -0.078750
      5          6           0        3.908787    0.910173   -0.966704
      6          6           0        2.816814    1.783144   -0.958599
      7          1           0        0.904108    2.259241   -0.080415
      8          1           0        0.939802    0.325192    1.482791
      9          1           0        2.890948   -1.247417    1.478793
     10          1           0        4.749176    1.046911   -1.636381
     11          1           0        2.804091    2.627004   -1.642545
     12          7           0        5.049878   -1.095379   -0.078110
     13          8           0        5.962225   -0.868207   -0.869724
     14          8           0        5.017525   -2.034615    0.713993
     15          6           0       -4.201959    0.106213    0.626553
     16          6           0       -3.108295    1.085499    0.198902
     17          6           0       -2.022164    1.259313    1.260928
     18          1           0       -4.655700    0.459176    1.562760
     19          1           0       -3.745478   -0.868359    0.848428
     20          1           0       -3.566881    2.057550   -0.023432
     21          1           0       -2.657235    0.730266   -0.736497
     22          1           0       -1.537956    0.301498    1.477108
     23          1           0       -2.452770    1.636322    2.194225
     24          1           0       -1.250529    1.963510    0.934513
     25          6           0       -5.294962   -0.078106   -0.424684
     26          6           0       -6.388625   -1.057391    0.002968
     27          6           0       -7.474758   -1.231205   -1.059058
     28          1           0       -5.751443    0.896467   -0.646557
     29          1           0       -4.841221   -0.431067   -1.360890
     30          1           0       -6.839685   -0.702158    0.938367
     31          1           0       -5.930040   -2.029442    0.225300
     32          1           0       -7.044151   -1.608215   -1.992356
     33          1           0       -7.958965   -0.273389   -1.275238
     34          1           0       -8.246391   -1.935402   -0.732643
 ---------------------------------------------------------------------

 SCF Done:  E(RHF) =  -669.534889390     A.U. after   15 cycles
 E2 =    -0.2091619210D+01 EUMP2 =    -0.67162650860001D+03

 The electronic state is 1-A.
 Alpha  occ. eigenvalues --  -20.60707 -20.60702 -15.85759 -11.31106 -11.27674
 Alpha  occ. eigenvalues --  -11.27656 -11.27388 -11.26690 -11.26614 -11.22617
 Alpha  occ. eigenvalues --  -11.22478 -11.22156 -11.22081 -11.21967 -11.21461
 Alpha  occ. eigenvalues --   -1.59783  -1.39337  -1.19272  -1.09171  -1.08670
 Alpha  occ. eigenvalues --   -1.04674  -1.04323  -0.96808  -0.95510  -0.87842
 Alpha  occ. eigenvalues --   -0.86062  -0.82346  -0.80407  -0.78924  -0.77393
 Alpha  occ. eigenvalues --   -0.71978  -0.71106  -0.70416  -0.65804  -0.64925
 Alpha  occ. eigenvalues --   -0.64698  -0.62093  -0.61646  -0.60229  -0.58397
 Alpha  occ. eigenvalues --   -0.56079  -0.55213  -0.53530  -0.53211  -0.53001
 Alpha  occ. eigenvalues --   -0.52722  -0.50702  -0.48764  -0.48734  -0.48673
 Alpha  occ. eigenvalues --   -0.47395  -0.46479  -0.46363  -0.44746  -0.44561
 Alpha  occ. eigenvalues --   -0.37250  -0.36274
 Alpha virt. eigenvalues --    0.05135   0.11348   0.16625   0.19880   0.22455
 Alpha virt. eigenvalues --    0.23884   0.25126   0.25976   0.26227   0.27321
 Alpha virt. eigenvalues --    0.28915   0.29604   0.31068   0.31598   0.32276

 Mulliken charges:
               1
     1  C   -0.175643
     2  C   -0.222925
     3  C   -0.172130
     4  C    0.158586
     5  C   -0.171225
     6  C   -0.218656
     7  H    0.229052
     8  H    0.230522
     9  H    0.275338
    10  H    0.275176
    11  H    0.223179
    12  N    0.488036
    13  O   -0.460704
    14  O   -0.460680
    15  C   -0.299594
    16  C   -0.299903
    17  C   -0.482138
    18  H    0.151306
    19  H    0.151062
    20  H    0.154465
    21  H    0.154097
    22  H    0.154135
    23  H    0.162014
    24  H    0.151803
    25  C   -0.299031
    26  C   -0.300291
    27  C   -0.476144
    28  H    0.150297
    29  H    0.150915
    30  H    0.152607
    31  H    0.153008
    32  H    0.155999
    33  H    0.155571
    34  H    0.161896
 Sum of Mulliken charges =  -0.00000

 Dipole moment (field-independent basis, Debye):
    X=             -4.3485    Y=              3.2514    Z=             -0.0038  Tot=              5.4296
 Quadrupole moment (field-independent basis, Debye-Ang):
   XX=           -125.6457   YY=            -94.4540   ZZ=            -92.7647
   XY=             14.3009   XZ=             -2.3262   YZ=             -2.3683

 Normal termination of Gaussian 16 at Thu May  6 09:32:53 2021.
