 Gaussian 16, Revision A.03,
 Gaussian 16:  EM64L-G16RevA.03 25-Dec-2016

 -------------
 #p 6-31g* mp2
 -------------

 ------------------------------------------------------
 Input file generated by CHIRIPA (05-May-2021 14:53:12)
 ------------------------------------------------------
 Symbolic Z-matrix:
 Charge =  0 Multiplicity = 1

                         Standard orientation:
 ---------------------------------------------------------------------
 Center     Atomic      Atomic             Coordinates (Angstroms)
 Number     Number       Type             X           Y           Z
 ---------------------------------------------------------------------
      1          6           0        4.089608    0.790347    0.337373
      2          6           0        3.024779    1.588754   -0.415403
      3          6           0        2.794659    2.977251    0.182020
      4          1           0        3.790094    0.693178    1.389892
      5          1           0        5.032851    1.353955    0.331567
      6          1           0        2.084194    1.023175   -0.409369
      7          1           0        3.326770    1.683870   -1.466293
      8          1           0        3.719060    3.563480    0.161542
      9          1           0        2.469425    2.899032    1.224471
     10          1           0        2.029631    3.530678   -0.371434
     11          6           0        4.330927   -0.599920   -0.247989
     12          6           0        5.395756   -1.398327    0.504787
     13          6           0        5.625876   -2.786824   -0.092636
     14          1           0        3.387684   -1.163528   -0.242183
     15          1           0        4.630441   -0.502751   -1.300507
     16          1           0        5.093766   -1.493443    1.555677
     17          1           0        6.336341   -0.832748    0.498753
     18          1           0        5.951111   -2.708605   -1.135087
     19          1           0        4.701475   -3.373053   -0.072158
     20          1           0        6.390904   -3.340251    0.460818
     21          6           0       -1.630541    1.817850   -0.219257
     22          6           0       -1.217556    0.500535   -0.444300
     23          6           0       -2.127981   -0.555776   -0.344896
     24          6           0       -3.449632   -0.257320   -0.017094
     25          6           0       -3.891650    1.044597    0.212951
     26          6           0       -2.963919    2.085206    0.108074
     27          1           0       -0.916580    2.632319   -0.298601
     28          1           0       -0.182668    0.289935   -0.698664
     29          1           0       -1.835218   -1.584912   -0.513975
     30          1           0       -4.929930    1.223266    0.464881
     31          1           0       -3.287475    3.107273    0.283384
     32          7           0       -4.422618   -1.367277    0.091037
     33          8           0       -5.581376   -1.077939    0.381209
     34          8           0       -4.008063   -2.505582   -0.116429
 ---------------------------------------------------------------------

 SCF Done:  E(RHF) =  -669.535523505     A.U. after   15 cycles
 E2 =    -0.2091297064D+01 EUMP2 =    -0.67162682056916D+03

 The electronic state is 1-A.
 Alpha  occ. eigenvalues --  -20.60739 -20.60734 -15.85792 -11.31151 -11.27723
 Alpha  occ. eigenvalues --  -11.27718 -11.27450 -11.26732 -11.26707 -11.22763
 Alpha  occ. eigenvalues --  -11.22230 -11.22211 -11.22147 -11.22076 -11.21493
 Alpha  occ. eigenvalues --   -1.59815  -1.39369  -1.19323  -1.09245  -1.08717
 Alpha  occ. eigenvalues --   -1.04728  -1.04340  -0.96769  -0.95553  -0.87788
 Alpha  occ. eigenvalues --   -0.86128  -0.82388  -0.80436  -0.79022  -0.77438
 Alpha  occ. eigenvalues --   -0.72011  -0.71138  -0.70428  -0.65905  -0.64974
 Alpha  occ. eigenvalues --   -0.64735  -0.62136  -0.61673  -0.60179  -0.58376
 Alpha  occ. eigenvalues --   -0.56037  -0.55226  -0.53486  -0.53194  -0.53055
 Alpha  occ. eigenvalues --   -0.52835  -0.50700  -0.48816  -0.48766  -0.48684
 Alpha  occ. eigenvalues --   -0.47453  -0.46559  -0.46459  -0.44776  -0.44586
 Alpha  occ. eigenvalues --   -0.37300  -0.36332
 Alpha virt. eigenvalues --    0.05099   0.11299   0.16592   0.18742   0.22577
 Alpha virt. eigenvalues --    0.23612   0.24429   0.26040   0.26348   0.28378
 Alpha virt. eigenvalues --    0.28975   0.29720   0.30966   0.31645   0.32290

 Mulliken charges:
               1
     1  C   -0.298377
     2  C   -0.305445
     3  C   -0.477594
     4  H    0.151944
     5  H    0.152961
     6  H    0.144796
     7  H    0.155859
     8  H    0.161504
     9  H    0.157921
    10  H    0.154099
    11  C   -0.298378
    12  C   -0.300389
    13  C   -0.476279
    14  H    0.146448
    15  H    0.151047
    16  H    0.153370
    17  H    0.153243
    18  H    0.155838
    19  H    0.155999
    20  H    0.162477
    21  C   -0.174629
    22  C   -0.225338
    23  C   -0.171997
    24  C    0.158848
    25  C   -0.171086
    26  C   -0.218879
    27  H    0.228230
    28  H    0.232250
    29  H    0.275812
    30  H    0.275454
    31  H    0.223438
    32  N    0.487941
    33  O   -0.460546
    34  O   -0.460540
 Sum of Mulliken charges =  -0.00000

 Dipole moment (field-independent basis, Debye):
    X=              3.6843    Y=              3.9152    Z=             -0.3410  Tot=              5.3870
 Quadrupole moment (field-independent basis, Debye-Ang):
   XX=           -114.5637   YY=            -95.7170   ZZ=            -95.0448
   XY=            -16.5908   XZ=              0.0465   YZ=              0.3854

 Normal termination of Gaussian 16 at Wed May  5 16:59:17 2021.
