 Gaussian 16, Revision A.03,
 Gaussian 16:  EM64L-G16RevA.03 25-Dec-2016

 -------------
 #p 6-31g* mp2
 -------------

 ------------------------------------------------------
 Input file generated by CHIRIPA (05-May-2021 14:57:25)
 ------------------------------------------------------
 Symbolic Z-matrix:
 Charge =  0 Multiplicity = 1

                         Standard orientation:
 ---------------------------------------------------------------------
 Center     Atomic      Atomic             Coordinates (Angstroms)
 Number     Number       Type             X           Y           Z
 ---------------------------------------------------------------------
      1          6           0       -5.831739    0.813263   -0.808132
      2          6           0       -4.795108    1.648640   -0.379108
      3          6           0       -3.609236    1.106766    0.125500
      4          6           0       -3.493324   -0.281058    0.187142
      5          6           0       -4.508168   -1.139716   -0.232488
      6          6           0       -5.685219   -0.575800   -0.733584
      7          1           0       -6.749527    1.242765   -1.198760
      8          1           0       -4.906116    2.727762   -0.435835
      9          1           0       -2.790847    1.730235    0.464534
     10          1           0       -4.368204   -2.211671   -0.163628
     11          1           0       -6.488618   -1.227002   -1.066047
     12          7           0       -2.242564   -0.866382    0.719489
     13          8           0       -2.165187   -2.092238    0.763401
     14          8           0       -1.363279   -0.088221    1.082751
     15          6           0        4.554643   -2.164115   -0.443180
     16          6           0        5.430760   -1.078397   -0.543944
     17          6           0        4.967952    0.227286   -0.355407
     18          6           0        3.616789    0.411653   -0.066170
     19          6           0        2.719132   -0.649509    0.040763
     20          6           0        3.204005   -1.946590   -0.151662
     21          1           0        4.922734   -3.175061   -0.591150
     22          1           0        6.480191   -1.244338   -0.770229
     23          1           0        5.624366    1.085960   -0.427647
     24          1           0        1.678357   -0.452555    0.267513
     25          1           0        2.521310   -2.787871   -0.072802
     26          7           0        3.115155    1.789369    0.135484
     27          8           0        1.920263    1.925170    0.389308
     28          8           0        3.926365    2.707332    0.035898
 ---------------------------------------------------------------------

 SCF Done:  E(RHF) =  -868.339782527     A.U. after   16 cycles
 E2 =    -0.2598742401D+01 EUMP2 =    -0.87093852492811D+03

 The electronic state is 1-A.
 Alpha  occ. eigenvalues --  -20.61009 -20.60935 -20.59896 -20.59856 -15.85978
 Alpha  occ. eigenvalues --  -15.84926 -11.31160 -11.30203 -11.27753 -11.27646
 Alpha  occ. eigenvalues --  -11.27450 -11.26872 -11.26724 -11.26656 -11.26595
 Alpha  occ. eigenvalues --  -11.26588 -11.25885 -11.25708  -1.60039  -1.58964
 Alpha  occ. eigenvalues --   -1.39586  -1.38511  -1.19325  -1.18396  -1.08763
 Alpha  occ. eigenvalues --   -1.07828  -1.04694  -1.03768  -0.95621  -0.94659
 Alpha  occ. eigenvalues --   -0.86103  -0.85179  -0.82447  -0.81478  -0.77512
 Alpha  occ. eigenvalues --   -0.76512  -0.72196  -0.71343  -0.71143  -0.70431
 Alpha  occ. eigenvalues --   -0.70290  -0.69506  -0.64977  -0.64698  -0.64046
 Alpha  occ. eigenvalues --   -0.63771  -0.62032  -0.61077  -0.55221  -0.54325
 Alpha  occ. eigenvalues --   -0.53043  -0.52781  -0.52142  -0.51845  -0.48983
 Alpha  occ. eigenvalues --   -0.48958  -0.47925  -0.47884  -0.45022  -0.43938
 Alpha  occ. eigenvalues --   -0.37310  -0.36426  -0.36290  -0.35379
 Alpha virt. eigenvalues --    0.04972   0.05981   0.11366   0.12265   0.16482
 Alpha virt. eigenvalues --    0.17465   0.21515   0.22442   0.27458   0.28301
 Alpha virt. eigenvalues --    0.28479   0.29385   0.31085   0.31922   0.32690

 Mulliken charges:
               1
     1  C   -0.170217
     2  C   -0.219105
     3  C   -0.170725
     4  C    0.156617
     5  C   -0.171125
     6  C   -0.218989
     7  H    0.225883
     8  H    0.225751
     9  H    0.283607
    10  H    0.273835
    11  H    0.222822
    12  N    0.488014
    13  O   -0.466011
    14  O   -0.456358
    15  C   -0.171210
    16  C   -0.219809
    17  C   -0.171980
    18  C    0.155478
    19  C   -0.178037
    20  C   -0.221981
    21  H    0.222458
    22  H    0.219466
    23  H    0.272105
    24  H    0.296525
    25  H    0.228335
    26  N    0.486908
    27  O   -0.455615
    28  O   -0.466644
 Sum of Mulliken charges =  -0.00000

 Dipole moment (field-independent basis, Debye):
    X=             -3.0378    Y=             -2.7139    Z=             -2.5125  Tot=              4.7860
 Quadrupole moment (field-independent basis, Debye-Ang):
   XX=            -58.5123   YY=           -106.0026   ZZ=           -106.9287
   XY=            -19.8703   XZ=              2.8563   YZ=              1.4141

 Normal termination of Gaussian 16 at Thu May  6 21:17:58 2021.
