 Gaussian 16, Revision A.03,
 Gaussian 16:  EM64L-G16RevA.03 25-Dec-2016

 -------------
 #p 6-31g* mp2
 -------------

 ------------------------------------------------------
 Input file generated by CHIRIPA (05-May-2021 14:51:10)
 ------------------------------------------------------
 Symbolic Z-matrix:
 Charge =  0 Multiplicity = 1

                         Standard orientation:
 ---------------------------------------------------------------------
 Center     Atomic      Atomic             Coordinates (Angstroms)
 Number     Number       Type             X           Y           Z
 ---------------------------------------------------------------------
      1          6           0       -2.871810    0.085967    0.001966
      2          6           0       -3.592668   -0.031779   -1.341345
      3          6           0       -4.281351    1.267994   -1.758597
      4          1           0       -3.594584    0.383803    0.773871
      5          1           0       -2.128451    0.892930   -0.058213
      6          1           0       -4.333487   -0.839198   -1.279083
      7          1           0       -2.868132   -0.329556   -2.110105
      8          1           0       -3.551465    2.079033   -1.848507
      9          1           0       -5.025146    1.566494   -1.012763
     10          1           0       -4.790404    1.161396   -2.721593
     11          6           0       -2.178450   -1.205345    0.432654
     12          6           0       -1.457592   -1.087599    1.775966
     13          6           0       -0.768909   -2.387373    2.193218
     14          1           0       -2.921810   -2.012308    0.492834
     15          1           0       -1.455676   -1.503181   -0.339250
     16          1           0       -2.182129   -0.789822    2.544726
     17          1           0       -0.716773   -0.280180    1.713704
     18          1           0       -0.025114   -2.685872    1.447384
     19          1           0       -1.498795   -3.198411    2.283127
     20          1           0       -0.259856   -2.280774    3.156214
     21          6           0        3.105497    0.119557   -0.447288
     22          6           0        2.653752   -1.164673   -1.143467
     23          6           0        3.826159   -2.034659   -1.597755
     24          1           0        3.746635    0.693359   -1.130396
     25          1           0        3.727519   -0.141200    0.420174
     26          1           0        2.031625   -0.901606   -2.008551
     27          1           0        2.013459   -1.735392   -0.458690
     28          1           0        4.444039   -2.325816   -0.742154
     29          1           0        4.462309   -1.487291   -2.300822
     30          1           0        3.480514   -2.947479   -2.092881
     31          6           0        1.944762    0.999821    0.012667
     32          6           0        2.396509    2.284051    0.708846
     33          6           0        1.224101    3.154038    1.163134
     34          1           0        1.322741    1.260578   -0.854795
     35          1           0        1.303625    0.426018    0.695775
     36          1           0        3.036802    2.854771    0.024070
     37          1           0        3.018634    2.020984    1.573930
     38          1           0        0.587951    2.606669    1.866201
     39          1           0        0.606220    3.445194    0.307534
     40          1           0        1.569746    4.066857    1.658261
 ---------------------------------------------------------------------

 SCF Done:  E(RHF) =  -470.733408940     A.U. after   11 cycles
 E2 =    -0.1583929488D+01 EUMP2 =    -0.47231733842804D+03

 The electronic state is 1-A.
 Alpha  occ. eigenvalues --  -11.21680 -11.21658 -11.21591 -11.21574 -11.21467
 Alpha  occ. eigenvalues --  -11.21407 -11.21368 -11.21307 -11.21129 -11.21120
 Alpha  occ. eigenvalues --  -11.21112 -11.21052  -1.08506  -1.08398  -1.03592
 Alpha  occ. eigenvalues --   -1.03524  -0.96037  -0.95971  -0.87056  -0.86985
 Alpha  occ. eigenvalues --   -0.79681  -0.79566  -0.78354  -0.78183  -0.65255
 Alpha  occ. eigenvalues --   -0.64929  -0.61005  -0.60915  -0.59422  -0.59326
 Alpha  occ. eigenvalues --   -0.57654  -0.57575  -0.55338  -0.55246  -0.52729
 Alpha  occ. eigenvalues --   -0.52672  -0.52466  -0.52396  -0.50042  -0.49864
 Alpha  occ. eigenvalues --   -0.48014  -0.47931  -0.46879  -0.46490  -0.46092
 Alpha  occ. eigenvalues --   -0.45782  -0.45698  -0.45312  -0.43845  -0.43768
 Alpha virt. eigenvalues --    0.19526   0.22434   0.23613   0.23823   0.25842
 Alpha virt. eigenvalues --    0.26483   0.26912   0.28034   0.28330   0.29632
 Alpha virt. eigenvalues --    0.29964   0.31428   0.31789   0.31814   0.32409

 Mulliken charges:
               1
     1  C   -0.299415
     2  C   -0.299671
     3  C   -0.475613
     4  H    0.149392
     5  H    0.151205
     6  H    0.151786
     7  H    0.151869
     8  H    0.155010
     9  H    0.155217
    10  H    0.160080
    11  C   -0.298596
    12  C   -0.306483
    13  C   -0.478462
    14  H    0.149348
    15  H    0.150922
    16  H    0.152245
    17  H    0.157475
    18  H    0.156724
    19  H    0.155868
    20  H    0.159916
    21  C   -0.297528
    22  C   -0.302931
    23  C   -0.475690
    24  H    0.150033
    25  H    0.149901
    26  H    0.151793
    27  H    0.153985
    28  H    0.155554
    29  H    0.155453
    30  H    0.160481
    31  C   -0.307248
    32  C   -0.299250
    33  C   -0.477421
    34  H    0.149027
    35  H    0.158361
    36  H    0.152245
    37  H    0.152162
    38  H    0.156400
    39  H    0.155008
    40  H    0.160849
 Sum of Mulliken charges =  -0.00000

 Dipole moment (field-independent basis, Debye):
    X=              0.0289    Y=              0.0096    Z=              0.0011  Tot=              0.0305
 Quadrupole moment (field-independent basis, Debye-Ang):
   XX=            -84.8526   YY=            -85.7362   ZZ=            -84.0915
   XY=              1.2917   XZ=             -0.3859   YZ=             -0.4565

 Normal termination of Gaussian 16 at Wed May  5 23:02:09 2021.
