 Gaussian 16, Revision A.03,
 Gaussian 16:  EM64L-G16RevA.03 25-Dec-2016

 -------------
 #p 6-31g* mp2
 -------------

 ------------------------------------------------------
 Input file generated by CHIRIPA (05-May-2021 14:51:08)
 ------------------------------------------------------
 Symbolic Z-matrix:
 Charge =  0 Multiplicity = 1

                         Standard orientation:
 ---------------------------------------------------------------------
 Center     Atomic      Atomic             Coordinates (Angstroms)
 Number     Number       Type             X           Y           Z
 ---------------------------------------------------------------------
      1          6           0        5.205834   -0.419763   -0.056061
      2          6           0        6.682303   -0.036460   -0.161426
      3          6           0        7.616278   -1.239939   -0.030561
      4          1           0        5.030872   -0.918462    0.907077
      5          1           0        4.968653   -1.155736   -0.836756
      6          1           0        6.916296    0.699608    0.618361
      7          1           0        6.853732    0.461555   -1.124343
      8          1           0        7.411461   -1.973809   -0.816745
      9          1           0        7.474380   -1.734404    0.935861
     10          1           0        8.666840   -0.943196   -0.108811
     11          6           0        4.259682    0.772673   -0.184980
     12          6           0        2.783213    0.389370   -0.079615
     13          6           0        1.849238    1.592848   -0.210480
     14          1           0        4.496863    1.508645    0.595715
     15          1           0        4.434645    1.271371   -1.148117
     16          1           0        2.611784   -0.108645    0.883302
     17          1           0        2.549220   -0.346698   -0.859402
     18          1           0        1.991136    2.087313   -1.176902
     19          1           0        2.054055    2.326719    0.575704
     20          1           0        0.798676    1.296105   -0.132230
     21          6           0       -5.431761    0.126632    0.174977
     22          6           0       -6.497020   -0.665728   -0.583556
     23          6           0       -7.890160   -0.046915   -0.465126
     24          1           0       -5.716890    0.191534    1.233956
     25          1           0       -5.410025    1.156845   -0.206576
     26          1           0       -6.515785   -1.694513   -0.201635
     27          1           0       -6.209225   -0.728915   -1.640816
     28          1           0       -7.894064    0.972538   -0.864252
     29          1           0       -8.202366    0.001453    0.583107
     30          1           0       -8.636188   -0.629305   -1.014783
     31          6           0       -4.033755   -0.479542    0.066064
     32          6           0       -2.968496    0.312818    0.824597
     33          6           0       -1.575356   -0.305994    0.706166
     34          1           0       -4.055492   -1.509754    0.447616
     35          1           0       -3.748626   -0.544443   -0.992914
     36          1           0       -3.256291    0.376005    1.881856
     37          1           0       -2.949731    1.341604    0.442676
     38          1           0       -1.263150   -0.354362   -0.342066
     39          1           0       -1.571452   -1.325448    1.105292
     40          1           0       -0.829328    0.276396    1.255824
 ---------------------------------------------------------------------

 SCF Done:  E(RHF) =  -470.732880317     A.U. after   11 cycles
 E2 =    -0.1582484560D+01 EUMP2 =    -0.47231536487696D+03

 The electronic state is 1-A.
 Alpha  occ. eigenvalues --  -11.21629 -11.21610 -11.21569 -11.21522 -11.21420
 Alpha  occ. eigenvalues --  -11.21360 -11.21355 -11.21294 -11.21100 -11.21077
 Alpha  occ. eigenvalues --  -11.21045 -11.20908  -1.08449  -1.08374  -1.03564
 Alpha  occ. eigenvalues --   -1.03458  -0.96044  -0.95883  -0.87082  -0.86882
 Alpha  occ. eigenvalues --   -0.79629  -0.79520  -0.78259  -0.78188  -0.65080
 Alpha  occ. eigenvalues --   -0.65007  -0.60974  -0.60869  -0.59636  -0.59099
 Alpha  occ. eigenvalues --   -0.57689  -0.57449  -0.55294  -0.55204  -0.52986
 Alpha  occ. eigenvalues --   -0.52477  -0.52419  -0.52161  -0.49927  -0.49860
 Alpha  occ. eigenvalues --   -0.47944  -0.47827  -0.46638  -0.46568  -0.45801
 Alpha  occ. eigenvalues --   -0.45733  -0.45720  -0.45658  -0.43912  -0.43579
 Alpha virt. eigenvalues --    0.22063   0.23012   0.23530   0.25033   0.26565
 Alpha virt. eigenvalues --    0.26686   0.27122   0.27462   0.27657   0.28973
 Alpha virt. eigenvalues --    0.30685   0.31351   0.31468   0.31787   0.31995

 Mulliken charges:
               1
     1  C   -0.298197
     2  C   -0.299601
     3  C   -0.475667
     4  H    0.149562
     5  H    0.149430
     6  H    0.151837
     7  H    0.151848
     8  H    0.155130
     9  H    0.155127
    10  H    0.160125
    11  C   -0.298070
    12  C   -0.298857
    13  C   -0.484513
    14  H    0.149284
    15  H    0.149459
    16  H    0.151837
    17  H    0.151643
    18  H    0.154014
    19  H    0.153764
    20  H    0.170352
    21  C   -0.298334
    22  C   -0.299672
    23  C   -0.475720
    24  H    0.149692
    25  H    0.149652
    26  H    0.151936
    27  H    0.151967
    28  H    0.155228
    29  H    0.155192
    30  H    0.160281
    31  C   -0.298580
    32  C   -0.300178
    33  C   -0.480428
    34  H    0.149630
    35  H    0.149825
    36  H    0.152170
    37  H    0.152522
    38  H    0.156101
    39  H    0.155840
    40  H    0.164366
 Sum of Mulliken charges =  -0.00000

 Dipole moment (field-independent basis, Debye):
    X=             -0.0561    Y=             -0.0186    Z=              0.0110  Tot=              0.0601
 Quadrupole moment (field-independent basis, Debye-Ang):
   XX=            -86.7132   YY=            -85.2227   ZZ=            -83.0253
   XY=              1.0049   XZ=             -0.1810   YZ=             -0.2698

 Normal termination of Gaussian 16 at Thu May  6 03:41:09 2021.
