 Gaussian 16, Revision A.03,
 Gaussian 16:  EM64L-G16RevA.03 25-Dec-2016

 -------------
 #p 6-31g* mp2
 -------------

 ------------------------------------------------------
 Input file generated by CHIRIPA (05-May-2021 14:53:13)
 ------------------------------------------------------
 Symbolic Z-matrix:
 Charge =  0 Multiplicity = 1

                         Standard orientation:
 ---------------------------------------------------------------------
 Center     Atomic      Atomic             Coordinates (Angstroms)
 Number     Number       Type             X           Y           Z
 ---------------------------------------------------------------------
      1          6           0        3.076350   -0.447039   -0.344755
      2          6           0        4.393252   -1.215551   -0.459404
      3          6           0        4.242894   -2.536783   -1.214079
      4          1           0        2.333802   -1.078191    0.162409
      5          1           0        2.684676   -0.252117   -1.352719
      6          1           0        4.783026   -1.407756    0.548440
      7          1           0        5.132807   -0.582425   -0.966183
      8          1           0        3.877066   -2.360253   -2.230744
      9          1           0        3.525298   -3.190274   -0.707516
     10          1           0        5.196246   -3.069741   -1.284329
     11          6           0        3.210487    0.875980    0.407148
     12          6           0        1.893586    1.644492    0.521797
     13          6           0        2.043944    2.965724    1.276472
     14          1           0        3.602161    0.681058    1.415112
     15          1           0        3.953035    1.507132   -0.100016
     16          1           0        1.154030    1.011365    1.028576
     17          1           0        1.503811    1.836697   -0.486047
     18          1           0        2.761539    3.619215    0.769909
     19          1           0        2.409771    2.789194    2.293137
     20          1           0        1.090592    3.498682    1.346722
     21          6           0       -2.465636   -2.068402    1.634725
     22          6           0       -1.775475   -0.887471    1.927299
     23          6           0       -1.763211    0.172236    1.015477
     24          6           0       -2.454845    0.016211   -0.184768
     25          6           0       -3.151697   -1.147840   -0.505186
     26          6           0       -3.150338   -2.194595    0.421556
     27          1           0       -2.469872   -2.886578    2.348845
     28          1           0       -1.242852   -0.786666    2.868679
     29          1           0       -1.237052    1.097537    1.216459
     30          1           0       -3.673433   -1.218804   -1.451851
     31          1           0       -3.687181   -3.110563    0.191665
     32          7           0       -2.449072    1.131220   -1.157970
     33          8           0       -3.066177    0.968836   -2.208422
     34          8           0       -1.827551    2.146436   -0.851886
 ---------------------------------------------------------------------

 SCF Done:  E(RHF) =  -669.535489301     A.U. after   15 cycles
 E2 =    -0.2092189558D+01 EUMP2 =    -0.67162767885879D+03

 The electronic state is 1-A.
 Alpha  occ. eigenvalues --  -20.60812 -20.60804 -15.85853 -11.31195 -11.27781
 Alpha  occ. eigenvalues --  -11.27745 -11.27526 -11.26793 -11.26783 -11.21617
 Alpha  occ. eigenvalues --  -11.21472 -11.21372 -11.21304 -11.21112 -11.20924
 Alpha  occ. eigenvalues --   -1.59876  -1.39430  -1.19380  -1.08777  -1.08393
 Alpha  occ. eigenvalues --   -1.04786  -1.03484  -0.95934  -0.95613  -0.86949
 Alpha  occ. eigenvalues --   -0.86181  -0.82449  -0.79560  -0.78230  -0.77470
 Alpha  occ. eigenvalues --   -0.72073  -0.71192  -0.70498  -0.65082  -0.65008
 Alpha  occ. eigenvalues --   -0.64774  -0.62169  -0.60868  -0.59286  -0.57532
 Alpha  occ. eigenvalues --   -0.55307  -0.55209  -0.53118  -0.52882  -0.52608
 Alpha  occ. eigenvalues --   -0.52353  -0.49881  -0.48832  -0.48830  -0.47857
 Alpha  occ. eigenvalues --   -0.46581  -0.45766  -0.45662  -0.44805  -0.43732
 Alpha  occ. eigenvalues --   -0.37359  -0.36358
 Alpha virt. eigenvalues --    0.05000   0.11240   0.16448   0.20767   0.22971
 Alpha virt. eigenvalues --    0.23971   0.26223   0.26823   0.27508   0.27884
 Alpha virt. eigenvalues --    0.29096   0.30517   0.31528   0.31618   0.32033

 Mulliken charges:
               1
     1  C   -0.298464
     2  C   -0.299484
     3  C   -0.475512
     4  H    0.146502
     5  H    0.152856
     6  H    0.150300
     7  H    0.153143
     8  H    0.156684
     9  H    0.153029
    10  H    0.160027
    11  C   -0.298140
    12  C   -0.302211
    13  C   -0.478657
    14  H    0.146162
    15  H    0.151507
    16  H    0.138698
    17  H    0.166883
    18  H    0.158133
    19  H    0.150053
    20  H    0.165886
    21  C   -0.170376
    22  C   -0.220929
    23  C   -0.169640
    24  C    0.156759
    25  C   -0.170692
    26  C   -0.218605
    27  H    0.225638
    28  H    0.223539
    29  H    0.280563
    30  H    0.275620
    31  H    0.223517
    32  N    0.488196
    33  O   -0.460162
    34  O   -0.460821
 Sum of Mulliken charges =  -0.00000

 Dipole moment (field-independent basis, Debye):
    X=             -0.0597    Y=             -3.8479    Z=              3.3004  Tot=              5.0698
 Quadrupole moment (field-independent basis, Debye-Ang):
   XX=            -93.6886   YY=            -94.4184   ZZ=            -94.1526
   XY=             11.9213   XZ=             -6.8966   YZ=              1.5418

 Normal termination of Gaussian 16 at Wed May  5 23:26:45 2021.
