 Gaussian 16, Revision A.03,
 Gaussian 16:  EM64L-G16RevA.03 25-Dec-2016

 -------------
 #p 6-31g* mp2
 -------------

 ------------------------------------------------------
 Input file generated by CHIRIPA (05-May-2021 14:55:23)
 ------------------------------------------------------
 Symbolic Z-matrix:
 Charge =  0 Multiplicity = 1

                         Standard orientation:
 ---------------------------------------------------------------------
 Center     Atomic      Atomic             Coordinates (Angstroms)
 Number     Number       Type             X           Y           Z
 ---------------------------------------------------------------------
      1          6           0       -3.032792    2.651147   -0.534124
      2          6           0       -2.863991    2.311492    0.812227
      3          6           0       -2.700951    0.976078    1.192537
      4          6           0       -2.711814    0.001535    0.195822
      5          6           0       -2.877888    0.308229   -1.153862
      6          6           0       -3.039191    1.650196   -1.511149
      7          1           0       -3.158771    3.691074   -0.820616
      8          1           0       -2.858606    3.086741    1.573151
      9          1           0       -2.568411    0.685145    2.227529
     10          1           0       -2.878881   -0.486729   -1.889701
     11          1           0       -3.170089    1.911044   -2.557509
     12          7           0       -2.540131   -1.415676    0.586253
     13          8           0       -2.553393   -2.255547   -0.311008
     14          8           0       -2.395554   -1.659781    1.782141
     15          6           0        3.985737    0.013870    0.337147
     16          6           0        5.055860    0.894991   -0.308180
     17          6           0        6.005313    1.517697    0.715818
     18          1           0        3.410316    0.613603    1.055587
     19          1           0        4.475586   -0.781647    0.915590
     20          1           0        4.564133    1.687787   -0.886364
     21          1           0        5.628675    0.293138   -1.025307
     22          1           0        6.522234    0.738672    1.285478
     23          1           0        5.451642    2.141245    1.425211
     24          1           0        6.762219    2.143563    0.232863
     25          6           0        3.028943   -0.615749   -0.673722
     26          6           0        1.958821   -1.496871   -0.028396
     27          6           0        1.009367   -2.119576   -1.052393
     28          1           0        2.539094    0.179768   -1.252166
     29          1           0        3.604365   -1.215482   -1.392162
     30          1           0        1.386005   -0.895017    0.688731
     31          1           0        2.450547   -2.289665    0.549788
     32          1           0        1.563038   -2.743124   -1.761787
     33          1           0        0.492446   -1.340552   -1.622055
     34          1           0        0.252461   -2.745442   -0.569439
 ---------------------------------------------------------------------

 SCF Done:  E(RHF) =  -669.536116559     A.U. after   15 cycles
 E2 =    -0.2091682226D+01 EUMP2 =    -0.67162779878424D+03

 The electronic state is 1-A.
 Alpha  occ. eigenvalues --  -20.60897 -20.60881 -15.85917 -11.31270 -11.27830
 Alpha  occ. eigenvalues --  -11.27825 -11.27572 -11.26845 -11.26834 -11.21460
 Alpha  occ. eigenvalues --  -11.21142 -11.21054 -11.20996 -11.20978 -11.20212
 Alpha  occ. eigenvalues --   -1.59950  -1.39505  -1.19436  -1.08835  -1.08107
 Alpha  occ. eigenvalues --   -1.04835  -1.03148  -0.95680  -0.95577  -0.86598
 Alpha  occ. eigenvalues --   -0.86233  -0.82506  -0.79224  -0.77910  -0.77554
 Alpha  occ. eigenvalues --   -0.72143  -0.71273  -0.70542  -0.65090  -0.64838
 Alpha  occ. eigenvalues --   -0.64750  -0.62181  -0.60562  -0.58952  -0.57172
 Alpha  occ. eigenvalues --   -0.55339  -0.54898  -0.53169  -0.52926  -0.52221
 Alpha  occ. eigenvalues --   -0.52007  -0.49566  -0.48905  -0.48898  -0.47528
 Alpha  occ. eigenvalues --   -0.46301  -0.45449  -0.45402  -0.44887  -0.43319
 Alpha  occ. eigenvalues --   -0.37411  -0.36436
 Alpha virt. eigenvalues --    0.04946   0.11177   0.16430   0.21326   0.23101
 Alpha virt. eigenvalues --    0.24579   0.26851   0.27198   0.27781   0.27949
 Alpha virt. eigenvalues --    0.28634   0.30879   0.31619   0.31978   0.32580

 Mulliken charges:
               1
     1  C   -0.170704
     2  C   -0.218582
     3  C   -0.171299
     4  C    0.159251
     5  C   -0.171115
     6  C   -0.218791
     7  H    0.225899
     8  H    0.223721
     9  H    0.275810
    10  H    0.276562
    11  H    0.223854
    12  N    0.488294
    13  O   -0.458672
    14  O   -0.459846
    15  C   -0.297597
    16  C   -0.299097
    17  C   -0.475352
    18  H    0.147983
    19  H    0.150374
    20  H    0.149795
    21  H    0.151988
    22  H    0.155799
    23  H    0.153974
    24  H    0.159164
    25  C   -0.297329
    26  C   -0.299076
    27  C   -0.483994
    28  H    0.145796
    29  H    0.149059
    30  H    0.149338
    31  H    0.153376
    32  H    0.151736
    33  H    0.145767
    34  H    0.183913
 Sum of Mulliken charges =  -0.00000

 Dipole moment (field-independent basis, Debye):
    X=             -0.7769    Y=              4.8905    Z=             -1.3294  Tot=              5.1271
 Quadrupole moment (field-independent basis, Debye-Ang):
   XX=            -92.8560   YY=            -94.1948   ZZ=            -91.2298
   XY=            -14.6473   XZ=              3.6769   YZ=              2.1616

 Normal termination of Gaussian 16 at Thu May  6 04:43:43 2021.
