 Gaussian 16, Revision A.03,
 Gaussian 16:  EM64L-G16RevA.03 25-Dec-2016

 -------------
 #p 6-31g* mp2
 -------------

 ------------------------------------------------------
 Input file generated by CHIRIPA (05-May-2021 14:51:13)
 ------------------------------------------------------
 Symbolic Z-matrix:
 Charge =  0 Multiplicity = 1

                         Standard orientation:
 ---------------------------------------------------------------------
 Center     Atomic      Atomic             Coordinates (Angstroms)
 Number     Number       Type             X           Y           Z
 ---------------------------------------------------------------------
      1          6           0       -4.138189    0.350959    0.231149
      2          6           0       -5.237862   -0.209125   -0.671631
      3          6           0       -6.511967    0.635708   -0.645022
      4          1           0       -4.515503    0.415664    1.260902
      5          1           0       -3.904692    1.378209   -0.081312
      6          1           0       -5.468244   -1.235502   -0.358438
      7          1           0       -4.857823   -0.272684   -1.699321
      8          1           0       -6.303612    1.657622   -0.978011
      9          1           0       -6.917502    0.689333    0.370491
     10          1           0       -7.284819    0.217278   -1.297307
     11          6           0       -2.858168   -0.482719    0.215243
     12          6           0       -1.758495    0.077365    1.118023
     13          6           0       -0.484390   -0.767468    1.091414
     14          1           0       -3.091665   -1.509969    0.527704
     15          1           0       -2.480854   -0.547424   -0.814511
     16          1           0       -2.138534    0.140924    2.145713
     17          1           0       -1.528113    1.103742    0.804830
     18          1           0       -0.078855   -0.821093    0.075901
     19          1           0       -0.692745   -1.789382    1.424403
     20          1           0        0.288462   -0.349038    1.743699
     21          6           0        3.254730   -0.571861   -0.565908
     22          6           0        3.666744   -1.849124    0.166777
     23          6           0        3.172334   -3.116575   -0.531020
     24          1           0        2.159781   -0.542221   -0.650484
     25          1           0        3.646744   -0.603339   -1.591935
     26          1           0        3.275242   -1.814619    1.191547
     27          1           0        4.760829   -1.875633    0.249788
     28          1           0        3.573769   -3.178155   -1.547710
     29          1           0        2.079741   -3.116794   -0.600601
     30          1           0        3.478033   -4.017765    0.009595
     31          6           0        3.741627    0.703621    0.119516
     32          6           0        3.329613    1.980884   -0.613169
     33          6           0        3.824023    3.248335    0.084628
     34          1           0        3.349612    0.735099    1.145543
     35          1           0        4.836576    0.673981    0.204093
     36          1           0        2.235528    2.007393   -0.696180
     37          1           0        3.721115    1.946379   -1.637939
     38          1           0        4.916616    3.248554    0.154209
     39          1           0        3.422588    3.309915    1.101319
     40          1           0        3.518324    4.149524   -0.455987
 ---------------------------------------------------------------------

 SCF Done:  E(RHF) =  -470.733162124     A.U. after   11 cycles
 E2 =    -0.1583103203D+01 EUMP2 =    -0.47231626532694D+03

 The electronic state is 1-A.
 Alpha  occ. eigenvalues --  -11.21690 -11.21635 -11.21575 -11.21515 -11.21463
 Alpha  occ. eigenvalues --  -11.21400 -11.21337 -11.21244 -11.21188 -11.21097
 Alpha  occ. eigenvalues --  -11.21054 -11.20994  -1.08493  -1.08363  -1.03599
 Alpha  occ. eigenvalues --   -1.03470  -0.96055  -0.95917  -0.87078  -0.86932
 Alpha  occ. eigenvalues --   -0.79672  -0.79529  -0.78308  -0.78174  -0.65172
 Alpha  occ. eigenvalues --   -0.64965  -0.61019  -0.60850  -0.59414  -0.59292
 Alpha  occ. eigenvalues --   -0.57659  -0.57535  -0.55439  -0.55123  -0.52743
 Alpha  occ. eigenvalues --   -0.52622  -0.52486  -0.52344  -0.50089  -0.49789
 Alpha  occ. eigenvalues --   -0.48022  -0.47833  -0.46780  -0.46527  -0.45909
 Alpha  occ. eigenvalues --   -0.45781  -0.45695  -0.45443  -0.43843  -0.43722
 Alpha virt. eigenvalues --    0.20588   0.22993   0.23909   0.24552   0.25831
 Alpha virt. eigenvalues --    0.26271   0.26832   0.27611   0.27941   0.29694
 Alpha virt. eigenvalues --    0.30700   0.31186   0.31752   0.31986   0.32099

 Mulliken charges:
               1
     1  C   -0.298354
     2  C   -0.299729
     3  C   -0.475752
     4  H    0.149783
     5  H    0.149654
     6  H    0.152024
     7  H    0.152069
     8  H    0.155255
     9  H    0.155227
    10  H    0.160402
    11  C   -0.298678
    12  C   -0.299739
    13  C   -0.481034
    14  H    0.149779
    15  H    0.149905
    16  H    0.152377
    17  H    0.151995
    18  H    0.158945
    19  H    0.156066
    20  H    0.160886
    21  C   -0.304437
    22  C   -0.299298
    23  C   -0.476735
    24  H    0.157073
    25  H    0.148576
    26  H    0.152640
    27  H    0.151383
    28  H    0.154631
    29  H    0.156347
    30  H    0.159879
    31  C   -0.298175
    32  C   -0.299664
    33  C   -0.475641
    34  H    0.149314
    35  H    0.149440
    36  H    0.151523
    37  H    0.151799
    38  H    0.155205
    39  H    0.155053
    40  H    0.160006
 Sum of Mulliken charges =  -0.00000

 Dipole moment (field-independent basis, Debye):
    X=             -0.0566    Y=             -0.0069    Z=              0.0110  Tot=              0.0581
 Quadrupole moment (field-independent basis, Debye-Ang):
   XX=            -85.0691   YY=            -85.8003   ZZ=            -84.0375
   XY=              0.4050   XZ=             -0.9279   YZ=             -0.7916

 Normal termination of Gaussian 16 at Wed May  5 21:34:33 2021.
