 Gaussian 16, Revision A.03,
 Gaussian 16:  EM64L-G16RevA.03 25-Dec-2016

 -------------
 #p 6-31g* mp2
 -------------

 ------------------------------------------------------
 Input file generated by CHIRIPA (05-May-2021 14:51:10)
 ------------------------------------------------------
 Symbolic Z-matrix:
 Charge =  0 Multiplicity = 1

                         Standard orientation:
 ---------------------------------------------------------------------
 Center     Atomic      Atomic             Coordinates (Angstroms)
 Number     Number       Type             X           Y           Z
 ---------------------------------------------------------------------
      1          6           0       -2.329047   -0.729787    0.720597
      2          6           0       -1.524276   -2.027464    0.800368
      3          6           0       -1.559403   -2.660265    2.191814
      4          1           0       -1.937433   -0.016949    1.459140
      5          1           0       -3.370469   -0.934281    1.005232
      6          1           0       -0.484991   -1.820856    0.514332
      7          1           0       -1.917728   -2.737227    0.061417
      8          1           0       -2.588544   -2.894658    2.482552
      9          1           0       -1.147668   -1.973080    2.938040
     10          1           0       -0.977743   -3.586732    2.226308
     11          6           0       -2.303524   -0.085259   -0.664199
     12          6           0       -3.108294    1.212418   -0.743970
     13          6           0       -3.073168    1.845219   -2.135417
     14          1           0       -1.262102    0.119235   -0.948834
     15          1           0       -2.695137   -0.798097   -1.402742
     16          1           0       -2.714843    1.922181   -0.005019
     17          1           0       -4.147579    1.005811   -0.457934
     18          1           0       -3.484903    1.158035   -2.881642
     19          1           0       -2.044026    2.079612   -2.426154
     20          1           0       -3.654828    2.771686   -2.169911
     21          6           0        2.823227   -0.011259   -0.416868
     22          6           0        2.208380   -1.241667   -1.084731
     23          6           0        3.235049   -2.069351   -1.858476
     24          1           0        3.298509    0.615381   -1.183925
     25          1           0        3.623636   -0.333501    0.263499
     26          1           0        1.408441   -0.917301   -1.762597
     27          1           0        1.734341   -1.865355   -0.316020
     28          1           0        4.028338   -2.421035   -1.190933
     29          1           0        3.700586   -1.467594   -2.645728
     30          1           0        2.774058   -2.944012   -2.327853
     31          6           0        1.809343    0.826305    0.360470
     32          6           0        2.424191    2.056713    1.028334
     33          6           0        1.397520    2.884397    1.802078
     34          1           0        1.008935    1.148546   -0.319897
     35          1           0        1.334062    0.199664    1.127526
     36          1           0        2.898230    2.680400    0.259622
     37          1           0        3.224130    1.732346    1.706198
     38          1           0        0.931985    2.282640    2.589331
     39          1           0        0.604233    3.236081    1.134535
     40          1           0        1.858512    3.759058    2.271455
 ---------------------------------------------------------------------

 SCF Done:  E(RHF) =  -470.732780570     A.U. after   11 cycles
 E2 =    -0.1584977340D+01 EUMP2 =    -0.47231775790972D+03

 The electronic state is 1-A.
 Alpha  occ. eigenvalues --  -11.21694 -11.21659 -11.21567 -11.21508 -11.21478
 Alpha  occ. eigenvalues --  -11.21441 -11.21325 -11.21266 -11.21163 -11.21114
 Alpha  occ. eigenvalues --  -11.21074 -11.21044  -1.08545  -1.08352  -1.03613
 Alpha  occ. eigenvalues --   -1.03485  -0.96061  -0.95939  -0.87077  -0.86957
 Alpha  occ. eigenvalues --   -0.79723  -0.79516  -0.78492  -0.78049  -0.65175
 Alpha  occ. eigenvalues --   -0.65004  -0.61023  -0.60882  -0.59447  -0.59288
 Alpha  occ. eigenvalues --   -0.57686  -0.57537  -0.55367  -0.55217  -0.52758
 Alpha  occ. eigenvalues --   -0.52632  -0.52494  -0.52360  -0.50007  -0.49904
 Alpha  occ. eigenvalues --   -0.48143  -0.47804  -0.46854  -0.46570  -0.46384
 Alpha  occ. eigenvalues --   -0.45704  -0.45607  -0.45053  -0.43862  -0.43726
 Alpha virt. eigenvalues --    0.19991   0.22571   0.23267   0.23802   0.25253
 Alpha virt. eigenvalues --    0.26557   0.26940   0.27934   0.28375   0.29940
 Alpha virt. eigenvalues --    0.30900   0.31368   0.31666   0.32048   0.32130

 Mulliken charges:
               1
     1  C   -0.297336
     2  C   -0.310284
     3  C   -0.475468
     4  H    0.149888
     5  H    0.149030
     6  H    0.163093
     7  H    0.151285
     8  H    0.155314
     9  H    0.154099
    10  H    0.159531
    11  C   -0.304583
    12  C   -0.300007
    13  C   -0.475435
    14  H    0.156085
    15  H    0.149097
    16  H    0.152105
    17  H    0.152010
    18  H    0.155291
    19  H    0.153785
    20  H    0.160283
    21  C   -0.298001
    22  C   -0.306363
    23  C   -0.475203
    24  H    0.149881
    25  H    0.149751
    26  H    0.153784
    27  H    0.156878
    28  H    0.155245
    29  H    0.155266
    30  H    0.160813
    31  C   -0.304533
    32  C   -0.299499
    33  C   -0.476054
    34  H    0.152807
    35  H    0.151652
    36  H    0.152381
    37  H    0.152423
    38  H    0.154973
    39  H    0.155080
    40  H    0.160939
 Sum of Mulliken charges =  -0.00000

 Dipole moment (field-independent basis, Debye):
    X=              0.0679    Y=              0.0073    Z=             -0.0132  Tot=              0.0696
 Quadrupole moment (field-independent basis, Debye-Ang):
   XX=            -84.4543   YY=            -85.0413   ZZ=            -85.3130
   XY=              0.7923   XZ=              0.7024   YZ=             -0.1090

 Normal termination of Gaussian 16 at Wed May  5 15:10:20 2021.
