 Gaussian 16, Revision A.03,
 Gaussian 16:  EM64L-G16RevA.03 25-Dec-2016

 -------------
 #p 6-31g* mp2
 -------------

 ------------------------------------------------------
 Input file generated by CHIRIPA (05-May-2021 14:55:23)
 ------------------------------------------------------
 Symbolic Z-matrix:
 Charge =  0 Multiplicity = 1

                         Standard orientation:
 ---------------------------------------------------------------------
 Center     Atomic      Atomic             Coordinates (Angstroms)
 Number     Number       Type             X           Y           Z
 ---------------------------------------------------------------------
      1          6           0        5.238601   -1.551618    0.323551
      2          6           0        3.995105   -1.884633    0.870668
      3          6           0        2.875577   -1.082736    0.629490
      4          6           0        3.036231    0.050020   -0.166967
      5          6           0        4.261854    0.408294   -0.726232
      6          6           0        5.367780   -0.408233   -0.471751
      7          1           0        6.102994   -2.180234    0.516071
      8          1           0        3.891828   -2.772007    1.488687
      9          1           0        1.901166   -1.317178    1.040558
     10          1           0        4.333668    1.299135   -1.338329
     11          1           0        6.332265   -0.147160   -0.897959
     12          7           0        1.858237    0.906697   -0.429333
     13          8           0        2.026061    1.899368   -1.134369
     14          8           0        0.789407    0.569267    0.075028
     15          6           0       -3.805314    0.802040    0.086795
     16          6           0       -2.671095    1.036669    1.085034
     17          6           0       -2.021680    2.412104    0.929361
     18          1           0       -3.415006    0.911366   -0.934309
     19          1           0       -4.565928    1.584430    0.216120
     20          1           0       -1.913507    0.253269    0.954801
     21          1           0       -3.064106    0.926582    2.103876
     22          1           0       -2.760211    3.206110    1.080120
     23          1           0       -1.603073    2.528971   -0.075483
     24          1           0       -1.213511    2.558678    1.652715
     25          6           0       -4.464455   -0.568642    0.229944
     26          6           0       -5.598673   -0.803273   -0.768295
     27          6           0       -6.248089   -2.178707   -0.612622
     28          1           0       -3.703840   -1.351033    0.100620
     29          1           0       -4.854763   -0.677970    1.251047
     30          1           0       -5.205662   -0.693185   -1.787137
     31          1           0       -6.356262   -0.019873   -0.638063
     32          1           0       -6.666695   -2.295575    0.392222
     33          1           0       -5.509559   -2.972712   -0.763380
     34          1           0       -7.056257   -2.325281   -1.335976
 ---------------------------------------------------------------------

 SCF Done:  E(RHF) =  -669.535994548     A.U. after   15 cycles
 E2 =    -0.2091591783D+01 EUMP2 =    -0.67162758633107D+03

 The electronic state is 1-A.
 Alpha  occ. eigenvalues --  -20.60999 -20.60994 -15.86028 -11.31334 -11.27895
 Alpha  occ. eigenvalues --  -11.27890 -11.27628 -11.26897 -11.26888 -11.20888
 Alpha  occ. eigenvalues --  -11.20527 -11.20485 -11.20161 -11.19980 -11.19190
 Alpha  occ. eigenvalues --   -1.60056  -1.39614  -1.19500  -1.08907  -1.07344
 Alpha  occ. eigenvalues --   -1.04894  -1.02343  -0.95756  -0.94802  -0.86295
 Alpha  occ. eigenvalues --   -0.85832  -0.82589  -0.78493  -0.77648  -0.77083
 Alpha  occ. eigenvalues --   -0.72264  -0.71368  -0.70609  -0.65161  -0.64898
 Alpha  occ. eigenvalues --   -0.63966  -0.62241  -0.59709  -0.58273  -0.56398
 Alpha  occ. eigenvalues --   -0.55401  -0.54094  -0.53226  -0.52983  -0.51510
 Alpha  occ. eigenvalues --   -0.51243  -0.49132  -0.49003  -0.48585  -0.46786
 Alpha  occ. eigenvalues --   -0.45534  -0.45023  -0.44636  -0.44482  -0.42624
 Alpha  occ. eigenvalues --   -0.37478  -0.36494
 Alpha virt. eigenvalues --    0.04884   0.11161   0.16385   0.21255   0.23866
 Alpha virt. eigenvalues --    0.25532   0.27167   0.27577   0.28127   0.28660
 Alpha virt. eigenvalues --    0.29173   0.30820   0.32117   0.32606   0.32956

 Mulliken charges:
               1
     1  C   -0.170552
     2  C   -0.218515
     3  C   -0.170635
     4  C    0.157265
     5  C   -0.170515
     6  C   -0.218578
     7  H    0.226149
     8  H    0.224008
     9  H    0.275493
    10  H    0.275976
    11  H    0.223958
    12  N    0.494869
    13  O   -0.458818
    14  O   -0.465167
    15  C   -0.298053
    16  C   -0.302015
    17  C   -0.467500
    18  H    0.151996
    19  H    0.145091
    20  H    0.165281
    21  H    0.141361
    22  H    0.141540
    23  H    0.168836
    24  H    0.157514
    25  C   -0.297108
    26  C   -0.298822
    27  C   -0.474942
    28  H    0.147818
    29  H    0.146416
    30  H    0.151748
    31  H    0.150752
    32  H    0.153658
    33  H    0.153436
    34  H    0.158055
 Sum of Mulliken charges =  -0.00000

 Dipole moment (field-independent basis, Debye):
    X=              4.5776    Y=             -3.0158    Z=              0.8225  Tot=              5.5431
 Quadrupole moment (field-independent basis, Debye-Ang):
   XX=            -69.6773   YY=            -94.7740   ZZ=            -93.9662
   XY=             -7.9437   XZ=              0.1722   YZ=             -1.5391

 Normal termination of Gaussian 16 at Wed May  5 17:34:06 2021.
