 Gaussian 16, Revision A.03,
 Gaussian 16:  EM64L-G16RevA.03 25-Dec-2016

 -------------
 #p 6-31g* mp2
 -------------

 ------------------------------------------------------
 Input file generated by CHIRIPA (05-May-2021 14:51:11)
 ------------------------------------------------------
 Symbolic Z-matrix:
 Charge =  0 Multiplicity = 1

                         Standard orientation:
 ---------------------------------------------------------------------
 Center     Atomic      Atomic             Coordinates (Angstroms)
 Number     Number       Type             X           Y           Z
 ---------------------------------------------------------------------
      1          6           0        4.104987   -0.683734    0.122868
      2          6           0        4.839151    0.605743   -0.246234
      3          6           0        6.337610    0.538434    0.050223
      4          1           0        4.260015   -0.893815    1.190004
      5          1           0        4.551555   -1.522487   -0.428915
      6          1           0        4.390430    1.442026    0.305034
      7          1           0        4.682199    0.812881   -1.312572
      8          1           0        6.805150   -0.276899   -0.511238
      9          1           0        6.511723    0.355821    1.115558
     10          1           0        6.842825    1.470606   -0.221206
     11          6           0        2.606109   -0.631873   -0.167656
     12          6           0        1.871944   -1.921350    0.201446
     13          6           0        0.373486   -1.854041   -0.095011
     14          1           0        2.159540    0.206880    0.384127
     15          1           0        2.451081   -0.421792   -1.234791
     16          1           0        2.028897   -2.128487    1.267784
     17          1           0        2.320666   -2.757633   -0.349822
     18          1           0        0.199372   -1.671428   -1.160346
     19          1           0       -0.094055   -1.038708    0.466451
     20          1           0       -0.131729   -2.786212    0.176418
     21          6           0       -3.910367    0.282199   -0.344388
     22          6           0       -4.545789   -0.828994    0.491958
     23          6           0       -5.654037   -1.571253   -0.255460
     24          1           0       -4.689540    0.994208   -0.649146
     25          1           0       -3.503935   -0.150991   -1.268808
     26          1           0       -4.949679   -0.394053    1.415166
     27          1           0       -3.764982   -1.538338    0.794922
     28          1           0       -5.261733   -2.031666   -1.167994
     29          1           0       -6.453162   -0.880880   -0.544225
     30          1           0       -6.094436   -2.361254    0.360825
     31          6           0       -2.800729    1.033408    0.389175
     32          6           0       -2.165306    2.144601   -0.447170
     33          6           0       -1.057059    2.886860    0.300248
     34          1           0       -3.207161    1.466598    1.313596
     35          1           0       -2.021556    0.321399    0.693934
     36          1           0       -2.946114    2.853945   -0.750133
     37          1           0       -1.761417    1.709660   -1.370379
     38          1           0       -0.257934    2.196486    0.589013
     39          1           0       -1.449362    3.347273    1.212782
     40          1           0       -0.616659    3.676861   -0.316036
 ---------------------------------------------------------------------

 SCF Done:  E(RHF) =  -470.733341200     A.U. after   11 cycles
 E2 =    -0.1583127825D+01 EUMP2 =    -0.47231646902432D+03

 The electronic state is 1-A.
 Alpha  occ. eigenvalues --  -11.21672 -11.21619 -11.21558 -11.21544 -11.21457
 Alpha  occ. eigenvalues --  -11.21392 -11.21339 -11.21278 -11.21166 -11.21083
 Alpha  occ. eigenvalues --  -11.21060 -11.21027  -1.08479  -1.08376  -1.03581
 Alpha  occ. eigenvalues --   -1.03484  -0.96039  -0.95932  -0.87060  -0.86947
 Alpha  occ. eigenvalues --   -0.79656  -0.79539  -0.78304  -0.78178  -0.65152
 Alpha  occ. eigenvalues --   -0.64978  -0.61018  -0.60847  -0.59400  -0.59301
 Alpha  occ. eigenvalues --   -0.57659  -0.57537  -0.55407  -0.55157  -0.52728
 Alpha  occ. eigenvalues --   -0.52634  -0.52507  -0.52321  -0.50070  -0.49796
 Alpha  occ. eigenvalues --   -0.48034  -0.47831  -0.46787  -0.46531  -0.45932
 Alpha  occ. eigenvalues --   -0.45783  -0.45694  -0.45401  -0.43834  -0.43736
 Alpha virt. eigenvalues --    0.20252   0.22889   0.23694   0.24875   0.25599
 Alpha virt. eigenvalues --    0.26015   0.26971   0.27422   0.28531   0.29338
 Alpha virt. eigenvalues --    0.30490   0.31538   0.31673   0.31781   0.32036

 Mulliken charges:
               1
     1  C   -0.298353
     2  C   -0.299781
     3  C   -0.475753
     4  H    0.149812
     5  H    0.149704
     6  H    0.152335
     7  H    0.152009
     8  H    0.155156
     9  H    0.155240
    10  H    0.160409
    11  C   -0.300127
    12  C   -0.299320
    13  C   -0.482306
    14  H    0.150821
    15  H    0.149883
    16  H    0.152284
    17  H    0.152346
    18  H    0.155231
    19  H    0.160506
    20  H    0.160620
    21  C   -0.297686
    22  C   -0.300015
    23  C   -0.475697
    24  H    0.149271
    25  H    0.149927
    26  H    0.151555
    27  H    0.152691
    28  H    0.155250
    29  H    0.154976
    30  H    0.160014
    31  C   -0.305552
    32  C   -0.299182
    33  C   -0.477507
    34  H    0.149024
    35  H    0.156962
    36  H    0.151799
    37  H    0.152407
    38  H    0.155628
    39  H    0.154990
    40  H    0.160431
 Sum of Mulliken charges =  -0.00000

 Dipole moment (field-independent basis, Debye):
    X=              0.0340    Y=             -0.0188    Z=             -0.0060  Tot=              0.0394
 Quadrupole moment (field-independent basis, Debye-Ang):
   XX=            -86.2039   YY=            -84.6425   ZZ=            -83.9500
   XY=             -1.1454   XZ=             -0.9015   YZ=              0.3029

 Normal termination of Gaussian 16 at Thu May  6 03:51:46 2021.
