 Gaussian 16, Revision A.03,
 Gaussian 16:  EM64L-G16RevA.03 25-Dec-2016

 -------------
 #p 6-31g* mp2
 -------------

 ------------------------------------------------------
 Input file generated by CHIRIPA (05-May-2021 14:53:13)
 ------------------------------------------------------
 Symbolic Z-matrix:
 Charge =  0 Multiplicity = 1

                         Standard orientation:
 ---------------------------------------------------------------------
 Center     Atomic      Atomic             Coordinates (Angstroms)
 Number     Number       Type             X           Y           Z
 ---------------------------------------------------------------------
      1          6           0        4.405151   -0.497330   -0.231262
      2          6           0        2.941570   -0.154222    0.048371
      3          6           0        1.975782   -1.224796   -0.460467
      4          1           0        4.543071   -0.633478   -1.312644
      5          1           0        4.644632   -1.461502    0.238221
      6          1           0        2.705301    0.809682   -0.420332
      7          1           0        2.807159   -0.018686    1.129194
      8          1           0        2.183111   -2.188459    0.015946
      9          1           0        2.080674   -1.355384   -1.542384
     10          1           0        0.935054   -0.959283   -0.250112
     11          6           0        5.382793    0.563398    0.271532
     12          6           0        6.846373    0.220289   -0.008101
     13          6           0        7.812162    1.290864    0.500737
     14          1           0        5.143311    1.527570   -0.197952
     15          1           0        5.244873    0.699546    1.352914
     16          1           0        6.980784    0.084754   -1.088924
     17          1           0        7.082642   -0.743615    0.460602
     18          1           0        7.707269    1.421452    1.582654
     19          1           0        7.604832    2.254527    0.024324
     20          1           0        8.852889    1.025350    0.290382
     21          6           0       -5.705389    1.632106    0.258899
     22          6           0       -5.558382    0.582488    1.171704
     23          6           0       -4.519326   -0.341979    1.029336
     24          6           0       -3.641473   -0.186089   -0.042281
     25          6           0       -3.761639    0.849001   -0.968260
     26          6           0       -4.808130    1.761784   -0.806292
     27          1           0       -6.515440    2.345717    0.377106
     28          1           0       -6.253715    0.479311    1.999901
     29          1           0       -4.382312   -1.163973    1.721415
     30          1           0       -3.052799    0.925844   -1.783771
     31          1           0       -4.919865    2.575944   -1.516717
     32          7           0       -2.537536   -1.158597   -0.203374
     33          8           0       -1.777400   -0.999296   -1.155977
     34          8           0       -2.453308   -2.061733    0.626015
 ---------------------------------------------------------------------

 SCF Done:  E(RHF) =  -669.536091153     A.U. after   15 cycles
 E2 =    -0.2090795561D+01 EUMP2 =    -0.67162688671325D+03

 The electronic state is 1-A.
 Alpha  occ. eigenvalues --  -20.60950 -20.60939 -15.85972 -11.31297 -11.27859
 Alpha  occ. eigenvalues --  -11.27856 -11.27597 -11.26865 -11.26856 -11.21098
 Alpha  occ. eigenvalues --  -11.20764 -11.20671 -11.20579 -11.20519 -11.19450
 Alpha  occ. eigenvalues --   -1.60006  -1.39561  -1.19464  -1.08868  -1.07680
 Alpha  occ. eigenvalues --   -1.04860  -1.02683  -0.95710  -0.95093  -0.86261
 Alpha  occ. eigenvalues --   -0.86098  -0.82541  -0.78774  -0.77596  -0.77470
 Alpha  occ. eigenvalues --   -0.72185  -0.71323  -0.70572  -0.65118  -0.64862
 Alpha  occ. eigenvalues --   -0.64324  -0.62207  -0.60094  -0.58517  -0.56700
 Alpha  occ. eigenvalues --   -0.55364  -0.54400  -0.53194  -0.52952  -0.51741
 Alpha  occ. eigenvalues --   -0.51528  -0.49064  -0.48946  -0.48915  -0.47069
 Alpha  occ. eigenvalues --   -0.45848  -0.45019  -0.44958  -0.44926  -0.42870
 Alpha  occ. eigenvalues --   -0.37442  -0.36461
 Alpha virt. eigenvalues --    0.04901   0.11194   0.16394   0.21332   0.23554
 Alpha virt. eigenvalues --    0.25228   0.27249   0.27344   0.28168   0.28215
 Alpha virt. eigenvalues --    0.28987   0.30873   0.32212   0.32420   0.32465

 Mulliken charges:
               1
     1  C   -0.297167
     2  C   -0.300480
     3  C   -0.478465
     4  H    0.148434
     5  H    0.148823
     6  H    0.147319
     7  H    0.148123
     8  H    0.152136
     9  H    0.152403
    10  H    0.179728
    11  C   -0.297322
    12  C   -0.299046
    13  C   -0.475225
    14  H    0.147526
    15  H    0.148203
    16  H    0.151298
    17  H    0.151605
    18  H    0.154366
    19  H    0.154062
    20  H    0.158823
    21  C   -0.170553
    22  C   -0.218585
    23  C   -0.170770
    24  C    0.158379
    25  C   -0.170790
    26  C   -0.218556
    27  H    0.226015
    28  H    0.223837
    29  H    0.275901
    30  H    0.275933
    31  H    0.223852
    32  N    0.487529
    33  O   -0.458646
    34  O   -0.458687
 Sum of Mulliken charges =  -0.00000

 Dipole moment (field-independent basis, Debye):
    X=             -4.2455    Y=              3.3700    Z=              0.5468  Tot=              5.4480
 Quadrupole moment (field-independent basis, Debye-Ang):
   XX=            -68.3230   YY=            -95.6651   ZZ=            -91.0628
   XY=            -11.9302   XZ=             -3.7329   YZ=             -3.2711

 Normal termination of Gaussian 16 at Thu May  6 15:21:05 2021.
