 Gaussian 16, Revision A.03,
 Gaussian 16:  EM64L-G16RevA.03 25-Dec-2016

 -------------
 #p 6-31g* mp2
 -------------

 ------------------------------------------------------
 Input file generated by CHIRIPA (05-May-2021 14:51:09)
 ------------------------------------------------------
 Symbolic Z-matrix:
 Charge =  0 Multiplicity = 1

                         Standard orientation:
 ---------------------------------------------------------------------
 Center     Atomic      Atomic             Coordinates (Angstroms)
 Number     Number       Type             X           Y           Z
 ---------------------------------------------------------------------
      1          6           0       -3.393739   -0.385294    0.003109
      2          6           0       -2.393060    0.767648   -0.082632
      3          6           0       -0.940008    0.293201   -0.046132
      4          1           0       -3.214124   -0.950277    0.928029
      5          1           0       -3.213183   -1.080889   -0.828120
      6          1           0       -2.576347    1.461580    0.747717
      7          1           0       -2.575202    1.330067   -1.007362
      8          1           0       -0.734131   -0.382135   -0.882874
      9          1           0       -0.735282   -0.249874    0.882177
     10          1           0       -0.241605    1.133549   -0.108647
     11          6           0       -4.850575    0.073083   -0.032189
     12          6           0       -5.851254   -1.079859    0.053552
     13          6           0       -7.304306   -0.605412    0.017052
     14          1           0       -5.031131    0.768678    0.799040
     15          1           0       -5.030190    0.638066   -0.957109
     16          1           0       -5.669112   -1.642278    0.978282
     17          1           0       -5.667967   -1.773792   -0.776798
     18          1           0       -7.509032   -0.062337   -0.911257
     19          1           0       -7.510183    0.069923    0.853794
     20          1           0       -8.002709   -1.445761    0.079566
     21          6           0        3.727123    0.690777    0.390715
     22          6           0        3.204785    1.807477   -0.513790
     23          6           0        2.416530    2.869548    0.253316
     24          1           0        2.879729    0.219024    0.906775
     25          1           0        4.364130    1.128711    1.171630
     26          1           0        2.570069    1.367416   -1.293596
     27          1           0        4.053503    2.276499   -1.027904
     28          1           0        3.043572    3.335561    1.020291
     29          1           0        1.551710    2.421312    0.753090
     30          1           0        2.052469    3.658216   -0.412508
     31          6           0        4.517191   -0.378566   -0.361634
     32          6           0        5.039529   -1.495266    0.542871
     33          6           0        5.827784   -2.557337   -0.224237
     34          1           0        3.880184   -0.816500   -1.142550
     35          1           0        5.364585    0.093186   -0.877695
     36          1           0        4.190812   -1.964289    1.056984
     37          1           0        5.674245   -1.055206    1.322677
     38          1           0        6.692604   -2.109101   -0.724009
     39          1           0        5.200741   -3.023349   -0.991211
     40          1           0        6.191844   -3.346004    0.441589
 ---------------------------------------------------------------------

 SCF Done:  E(RHF) =  -470.733267773     A.U. after   11 cycles
 E2 =    -0.1582545459D+01 EUMP2 =    -0.47231581323194D+03

 The electronic state is 1-A.
 Alpha  occ. eigenvalues --  -11.21636 -11.21616 -11.21566 -11.21563 -11.21426
 Alpha  occ. eigenvalues --  -11.21366 -11.21357 -11.21296 -11.21107 -11.21082
 Alpha  occ. eigenvalues --  -11.21044 -11.21043  -1.08454  -1.08388  -1.03567
 Alpha  occ. eigenvalues --   -1.03489  -0.96029  -0.95932  -0.87046  -0.86950
 Alpha  occ. eigenvalues --   -0.79628  -0.79552  -0.78264  -0.78199  -0.65083
 Alpha  occ. eigenvalues --   -0.65028  -0.60979  -0.60947  -0.59361  -0.59305
 Alpha  occ. eigenvalues --   -0.57653  -0.57534  -0.55300  -0.55248  -0.52717
 Alpha  occ. eigenvalues --   -0.52646  -0.52463  -0.52307  -0.49962  -0.49868
 Alpha  occ. eigenvalues --   -0.47962  -0.47840  -0.46671  -0.46568  -0.45809
 Alpha  occ. eigenvalues --   -0.45743  -0.45733  -0.45656  -0.43789  -0.43742
 Alpha virt. eigenvalues --    0.21230   0.22992   0.23657   0.24989   0.26335
 Alpha virt. eigenvalues --    0.26599   0.27276   0.27485   0.27868   0.28826
 Alpha virt. eigenvalues --    0.30781   0.31296   0.31629   0.31853   0.31989

 Mulliken charges:
               1
     1  C   -0.298507
     2  C   -0.299131
     3  C   -0.484131
     4  H    0.149628
     5  H    0.149494
     6  H    0.152190
     7  H    0.152180
     8  H    0.154952
     9  H    0.154650
    10  H    0.168967
    11  C   -0.298273
    12  C   -0.299655
    13  C   -0.475720
    14  H    0.149626
    15  H    0.149709
    16  H    0.151954
    17  H    0.151921
    18  H    0.155209
    19  H    0.155231
    20  H    0.160292
    21  C   -0.299009
    22  C   -0.300359
    23  C   -0.480152
    24  H    0.151304
    25  H    0.149140
    26  H    0.152984
    27  H    0.151856
    28  H    0.155485
    29  H    0.158615
    30  H    0.159818
    31  C   -0.298277
    32  C   -0.299663
    33  C   -0.475678
    34  H    0.149764
    35  H    0.149363
    36  H    0.152099
    37  H    0.151763
    38  H    0.155073
    39  H    0.155166
    40  H    0.160120
 Sum of Mulliken charges =  -0.00000

 Dipole moment (field-independent basis, Debye):
    X=             -0.0184    Y=              0.0027    Z=             -0.0001  Tot=              0.0186
 Quadrupole moment (field-independent basis, Debye-Ang):
   XX=            -85.6592   YY=            -85.3104   ZZ=            -83.8774
   XY=              1.1367   XZ=              0.3685   YZ=             -0.1840

 Normal termination of Gaussian 16 at Thu May  6 05:18:28 2021.
