 Gaussian 16, Revision A.03,
 Gaussian 16:  EM64L-G16RevA.03 25-Dec-2016

 -------------
 #p 6-31g* mp2
 -------------

 ------------------------------------------------------
 Input file generated by CHIRIPA (05-May-2021 14:51:12)
 ------------------------------------------------------
 Symbolic Z-matrix:
 Charge =  0 Multiplicity = 1

                         Standard orientation:
 ---------------------------------------------------------------------
 Center     Atomic      Atomic             Coordinates (Angstroms)
 Number     Number       Type             X           Y           Z
 ---------------------------------------------------------------------
      1          6           0        3.427906   -0.358411    0.550862
      2          6           0        2.224629    0.533822    0.244224
      3          6           0        0.992088    0.169272    1.072318
      4          1           0        3.156129   -1.406452    0.364606
      5          1           0        3.668248   -0.283168    1.620427
      6          1           0        1.987489    0.457986   -0.824715
      7          1           0        2.499362    1.579879    0.431049
      8          1           0        1.205211    0.262985    2.142083
      9          1           0        0.690430   -0.865283    0.879185
     10          1           0        0.143739    0.819553    0.837163
     11          6           0        4.667802   -0.006282   -0.269133
     12          6           0        5.871080   -0.898515    0.037506
     13          6           0        7.103621   -0.533964   -0.790589
     14          1           0        4.427460   -0.081525   -1.338698
     15          1           0        4.939580    1.041759   -0.082876
     16          1           0        5.596347   -1.944572   -0.149319
     17          1           0        6.108219   -0.822678    1.106444
     18          1           0        7.405278    0.500590   -0.597455
     19          1           0        6.890497   -0.627678   -1.860354
     20          1           0        7.951970   -1.184246   -0.555434
     21          6           0       -3.968299    0.927347   -0.289447
     22          6           0       -2.586580    1.473538    0.071817
     23          6           0       -2.442847    2.965284   -0.231223
     24          1           0       -4.158748    1.106202   -1.356539
     25          1           0       -4.733331    1.490097    0.263215
     26          1           0       -1.824296    0.909009   -0.480310
     27          1           0       -2.399319    1.293191    1.138131
     28          1           0       -3.181692    3.545526    0.330939
     29          1           0       -2.603401    3.159160   -1.296697
     30          1           0       -1.447577    3.334886    0.034655
     31          6           0       -4.127409   -0.562654    0.007716
     32          6           0       -5.509128   -1.108845   -0.353547
     33          6           0       -5.652862   -2.600590   -0.050506
     34          1           0       -3.362378   -1.125405   -0.544945
     35          1           0       -3.936960   -0.741509    1.074809
     36          1           0       -5.696389   -0.928498   -1.419860
     37          1           0       -6.271413   -0.544316    0.198581
     38          1           0       -5.492307   -2.794467    1.014968
     39          1           0       -4.914017   -3.180833   -0.612669
     40          1           0       -6.648132   -2.970193   -0.316384
 ---------------------------------------------------------------------

 SCF Done:  E(RHF) =  -470.732713559     A.U. after   11 cycles
 E2 =    -0.1582831035D+01 EUMP2 =    -0.47231554459402D+03

 The electronic state is 1-A.
 Alpha  occ. eigenvalues --  -11.21596 -11.21595 -11.21584 -11.21555 -11.21400
 Alpha  occ. eigenvalues --  -11.21375 -11.21340 -11.21314 -11.21103 -11.21067
 Alpha  occ. eigenvalues --  -11.21058 -11.20915  -1.08439  -1.08392  -1.03566
 Alpha  occ. eigenvalues --   -1.03468  -0.96009  -0.95916  -0.87021  -0.86938
 Alpha  occ. eigenvalues --   -0.79696  -0.79481  -0.78260  -0.78201  -0.65069
 Alpha  occ. eigenvalues --   -0.65023  -0.60958  -0.60870  -0.59634  -0.59113
 Alpha  occ. eigenvalues --   -0.57763  -0.57359  -0.55276  -0.55217  -0.52745
 Alpha  occ. eigenvalues --   -0.52584  -0.52406  -0.52353  -0.49935  -0.49869
 Alpha  occ. eigenvalues --   -0.48035  -0.47740  -0.46647  -0.46577  -0.45786
 Alpha  occ. eigenvalues --   -0.45751  -0.45709  -0.45675  -0.43835  -0.43626
 Alpha virt. eigenvalues --    0.22021   0.23057   0.23447   0.24975   0.26486
 Alpha virt. eigenvalues --    0.26682   0.26815   0.27328   0.27789   0.28952
 Alpha virt. eigenvalues --    0.30629   0.31290   0.31448   0.31693   0.32024

 Mulliken charges:
               1
     1  C   -0.298267
     2  C   -0.299221
     3  C   -0.485348
     4  H    0.149479
     5  H    0.149471
     6  H    0.151128
     7  H    0.151354
     8  H    0.153960
     9  H    0.154214
    10  H    0.173420
    11  C   -0.298171
    12  C   -0.299599
    13  C   -0.475673
    14  H    0.149333
    15  H    0.149546
    16  H    0.151875
    17  H    0.151897
    18  H    0.155147
    19  H    0.155113
    20  H    0.160185
    21  C   -0.297117
    22  C   -0.304513
    23  C   -0.477496
    24  H    0.149477
    25  H    0.149420
    26  H    0.154781
    27  H    0.153485
    28  H    0.155665
    29  H    0.155523
    30  H    0.160715
    31  C   -0.298348
    32  C   -0.299673
    33  C   -0.475679
    34  H    0.149527
    35  H    0.150021
    36  H    0.151850
    37  H    0.151923
    38  H    0.155271
    39  H    0.155106
    40  H    0.160219
 Sum of Mulliken charges =  -0.00000

 Dipole moment (field-independent basis, Debye):
    X=             -0.0459    Y=              0.0110    Z=              0.0009  Tot=              0.0472
 Quadrupole moment (field-independent basis, Debye-Ang):
   XX=            -85.7345   YY=            -85.4941   ZZ=            -83.6650
   XY=             -0.2978   XZ=              0.4163   YZ=              0.9681

 Normal termination of Gaussian 16 at Wed May  5 18:19:17 2021.
