 Gaussian 16, Revision A.03,
 Gaussian 16:  EM64L-G16RevA.03 25-Dec-2016

 -------------
 #p 6-31g* mp2
 -------------

 ------------------------------------------------------
 Input file generated by CHIRIPA (05-May-2021 14:55:24)
 ------------------------------------------------------
 Symbolic Z-matrix:
 Charge =  0 Multiplicity = 1

                         Standard orientation:
 ---------------------------------------------------------------------
 Center     Atomic      Atomic             Coordinates (Angstroms)
 Number     Number       Type             X           Y           Z
 ---------------------------------------------------------------------
      1          6           0        0.804953   -1.549636    0.604296
      2          6           0        1.678392   -1.162905    1.626090
      3          6           0        2.826089   -0.419318    1.335543
      4          6           0        3.070650   -0.078170    0.006220
      5          6           0        2.219619   -0.448558   -1.033899
      6          6           0        1.077873   -1.191859   -0.720103
      7          1           0       -0.084294   -2.127161    0.839030
      8          1           0        1.468969   -1.439343    2.655541
      9          1           0        3.519217   -0.106758    2.107099
     10          1           0        2.455042   -0.158067   -2.050564
     11          1           0        0.401324   -1.490819   -1.515684
     12          7           0        4.282515    0.708881   -0.313676
     13          8           0        4.475465    0.996832   -1.492867
     14          8           0        5.016478    1.022917    0.620838
     15          6           0       -3.966989   -0.424167    0.071470
     16          6           0       -3.186088   -1.564834   -0.582027
     17          6           0       -3.782896   -2.939506   -0.278897
     18          1           0       -3.993893   -0.582234    1.158317
     19          1           0       -5.009220   -0.456953   -0.275049
     20          1           0       -2.145310   -1.529067   -0.235446
     21          1           0       -3.160876   -1.403931   -1.667426
     22          1           0       -4.814615   -2.999738   -0.640187
     23          1           0       -3.793278   -3.125586    0.799930
     24          1           0       -3.209145   -3.740287   -0.755782
     25          6           0       -3.382566    0.956354   -0.222365
     26          6           0       -4.163467    2.097020    0.431134
     27          6           0       -3.566658    3.471692    0.128003
     28          1           0       -2.340336    0.989138    0.124154
     29          1           0       -3.355662    1.114420   -1.309212
     30          1           0       -4.188679    1.936117    1.516532
     31          1           0       -5.204245    2.061253    0.084552
     32          1           0       -3.556277    3.657772   -0.950824
     33          1           0       -2.534940    3.531924    0.489292
     34          1           0       -4.140410    4.272473    0.604888
 ---------------------------------------------------------------------

 SCF Done:  E(RHF) =  -669.535409642     A.U. after   15 cycles
 E2 =    -0.2091831818D+01 EUMP2 =    -0.67162724145993D+03

 The electronic state is 1-A.
 Alpha  occ. eigenvalues --  -20.60768 -20.60762 -15.85821 -11.31197 -11.27761
 Alpha  occ. eigenvalues --  -11.27751 -11.27488 -11.26782 -11.26759 -11.22697
 Alpha  occ. eigenvalues --  -11.22188 -11.22081 -11.22070 -11.21978 -11.21412
 Alpha  occ. eigenvalues --   -1.59843  -1.39396  -1.19367  -1.09180  -1.08760
 Alpha  occ. eigenvalues --   -1.04767  -1.04265  -0.96680  -0.95597  -0.87697
 Alpha  occ. eigenvalues --   -0.86165  -0.82427  -0.80371  -0.78954  -0.77467
 Alpha  occ. eigenvalues --   -0.72039  -0.71166  -0.70504  -0.65825  -0.65016
 Alpha  occ. eigenvalues --   -0.64763  -0.62119  -0.61661  -0.60083  -0.58290
 Alpha  occ. eigenvalues --   -0.55967  -0.55270  -0.53392  -0.53111  -0.53081
 Alpha  occ. eigenvalues --   -0.52853  -0.50621  -0.48799  -0.48795  -0.48652
 Alpha  occ. eigenvalues --   -0.47409  -0.46490  -0.46391  -0.44799  -0.44500
 Alpha  occ. eigenvalues --   -0.37333  -0.36366
 Alpha virt. eigenvalues --    0.05037   0.11220   0.16471   0.19817   0.22615
 Alpha virt. eigenvalues --    0.23791   0.25671   0.25987   0.27245   0.27655
 Alpha virt. eigenvalues --    0.29040   0.30144   0.30960   0.31376   0.31737

 Mulliken charges:
               1
     1  C   -0.173734
     2  C   -0.219032
     3  C   -0.171109
     4  C    0.158517
     5  C   -0.171280
     6  C   -0.218643
     7  H    0.228507
     8  H    0.223430
     9  H    0.275587
    10  H    0.275757
    11  H    0.225764
    12  N    0.488076
    13  O   -0.460290
    14  O   -0.460409
    15  C   -0.297633
    16  C   -0.306580
    17  C   -0.476656
    18  H    0.149506
    19  H    0.152942
    20  H    0.144275
    21  H    0.153970
    22  H    0.160785
    23  H    0.154889
    24  H    0.159004
    25  C   -0.300166
    26  C   -0.300102
    27  C   -0.476317
    28  H    0.150912
    29  H    0.150327
    30  H    0.151967
    31  H    0.152841
    32  H    0.156131
    33  H    0.156858
    34  H    0.161905
 Sum of Mulliken charges =  -0.00000

 Dipole moment (field-independent basis, Debye):
    X=             -4.4086    Y=             -2.6997    Z=              1.1126  Tot=              5.2879
 Quadrupole moment (field-independent basis, Debye-Ang):
   XX=           -120.5233   YY=            -96.1007   ZZ=            -89.3549
   XY=             -8.6410   XZ=              5.4364   YZ=              0.0415

 Normal termination of Gaussian 16 at Thu May  6 17:42:26 2021.
