 Gaussian 16, Revision A.03,
 Gaussian 16:  EM64L-G16RevA.03 25-Dec-2016

 -------------
 #p 6-31g* mp2
 -------------

 ------------------------------------------------------
 Input file generated by CHIRIPA (05-May-2021 14:57:21)
 ------------------------------------------------------
 Symbolic Z-matrix:
 Charge =  0 Multiplicity = 1

                         Standard orientation:
 ---------------------------------------------------------------------
 Center     Atomic      Atomic             Coordinates (Angstroms)
 Number     Number       Type             X           Y           Z
 ---------------------------------------------------------------------
      1          6           0       -1.793577   -1.649606    1.612504
      2          6           0       -3.173055   -1.578052    1.832601
      3          6           0       -3.979889   -0.770563    1.025427
      4          6           0       -3.371281   -0.044819    0.002597
      5          6           0       -1.999764   -0.095080   -0.241753
      6          6           0       -1.212359   -0.909196    0.577854
      7          1           0       -1.174356   -2.279457    2.244365
      8          1           0       -3.627167   -2.151959    2.635382
      9          1           0       -5.050385   -0.696612    1.173705
     10          1           0       -1.575858    0.488659   -1.049819
     11          1           0       -0.141306   -0.962821    0.404606
     12          7           0       -4.215155    0.813541   -0.858503
     13          8           0       -3.654677    1.443095   -1.753021
     14          8           0       -5.421084    0.840518   -0.622609
     15          6           0        3.059938    2.364904    1.116388
     16          6           0        4.175011    1.539397    1.294349
     17          6           0        4.281035    0.330068    0.600931
     18          6           0        3.248853   -0.024333   -0.266416
     19          6           0        2.125321    0.776597   -0.465100
     20          6           0        2.040449    1.981545    0.238778
     21          1           0        2.985792    3.302639    1.659114
     22          1           0        4.968281    1.834571    1.975262
     23          1           0        5.133207   -0.328021    0.719841
     24          1           0        1.350571    0.455505   -1.150725
     25          1           0        1.173306    2.620651    0.098594
     26          7           0        3.349900   -1.302277   -1.006044
     27          8           0        2.427020   -1.591837   -1.764388
     28          8           0        4.350066   -1.990172   -0.813415
 ---------------------------------------------------------------------

 SCF Done:  E(RHF) =  -868.337668174     A.U. after   16 cycles
 E2 =    -0.2600877163D+01 EUMP2 =    -0.87093854533763D+03

 The electronic state is 1-A.
 Alpha  occ. eigenvalues --  -20.61586 -20.61568 -20.60917 -20.60906 -15.86619
 Alpha  occ. eigenvalues --  -15.85965 -11.32012 -11.31307 -11.28594 -11.28486
 Alpha  occ. eigenvalues --  -11.28183 -11.27900 -11.27824 -11.27524 -11.27517
 Alpha  occ. eigenvalues --  -11.27496 -11.26835 -11.26786  -1.60650  -1.59989
 Alpha  occ. eigenvalues --   -1.40204  -1.39545  -1.20149  -1.19448  -1.09518
 Alpha  occ. eigenvalues --   -1.08835  -1.05549  -1.04849  -0.96363  -0.95688
 Alpha  occ. eigenvalues --   -0.86936  -0.86237  -0.83186  -0.82529  -0.78275
 Alpha  occ. eigenvalues --   -0.77582  -0.72822  -0.72183  -0.71984  -0.71311
 Alpha  occ. eigenvalues --   -0.71230  -0.70547  -0.65780  -0.65537  -0.65095
 Alpha  occ. eigenvalues --   -0.64832  -0.62973  -0.62117  -0.55983  -0.55317
 Alpha  occ. eigenvalues --   -0.53903  -0.53613  -0.53164  -0.52886  -0.49598
 Alpha  occ. eigenvalues --   -0.49580  -0.48946  -0.48932  -0.45593  -0.44957
 Alpha  occ. eigenvalues --   -0.38090  -0.37408  -0.37158  -0.36411
 Alpha virt. eigenvalues --    0.04230   0.04947   0.10362   0.11213   0.15758
 Alpha virt. eigenvalues --    0.16493   0.19298   0.21893   0.24724   0.27280
 Alpha virt. eigenvalues --    0.27825   0.29315   0.30475   0.31085   0.31787

 Mulliken charges:
               1
     1  C   -0.171816
     2  C   -0.218054
     3  C   -0.171468
     4  C    0.159491
     5  C   -0.176518
     6  C   -0.217752
     7  H    0.227965
     8  H    0.224033
     9  H    0.275695
    10  H    0.268622
    11  H    0.229210
    12  N    0.488319
    13  O   -0.462393
    14  O   -0.459505
    15  C   -0.170973
    16  C   -0.217406
    17  C   -0.171199
    18  C    0.159327
    19  C   -0.183674
    20  C   -0.217213
    21  H    0.229659
    22  H    0.226536
    23  H    0.277496
    24  H    0.273391
    25  H    0.229221
    26  N    0.487694
    27  O   -0.462282
    28  O   -0.456405
 Sum of Mulliken charges =  -0.00000

 Dipole moment (field-independent basis, Debye):
    X=              2.8423    Y=              1.5131    Z=              5.7805  Tot=              6.6168
 Quadrupole moment (field-independent basis, Debye-Ang):
   XX=           -119.4157   YY=           -105.0198   ZZ=           -104.9798
   XY=             25.7137   XZ=             -1.7229   YZ=             -2.5976

 Normal termination of Gaussian 16 at Thu May  6 03:17:37 2021.
