 Gaussian 16, Revision A.03,
 Gaussian 16:  EM64L-G16RevA.03 25-Dec-2016

 -------------
 #p 6-31g* mp2
 -------------

 ------------------------------------------------------
 Input file generated by CHIRIPA (05-May-2021 14:57:23)
 ------------------------------------------------------
 Symbolic Z-matrix:
 Charge =  0 Multiplicity = 1

                         Standard orientation:
 ---------------------------------------------------------------------
 Center     Atomic      Atomic             Coordinates (Angstroms)
 Number     Number       Type             X           Y           Z
 ---------------------------------------------------------------------
      1          6           0        1.191069   -2.021008    0.050085
      2          6           0        1.762238   -1.640001   -1.168570
      3          6           0        2.844813   -0.755914   -1.199716
      4          6           0        3.333188   -0.269957    0.012153
      5          6           0        2.785728   -0.630731    1.242364
      6          6           0        1.703733   -1.516047    1.249548
      7          1           0        0.350325   -2.708265    0.064973
      8          1           0        1.366169   -2.030574   -2.101644
      9          1           0        3.306061   -0.444335   -2.129010
     10          1           0        3.202384   -0.224677    2.156112
     11          1           0        1.262154   -1.810200    2.197455
     12          7           0        4.478954    0.666637   -0.008136
     13          8           0        4.890778    1.080657    1.073356
     14          8           0        4.943486    0.968985   -1.105147
     15          6           0       -1.336772    2.184366   -0.043939
     16          6           0       -2.682929    2.563751   -0.022779
     17          6           0       -3.692852    1.597133   -0.006887
     18          6           0       -3.319102    0.254164   -0.012748
     19          6           0       -1.986783   -0.155444   -0.033690
     20          6           0       -0.993600    0.828370   -0.049318
     21          1           0       -0.558741    2.941938   -0.056182
     22          1           0       -2.952385    3.616092   -0.018555
     23          1           0       -4.742848    1.862942    0.009618
     24          1           0       -1.749206   -1.212308   -0.037412
     25          1           0        0.051021    0.530811   -0.065738
     26          7           0       -4.379402   -0.778254    0.003936
     27          8           0       -4.023928   -1.954793   -0.001637
     28          8           0       -5.545860   -0.391374    0.022272
 ---------------------------------------------------------------------

 SCF Done:  E(RHF) =  -868.336893994     A.U. after   16 cycles
 E2 =    -0.2603441854D+01 EUMP2 =    -0.87094033584824D+03

 The electronic state is 1-A.
 Alpha  occ. eigenvalues --  -20.61667 -20.61662 -20.61213 -20.61184 -15.86723
 Alpha  occ. eigenvalues --  -15.86246 -11.32294 -11.31522 -11.28802 -11.28796
 Alpha  occ. eigenvalues --  -11.28497 -11.28079 -11.28009 -11.27823 -11.27809
 Alpha  occ. eigenvalues --  -11.27657 -11.27009 -11.26835  -1.60742  -1.60274
 Alpha  occ. eigenvalues --   -1.40287  -1.39834  -1.20480  -1.19639  -1.09826
 Alpha  occ. eigenvalues --   -1.09036  -1.05835  -1.05021  -0.96615  -0.95905
 Alpha  occ. eigenvalues --   -0.87200  -0.86423  -0.83407  -0.82739  -0.78428
 Alpha  occ. eigenvalues --   -0.77838  -0.72923  -0.72471  -0.72079  -0.71595
 Alpha  occ. eigenvalues --   -0.71548  -0.70707  -0.66054  -0.65765  -0.65280
 Alpha  occ. eigenvalues --   -0.65028  -0.63122  -0.62485  -0.56310  -0.55557
 Alpha  occ. eigenvalues --   -0.54340  -0.53854  -0.53366  -0.52735  -0.49702
 Alpha  occ. eigenvalues --   -0.49676  -0.49238  -0.49196  -0.45645  -0.45260
 Alpha  occ. eigenvalues --   -0.38452  -0.37708  -0.37488  -0.36507
 Alpha virt. eigenvalues --    0.04009   0.04677   0.10148   0.11048   0.15371
 Alpha virt. eigenvalues --    0.16264   0.19667   0.21869   0.25393   0.26565
 Alpha virt. eigenvalues --    0.27714   0.29215   0.30254   0.31288   0.31710

 Mulliken charges:
               1
     1  C   -0.188876
     2  C   -0.220365
     3  C   -0.173865
     4  C    0.157147
     5  C   -0.174322
     6  C   -0.220052
     7  H    0.234610
     8  H    0.231053
     9  H    0.279597
    10  H    0.279494
    11  H    0.231217
    12  N    0.487677
    13  O   -0.457600
    14  O   -0.457460
    15  C   -0.173557
    16  C   -0.217799
    17  C   -0.171856
    18  C    0.160216
    19  C   -0.178584
    20  C   -0.223002
    21  H    0.229086
    22  H    0.224970
    23  H    0.275956
    24  H    0.262855
    25  H    0.238576
    26  N    0.488441
    27  O   -0.465475
    28  O   -0.458081
 Sum of Mulliken charges =  -0.00000

 Dipole moment (field-independent basis, Debye):
    X=              0.0216    Y=              0.3780    Z=              0.0181  Tot=              0.3790
 Quadrupole moment (field-independent basis, Debye-Ang):
   XX=           -154.6201   YY=            -99.2290   ZZ=           -100.3543
   XY=            -24.4096   XZ=              0.1485   YZ=              0.2197

 Normal termination of Gaussian 16 at Thu May  6 06:37:54 2021.
