 Gaussian 16, Revision A.03,
 Gaussian 16:  EM64L-G16RevA.03 25-Dec-2016

 -------------
 #p 6-31g* mp2
 -------------

 ------------------------------------------------------
 Input file generated by CHIRIPA (05-May-2021 14:55:20)
 ------------------------------------------------------
 Symbolic Z-matrix:
 Charge =  0 Multiplicity = 1

                         Standard orientation:
 ---------------------------------------------------------------------
 Center     Atomic      Atomic             Coordinates (Angstroms)
 Number     Number       Type             X           Y           Z
 ---------------------------------------------------------------------
      1          6           0       -0.513278   -0.847070    1.263146
      2          6           0       -1.436623   -1.794085    0.808043
      3          6           0       -2.634472   -1.388471    0.212072
      4          6           0       -2.877751   -0.021585    0.086655
      5          6           0       -1.977675    0.946132    0.530136
      6          6           0       -0.786270    0.517610    1.122987
      7          1           0        0.414737   -1.171059    1.724898
      8          1           0       -1.227269   -2.854582    0.915577
      9          1           0       -3.366831   -2.100281   -0.149030
     10          1           0       -2.214348    1.996250    0.409077
     11          1           0       -0.071027    1.255311    1.475505
     12          7           0       -4.142450    0.419946   -0.542621
     13          8           0       -4.333157    1.630115   -0.641409
     14          8           0       -4.919065   -0.452511   -0.925145
     15          6           0        3.233084   -0.571262    0.022403
     16          6           0        3.715967   -1.712880   -0.872870
     17          6           0        3.340999   -3.091114   -0.327280
     18          1           0        3.657969   -0.697266    1.027660
     19          1           0        2.141959   -0.638186    0.133598
     20          1           0        4.805693   -1.643009   -0.983466
     21          1           0        3.290036   -1.584039   -1.876164
     22          1           0        2.254335   -3.185668   -0.233368
     23          1           0        3.778602   -3.244974    0.664401
     24          1           0        3.695887   -3.892524   -0.982762
     25          6           0        3.600360    0.812811   -0.509743
     26          6           0        3.117477    1.954430    0.385530
     27          6           0        3.492444    3.332662   -0.160059
     28          1           0        4.691484    0.879736   -0.620937
     29          1           0        3.175474    0.938815   -1.514999
     30          1           0        3.543407    1.825587    1.388824
     31          1           0        2.027751    1.884559    0.496128
     32          1           0        3.054841    3.486523   -1.151740
     33          1           0        4.579109    3.427218   -0.253972
     34          1           0        3.137557    4.134073    0.495422
 ---------------------------------------------------------------------

 SCF Done:  E(RHF) =  -669.534816390     A.U. after   15 cycles
 E2 =    -0.2093362486D+01 EUMP2 =    -0.67162817887604D+03

 The electronic state is 1-A.
 Alpha  occ. eigenvalues --  -20.60789 -20.60784 -15.85843 -11.31224 -11.27799
 Alpha  occ. eigenvalues --  -11.27791 -11.27492 -11.26802 -11.26773 -11.22528
 Alpha  occ. eigenvalues --  -11.22374 -11.22262 -11.22158 -11.21932 -11.21768
 Alpha  occ. eigenvalues --   -1.59865  -1.39418  -1.19401  -1.09285  -1.08784
 Alpha  occ. eigenvalues --   -1.04803  -1.04353  -0.96790  -0.95622  -0.87806
 Alpha  occ. eigenvalues --   -0.86200  -0.82457  -0.80432  -0.79152  -0.77494
 Alpha  occ. eigenvalues --   -0.72061  -0.71188  -0.70511  -0.65946  -0.65044
 Alpha  occ. eigenvalues --   -0.64770  -0.62199  -0.61700  -0.60161  -0.58424
 Alpha  occ. eigenvalues --   -0.56104  -0.55285  -0.53479  -0.53248  -0.53111
 Alpha  occ. eigenvalues --   -0.52892  -0.50718  -0.48859  -0.48815  -0.48694
 Alpha  occ. eigenvalues --   -0.47443  -0.46638  -0.46557  -0.44820  -0.44601
 Alpha  occ. eigenvalues --   -0.37318  -0.36399
 Alpha virt. eigenvalues --    0.04991   0.11087   0.16353   0.20086   0.22662
 Alpha virt. eigenvalues --    0.22809   0.25719   0.26067   0.26799   0.27526
 Alpha virt. eigenvalues --    0.29488   0.30236   0.30800   0.31199   0.31465

 Mulliken charges:
               1
     1  C   -0.172666
     2  C   -0.221272
     3  C   -0.170594
     4  C    0.158706
     5  C   -0.171799
     6  C   -0.221988
     7  H    0.230344
     8  H    0.224044
     9  H    0.275830
    10  H    0.275858
    11  H    0.229439
    12  N    0.488048
    13  O   -0.460297
    14  O   -0.460329
    15  C   -0.308270
    16  C   -0.299072
    17  C   -0.476842
    18  H    0.146865
    19  H    0.151087
    20  H    0.154827
    21  H    0.155863
    22  H    0.149326
    23  H    0.154668
    24  H    0.164769
    25  C   -0.297250
    26  C   -0.305664
    27  C   -0.475926
    28  H    0.152710
    29  H    0.153874
    30  H    0.151568
    31  H    0.146612
    32  H    0.158507
    33  H    0.158226
    34  H    0.160798
 Sum of Mulliken charges =  -0.00000

 Dipole moment (field-independent basis, Debye):
    X=              4.5741    Y=             -1.5349    Z=              2.1127  Tot=              5.2671
 Quadrupole moment (field-independent basis, Debye-Ang):
   XX=           -119.4124   YY=            -91.0595   ZZ=            -94.8181
   XY=              5.7574   XZ=             -5.7213   YZ=              0.7751

 Normal termination of Gaussian 16 at Thu May  6 12:25:59 2021.
