 Gaussian 16, Revision A.03,
 Gaussian 16:  EM64L-G16RevA.03 25-Dec-2016

 -------------
 #p 6-31g* mp2
 -------------

 ------------------------------------------------------
 Input file generated by CHIRIPA (05-May-2021 14:55:22)
 ------------------------------------------------------
 Symbolic Z-matrix:
 Charge =  0 Multiplicity = 1

                         Standard orientation:
 ---------------------------------------------------------------------
 Center     Atomic      Atomic             Coordinates (Angstroms)
 Number     Number       Type             X           Y           Z
 ---------------------------------------------------------------------
      1          6           0       -0.679044   -0.085360   -0.575535
      2          6           0       -1.508067    0.986873   -0.921305
      3          6           0       -2.880538    0.936222   -0.659951
      4          6           0       -3.392720   -0.207246   -0.048855
      5          6           0       -2.592687   -1.291776    0.307562
      6          6           0       -1.223041   -1.219264    0.036715
      7          1           0        0.386028   -0.037522   -0.782249
      8          1           0       -1.088349    1.868748   -1.396889
      9          1           0       -3.545232    1.751983   -0.917119
     10          1           0       -3.040140   -2.157489    0.780579
     11          1           0       -0.581610   -2.053476    0.306347
     12          7           0       -4.844199   -0.272440    0.232854
     13          8           0       -5.270900   -1.291136    0.772133
     14          8           0       -5.527682    0.696391   -0.090956
     15          6           0        4.188704   -0.361569   -0.307430
     16          6           0        4.949121   -1.454637    0.444204
     17          6           0        5.246300   -2.674684   -0.428128
     18          1           0        3.247292   -0.777039   -0.692234
     19          1           0        4.775378   -0.052798   -1.183712
     20          1           0        4.361825   -1.760279    1.319579
     21          1           0        5.888744   -1.036465    0.827426
     22          1           0        5.852448   -2.390454   -1.294383
     23          1           0        4.316854   -3.118379   -0.799434
     24          1           0        5.790417   -3.443665    0.129066
     25          6           0        3.884253    0.864613    0.551356
     26          6           0        3.123836    1.957680   -0.200278
     27          6           0        2.826658    3.177728    0.672054
     28          1           0        3.297579    0.555843    1.427637
     29          1           0        4.825665    1.280083    0.936160
     30          1           0        2.184214    1.539508   -0.583500
     31          1           0        3.711132    2.263322   -1.075653
     32          1           0        3.756103    3.621422    1.043359
     33          1           0        2.220509    2.893497    1.538309
     34          1           0        2.282541    3.946709    0.114860
 ---------------------------------------------------------------------

 SCF Done:  E(RHF) =  -669.535382416     A.U. after   15 cycles
 E2 =    -0.2091491010D+01 EUMP2 =    -0.67162687342600D+03

 The electronic state is 1-A.
 Alpha  occ. eigenvalues --  -20.60754 -20.60749 -15.85808 -11.31177 -11.27748
 Alpha  occ. eigenvalues --  -11.27743 -11.27469 -11.26764 -11.26752 -11.22749
 Alpha  occ. eigenvalues --  -11.22471 -11.22417 -11.22357 -11.21965 -11.21818
 Alpha  occ. eigenvalues --   -1.59830  -1.39383  -1.19350  -1.09430  -1.08743
 Alpha  occ. eigenvalues --   -1.04754  -1.04462  -0.96884  -0.95580  -0.87897
 Alpha  occ. eigenvalues --   -0.86150  -0.82415  -0.80538  -0.79248  -0.77457
 Alpha  occ. eigenvalues --   -0.72026  -0.71153  -0.70491  -0.66070  -0.65002
 Alpha  occ. eigenvalues --   -0.64754  -0.62106  -0.61861  -0.60260  -0.58502
 Alpha  occ. eigenvalues --   -0.56166  -0.55281  -0.53559  -0.53299  -0.53081
 Alpha  occ. eigenvalues --   -0.52845  -0.50823  -0.48844  -0.48783  -0.48779
 Alpha  occ. eigenvalues --   -0.47581  -0.46779  -0.46691  -0.44788  -0.44729
 Alpha  occ. eigenvalues --   -0.37326  -0.36359
 Alpha virt. eigenvalues --    0.05068   0.11284   0.16509   0.18446   0.22687
 Alpha virt. eigenvalues --    0.23463   0.24689   0.26214   0.26382   0.27564
 Alpha virt. eigenvalues --    0.29635   0.30414   0.30972   0.31071   0.32003

 Mulliken charges:
               1
     1  C   -0.177324
     2  C   -0.220644
     3  C   -0.170760
     4  C    0.158307
     5  C   -0.170725
     6  C   -0.219901
     7  H    0.235037
     8  H    0.223765
     9  H    0.275624
    10  H    0.275506
    11  H    0.223244
    12  N    0.488025
    13  O   -0.460460
    14  O   -0.460419
    15  C   -0.298942
    16  C   -0.300396
    17  C   -0.475890
    18  H    0.140486
    19  H    0.153109
    20  H    0.151934
    21  H    0.155402
    22  H    0.157142
    23  H    0.153145
    24  H    0.163303
    25  C   -0.299675
    26  C   -0.302214
    27  C   -0.476278
    28  H    0.150552
    29  H    0.154672
    30  H    0.140611
    31  H    0.155848
    32  H    0.159419
    33  H    0.158130
    34  H    0.160367
 Sum of Mulliken charges =  -0.00000

 Dipole moment (field-independent basis, Debye):
    X=              5.3612    Y=              0.2838    Z=             -0.9223  Tot=              5.4473
 Quadrupole moment (field-independent basis, Debye-Ang):
   XX=           -128.1228   YY=            -91.2099   ZZ=            -94.7649
   XY=             -1.7044   XZ=              3.4974   YZ=             -2.4427

 Normal termination of Gaussian 16 at Thu May  6 09:25:11 2021.
