 Gaussian 16, Revision A.03,
 Gaussian 16:  EM64L-G16RevA.03 25-Dec-2016

 -------------
 #p 6-31g* mp2
 -------------

 ------------------------------------------------------
 Input file generated by CHIRIPA (05-May-2021 14:57:23)
 ------------------------------------------------------
 Symbolic Z-matrix:
 Charge =  0 Multiplicity = 1

                         Standard orientation:
 ---------------------------------------------------------------------
 Center     Atomic      Atomic             Coordinates (Angstroms)
 Number     Number       Type             X           Y           Z
 ---------------------------------------------------------------------
      1          6           0       -5.502104    1.626376    0.305714
      2          6           0       -4.191397    2.095717    0.440948
      3          6           0       -3.105628    1.242787    0.221486
      4          6           0       -3.368207   -0.079460   -0.133487
      5          6           0       -4.662646   -0.576839   -0.276082
      6          6           0       -5.733138    0.293945   -0.051739
      7          1           0       -6.339622    2.295887    0.478094
      8          1           0       -4.008977    3.130011    0.718442
      9          1           0       -2.080818    1.579872    0.319245
     10          1           0       -4.812920   -1.613027   -0.553839
     11          1           0       -6.749991   -0.073304   -0.157489
     12          7           0       -2.226839   -0.991869   -0.368406
     13          8           0       -2.484826   -2.152420   -0.680178
     14          8           0       -1.095859   -0.529189   -0.236313
     15          6           0        5.146055    1.719396   -0.701121
     16          6           0        4.448308    0.939761   -1.629475
     17          6           0        3.564916   -0.055027   -1.199870
     18          6           0        3.402628   -0.243997    0.171714
     19          6           0        4.083387    0.516444    1.121234
     20          6           0        4.961693    1.505626    0.668855
     21          1           0        5.830320    2.489995   -1.043694
     22          1           0        4.589507    1.103557   -2.694030
     23          1           0        3.012015   -0.673001   -1.896884
     24          1           0        3.921778    0.329761    2.175961
     25          1           0        5.502237    2.109590    1.392099
     26          7           0        2.470112   -1.294168    0.638572
     27          8           0        2.344745   -1.440891    1.852405
     28          8           0        1.882233   -1.950683   -0.218179
 ---------------------------------------------------------------------

 SCF Done:  E(RHF) =  -868.335363431     A.U. after   16 cycles
 E2 =    -0.2600519359D+01 EUMP2 =    -0.87093588279007D+03

 The electronic state is 1-A.
 Alpha  occ. eigenvalues --  -20.59949 -20.59940 -20.59511 -20.59341 -15.85029
 Alpha  occ. eigenvalues --  -15.84485 -11.30684 -11.30291 -11.27302 -11.27279
 Alpha  occ. eigenvalues --  -11.27091 -11.26943 -11.26880 -11.26769 -11.26383
 Alpha  occ. eigenvalues --  -11.26362 -11.26062 -11.26027  -1.59010  -1.58476
 Alpha  occ. eigenvalues --   -1.38566  -1.38024  -1.18884  -1.18511  -1.08222
 Alpha  occ. eigenvalues --   -1.07828  -1.04335  -1.03984  -0.95008  -0.94587
 Alpha  occ. eigenvalues --   -0.85719  -0.85360  -0.81848  -0.81425  -0.76846
 Alpha  occ. eigenvalues --   -0.76390  -0.71280  -0.70702  -0.70361  -0.70000
 Alpha  occ. eigenvalues --   -0.69754  -0.69627  -0.64534  -0.64343  -0.64157
 Alpha  occ. eigenvalues --   -0.64000  -0.61683  -0.61325  -0.54827  -0.54488
 Alpha  occ. eigenvalues --   -0.52645  -0.52435  -0.52289  -0.52086  -0.48016
 Alpha  occ. eigenvalues --   -0.47968  -0.47472  -0.47430  -0.43911  -0.43281
 Alpha  occ. eigenvalues --   -0.36882  -0.36521  -0.35952  -0.35610
 Alpha virt. eigenvalues --    0.05706   0.06176   0.11698   0.12040   0.17143
 Alpha virt. eigenvalues --    0.17577   0.21785   0.22093   0.27669   0.27973
 Alpha virt. eigenvalues --    0.28701   0.29038   0.31309   0.31602   0.32941

 Mulliken charges:
               1
     1  C   -0.171796
     2  C   -0.218451
     3  C   -0.171088
     4  C    0.159678
     5  C   -0.171207
     6  C   -0.218461
     7  H    0.223576
     8  H    0.221032
     9  H    0.273788
    10  H    0.275819
    11  H    0.222050
    12  N    0.487914
    13  O   -0.457563
    14  O   -0.455318
    15  C   -0.172715
    16  C   -0.219286
    17  C   -0.169709
    18  C    0.161014
    19  C   -0.172567
    20  C   -0.219080
    21  H    0.221727
    22  H    0.220627
    23  H    0.278531
    24  H    0.273560
    25  H    0.219639
    26  N    0.489574
    27  O   -0.467996
    28  O   -0.443294
 Sum of Mulliken charges =  -0.00000

 Dipole moment (field-independent basis, Debye):
    X=             -0.8797    Y=              6.6217    Z=             -0.9151  Tot=              6.7423
 Quadrupole moment (field-independent basis, Debye-Ang):
   XX=            -56.4445   YY=           -105.1932   ZZ=           -102.0747
   XY=              4.1359   XZ=             -5.6630   YZ=              2.9009

 Normal termination of Gaussian 16 at Fri May  7 11:01:16 2021.
