 Gaussian 16, Revision A.03,
 Gaussian 16:  EM64L-G16RevA.03 25-Dec-2016

 -------------
 #p 6-31g* mp2
 -------------

 ------------------------------------------------------
 Input file generated by CHIRIPA (05-May-2021 14:57:23)
 ------------------------------------------------------
 Symbolic Z-matrix:
 Charge =  0 Multiplicity = 1

                         Standard orientation:
 ---------------------------------------------------------------------
 Center     Atomic      Atomic             Coordinates (Angstroms)
 Number     Number       Type             X           Y           Z
 ---------------------------------------------------------------------
      1          6           0       -0.998230    1.658530    1.711630
      2          6           0       -1.186234    0.331659    2.112366
      3          6           0       -2.074247   -0.499265    1.422768
      4          6           0       -2.760893    0.031871    0.332033
      5          6           0       -2.595192    1.349587   -0.091589
      6          6           0       -1.702068    2.162371    0.612868
      7          1           0       -0.306415    2.296966    2.253098
      8          1           0       -0.640975   -0.062326    2.965310
      9          1           0       -2.238864   -1.530258    1.711511
     10          1           0       -3.152968    1.713926   -0.945733
     11          1           0       -1.558061    3.192441    0.299398
     12          7           0       -3.703698   -0.838190   -0.405879
     13          8           0       -4.296617   -0.346277   -1.363536
     14          8           0       -3.831897   -1.995580   -0.012626
     15          6           0        4.812675   -0.589868    0.696323
     16          6           0        4.613553    0.586950   -0.033041
     17          6           0        3.394689    0.827195   -0.674290
     18          6           0        2.392126   -0.135184   -0.564824
     19          6           0        2.560036   -1.317430    0.154475
     20          6           0        3.787089   -1.536633    0.787592
     21          1           0        5.762700   -0.768323    1.191302
     22          1           0        5.408256    1.323986   -0.105635
     23          1           0        3.213639    1.729644   -1.245453
     24          1           0        1.749071   -2.033535    0.208782
     25          1           0        3.938911   -2.451467    1.353343
     26          7           0        1.097434    0.108014   -1.239382
     27          8           0        0.230018   -0.755556   -1.127697
     28          8           0        0.974586    1.157598   -1.867012
 ---------------------------------------------------------------------

 SCF Done:  E(RHF) =  -868.337721548     A.U. after   16 cycles
 E2 =    -0.2602791176D+01 EUMP2 =    -0.87094051272375D+03

 The electronic state is 1-A.
 Alpha  occ. eigenvalues --  -20.61154 -20.61087 -20.59666 -20.59646 -15.86156
 Alpha  occ. eigenvalues --  -15.84709 -11.31593 -11.30007 -11.28170 -11.28148
 Alpha  occ. eigenvalues --  -11.27904 -11.27191 -11.27176 -11.26687 -11.26579
 Alpha  occ. eigenvalues --  -11.26520 -11.25810 -11.25677  -1.60174  -1.58717
 Alpha  occ. eigenvalues --   -1.39734  -1.38281  -1.19766  -1.18227  -1.09145
 Alpha  occ. eigenvalues --   -1.07674  -1.05178  -1.03669  -0.95974  -0.94509
 Alpha  occ. eigenvalues --   -0.86568  -0.85093  -0.82809  -0.81363  -0.77846
 Alpha  occ. eigenvalues --   -0.76379  -0.72410  -0.71511  -0.70963  -0.70864
 Alpha  occ. eigenvalues --   -0.69981  -0.69459  -0.65417  -0.65174  -0.63942
 Alpha  occ. eigenvalues --   -0.63749  -0.62520  -0.61051  -0.55668  -0.54279
 Alpha  occ. eigenvalues --   -0.53518  -0.53264  -0.51981  -0.51823  -0.49145
 Alpha  occ. eigenvalues --   -0.49098  -0.47711  -0.47698  -0.45128  -0.43708
 Alpha  occ. eigenvalues --   -0.37767  -0.36801  -0.36192  -0.35173
 Alpha virt. eigenvalues --    0.04634   0.06237   0.10842   0.12420   0.16173
 Alpha virt. eigenvalues --    0.17648   0.21023   0.22259   0.26913   0.27859
 Alpha virt. eigenvalues --    0.28227   0.29161   0.30585   0.31727   0.32134

 Mulliken charges:
               1
     1  C   -0.179021
     2  C   -0.222292
     3  C   -0.163889
     4  C    0.174458
     5  C   -0.160768
     6  C   -0.212405
     7  H    0.218846
     8  H    0.214675
     9  H    0.269835
    10  H    0.275307
    11  H    0.221438
    12  N    0.488950
    13  O   -0.461114
    14  O   -0.465382
    15  C   -0.171329
    16  C   -0.218919
    17  C   -0.172699
    18  C    0.159163
    19  C   -0.172121
    20  C   -0.219411
    21  H    0.226475
    22  H    0.223918
    23  H    0.274867
    24  H    0.276557
    25  H    0.224327
    26  N    0.490976
    27  O   -0.457259
    28  O   -0.463183
 Sum of Mulliken charges =  -0.00000

 Dipole moment (field-independent basis, Debye):
    X=              7.8793    Y=              2.1572    Z=              4.6720  Tot=              9.4109
 Quadrupole moment (field-independent basis, Debye-Ang):
   XX=           -101.8162   YY=            -98.3111   ZZ=           -105.0875
   XY=            -10.5210   XZ=             -2.3150   YZ=             -3.3741

 Normal termination of Gaussian 16 at Fri May  7 01:52:26 2021.
