 Gaussian 16, Revision A.03,
 Gaussian 16:  EM64L-G16RevA.03 25-Dec-2016

 -------------
 #p 6-31g* mp2
 -------------

 ------------------------------------------------------
 Input file generated by CHIRIPA (05-May-2021 14:57:24)
 ------------------------------------------------------
 Symbolic Z-matrix:
 Charge =  0 Multiplicity = 1

                         Standard orientation:
 ---------------------------------------------------------------------
 Center     Atomic      Atomic             Coordinates (Angstroms)
 Number     Number       Type             X           Y           Z
 ---------------------------------------------------------------------
      1          6           0       -2.268877    0.763671    1.042041
      2          6           0       -2.921463    1.614076    0.143451
      3          6           0       -4.136487    1.236971   -0.436253
      4          6           0       -4.672850   -0.003199   -0.093351
      5          6           0       -4.046756   -0.872546    0.798576
      6          6           0       -2.832612   -0.474743    1.366164
      7          1           0       -1.325359    1.064654    1.487662
      8          1           0       -2.485999    2.576427   -0.110114
      9          1           0       -4.662958    1.875856   -1.134875
     10          1           0       -4.505506   -1.825717    1.031881
     11          1           0       -2.328034   -1.137220    2.063709
     12          7           0       -5.958675   -0.413379   -0.700644
     13          8           0       -6.410394   -1.511163   -0.382116
     14          8           0       -6.490440    0.370672   -1.483668
     15          6           0        2.134190    0.186483    0.936268
     16          6           0        2.910486    1.320795    0.676990
     17          6           0        4.200993    1.193712    0.154507
     18          6           0        4.685871   -0.088658   -0.097905
     19          6           0        3.936867   -1.237981    0.149764
     20          6           0        2.648951   -1.087039    0.672294
     21          1           0        1.132699    0.294472    1.342163
     22          1           0        2.513304    2.311080    0.881016
     23          1           0        4.823539    2.054932   -0.055620
     24          1           0        4.360077   -2.211963   -0.063944
     25          1           0        2.048330   -1.969734    0.872667
     26          7           0        6.050701   -0.235825   -0.651058
     27          8           0        6.454848   -1.376724   -0.864717
     28          8           0        6.690466    0.792513   -0.860486
 ---------------------------------------------------------------------

 SCF Done:  E(RHF) =  -868.336148175     A.U. after   16 cycles
 E2 =    -0.2599723211D+01 EUMP2 =    -0.87093587138596D+03

 The electronic state is 1-A.
 Alpha  occ. eigenvalues --  -20.61347 -20.61342 -20.61264 -20.61258 -15.86406
 Alpha  occ. eigenvalues --  -15.86322 -11.31944 -11.31833 -11.28525 -11.28501
 Alpha  occ. eigenvalues --  -11.28451 -11.28417 -11.28399 -11.28330 -11.27658
 Alpha  occ. eigenvalues --  -11.27610 -11.27531 -11.27497  -1.60418  -1.60335
 Alpha  occ. eigenvalues --   -1.39967  -1.39885  -1.20144  -1.20033  -1.09542
 Alpha  occ. eigenvalues --   -1.09429  -1.05563  -1.05452  -0.96349  -0.96229
 Alpha  occ. eigenvalues --   -0.86973  -0.86861  -0.83171  -0.83046  -0.78147
 Alpha  occ. eigenvalues --   -0.78051  -0.72623  -0.72539  -0.71742  -0.71659
 Alpha  occ. eigenvalues --   -0.71540  -0.71042  -0.65811  -0.65700  -0.65591
 Alpha  occ. eigenvalues --   -0.65470  -0.62899  -0.62790  -0.56458  -0.55790
 Alpha  occ. eigenvalues --   -0.53888  -0.53775  -0.53670  -0.53560  -0.49396
 Alpha  occ. eigenvalues --   -0.49365  -0.49311  -0.49283  -0.45333  -0.45257
 Alpha  occ. eigenvalues --   -0.38193  -0.38044  -0.37150  -0.37040
 Alpha virt. eigenvalues --    0.04339   0.04497   0.10481   0.10603   0.15644
 Alpha virt. eigenvalues --    0.15962   0.17752   0.21902   0.24795   0.26173
 Alpha virt. eigenvalues --    0.26891   0.29343   0.29684   0.31481   0.32136

 Mulliken charges:
               1
     1  C   -0.173534
     2  C   -0.217428
     3  C   -0.169811
     4  C    0.159774
     5  C   -0.169929
     6  C   -0.219043
     7  H    0.217982
     8  H    0.224504
     9  H    0.278316
    10  H    0.277806
    11  H    0.221046
    12  N    0.487875
    13  O   -0.458580
    14  O   -0.458093
    15  C   -0.171200
    16  C   -0.219130
    17  C   -0.169927
    18  C    0.159353
    19  C   -0.169761
    20  C   -0.218525
    21  H    0.217320
    22  H    0.221086
    23  H    0.277485
    24  H    0.277947
    25  H    0.223908
    26  N    0.487886
    27  O   -0.458437
    28  O   -0.458890
 Sum of Mulliken charges =  -0.00000

 Dipole moment (field-independent basis, Debye):
    X=             -0.3219    Y=              1.9106    Z=              3.9390  Tot=              4.3897
 Quadrupole moment (field-independent basis, Debye-Ang):
   XX=           -191.4346   YY=            -96.2095   ZZ=           -105.9394
   XY=             -3.5887   XZ=             -0.6493   YZ=             -3.0197

 Normal termination of Gaussian 16 at Thu May  6 21:12:40 2021.
