 Gaussian 16, Revision A.03,
 Gaussian 16:  EM64L-G16RevA.03 25-Dec-2016

 -------------
 #p 6-31g* mp2
 -------------

 ------------------------------------------------------
 Input file generated by CHIRIPA (05-May-2021 14:55:22)
 ------------------------------------------------------
 Symbolic Z-matrix:
 Charge =  0 Multiplicity = 1

                         Standard orientation:
 ---------------------------------------------------------------------
 Center     Atomic      Atomic             Coordinates (Angstroms)
 Number     Number       Type             X           Y           Z
 ---------------------------------------------------------------------
      1          6           0        2.977921   -1.676701    1.158047
      2          6           0        2.104232   -0.874392    1.899323
      3          6           0        1.652511    0.345277    1.386582
      4          6           0        2.096612    0.733561    0.123531
      5          6           0        2.966876   -0.043653   -0.639274
      6          6           0        3.405700   -1.259506   -0.106656
      7          1           0        3.323819   -2.622687    1.564077
      8          1           0        1.770358   -1.195860    2.881785
      9          1           0        0.975941    0.985939    1.939053
     10          1           0        3.282259    0.303484   -1.615721
     11          1           0        4.084198   -1.880541   -0.684584
     12          7           0        1.625222    2.022750   -0.429807
     13          8           0        2.031199    2.342302   -1.545022
     14          8           0        0.858696    2.689254    0.262181
     15          6           0       -2.429600   -1.099179   -0.796078
     16          6           0       -0.995196   -1.462388   -0.410662
     17          6           0       -0.301173   -2.327230   -1.463361
     18          1           0       -3.005312   -2.021718   -0.952354
     19          1           0       -2.420288   -0.569676   -1.758853
     20          1           0       -1.007084   -1.989831    0.551773
     21          1           0       -0.422881   -0.538877   -0.255098
     22          1           0       -0.259807   -1.804970   -2.424681
     23          1           0       -0.847330   -3.264169   -1.613225
     24          1           0        0.723001   -2.575121   -1.167595
     25          6           0       -3.136616   -0.234803    0.246377
     26          6           0       -4.571021    0.128407   -0.139041
     27          6           0       -5.265043    0.993248    0.913659
     28          1           0       -3.145929   -0.764306    1.209151
     29          1           0       -2.560904    0.687736    0.402651
     30          1           0       -5.143335   -0.795105   -0.294603
     31          1           0       -4.559132    0.655849   -1.101475
     32          1           0       -4.718887    1.930186    1.063523
     33          1           0       -5.306409    0.470988    1.874979
     34          1           0       -6.289217    1.241139    0.617894
 ---------------------------------------------------------------------

 SCF Done:  E(RHF) =  -669.534020743     A.U. after   15 cycles
 E2 =    -0.2095185126D+01 EUMP2 =    -0.67162920586870D+03

 The electronic state is 1-A.
 Alpha  occ. eigenvalues --  -20.60884 -20.60876 -15.85925 -11.31230 -11.27854
 Alpha  occ. eigenvalues --  -11.27815 -11.27612 -11.26858 -11.26835 -11.21446
 Alpha  occ. eigenvalues --  -11.21352 -11.21191 -11.21127 -11.21010 -11.20811
 Alpha  occ. eigenvalues --   -1.59956  -1.39509  -1.19466  -1.08861  -1.08239
 Alpha  occ. eigenvalues --   -1.04857  -1.03359  -0.95812  -0.95690  -0.86832
 Alpha  occ. eigenvalues --   -0.86258  -0.82519  -0.79447  -0.78068  -0.77565
 Alpha  occ. eigenvalues --   -0.72146  -0.71294  -0.70567  -0.65113  -0.64876
 Alpha  occ. eigenvalues --   -0.64849  -0.62197  -0.60787  -0.59259  -0.57497
 Alpha  occ. eigenvalues --   -0.55362  -0.55118  -0.53208  -0.52943  -0.52386
 Alpha  occ. eigenvalues --   -0.52208  -0.49754  -0.48908  -0.48900  -0.47778
 Alpha  occ. eigenvalues --   -0.46481  -0.45615  -0.45532  -0.44881  -0.43624
 Alpha  occ. eigenvalues --   -0.37362  -0.36339
 Alpha virt. eigenvalues --    0.04946   0.11099   0.16425   0.21273   0.23013
 Alpha virt. eigenvalues --    0.24414   0.26652   0.26862   0.27743   0.28013
 Alpha virt. eigenvalues --    0.28524   0.30823   0.31614   0.31850   0.32088

 Mulliken charges:
               1
     1  C   -0.171278
     2  C   -0.212631
     3  C   -0.173315
     4  C    0.159285
     5  C   -0.169735
     6  C   -0.218829
     7  H    0.226375
     8  H    0.224001
     9  H    0.275850
    10  H    0.276146
    11  H    0.224258
    12  N    0.488949
    13  O   -0.460174
    14  O   -0.461101
    15  C   -0.297623
    16  C   -0.300363
    17  C   -0.479289
    18  H    0.147318
    19  H    0.152516
    20  H    0.145023
    21  H    0.156422
    22  H    0.156270
    23  H    0.152680
    24  H    0.158690
    25  C   -0.300837
    26  C   -0.299332
    27  C   -0.476349
    28  H    0.144585
    29  H    0.156708
    30  H    0.150047
    31  H    0.154468
    32  H    0.158808
    33  H    0.152608
    34  H    0.159852
 Sum of Mulliken charges =  -0.00000

 Dipole moment (field-independent basis, Debye):
    X=              1.7874    Y=             -4.4248    Z=              1.9709  Tot=              5.1631
 Quadrupole moment (field-independent basis, Debye-Ang):
   XX=            -87.1741   YY=           -101.9657   ZZ=            -91.2831
   XY=             -8.6434   XZ=              2.1842   YZ=              0.6433

 Normal termination of Gaussian 16 at Thu May  6 17:33:08 2021.
