 Gaussian 16, Revision A.03,
 Gaussian 16:  EM64L-G16RevA.03 25-Dec-2016

 -------------
 #p 6-31g* mp2
 -------------

 ------------------------------------------------------
 Input file generated by CHIRIPA (05-May-2021 14:51:13)
 ------------------------------------------------------
 Symbolic Z-matrix:
 Charge =  0 Multiplicity = 1

                         Standard orientation:
 ---------------------------------------------------------------------
 Center     Atomic      Atomic             Coordinates (Angstroms)
 Number     Number       Type             X           Y           Z
 ---------------------------------------------------------------------
      1          6           0        4.309762   -0.525223    0.318246
      2          6           0        5.196240   -1.439866   -0.527668
      3          6           0        5.655160   -2.685299    0.231334
      4          1           0        4.859533   -0.224592    1.220642
      5          1           0        3.432333   -1.091069    0.660785
      6          1           0        6.071039   -0.872076   -0.869656
      7          1           0        4.644364   -1.738201   -1.428248
      8          1           0        4.793597   -3.275924    0.559166
      9          1           0        6.228378   -2.404877    1.120932
     10          1           0        6.287612   -3.325029   -0.392053
     11          6           0        3.842976    0.724119   -0.426725
     12          6           0        2.956498    1.638762    0.419189
     13          6           0        2.497578    2.884195   -0.339812
     14          1           0        4.720405    1.289964   -0.769263
     15          1           0        3.293205    0.423487   -1.329120
     16          1           0        3.508373    1.937097    1.319770
     17          1           0        2.081698    1.070971    0.761178
     18          1           0        1.924359    2.603772   -1.229410
     19          1           0        3.359140    3.474819   -0.667644
     20          1           0        1.865125    3.523924    0.283574
     21          6           0       -3.488365    0.126536    0.486230
     22          6           0       -2.217083    0.403557   -0.316942
     23          6           0       -1.049582    0.854744    0.561219
     24          1           0       -3.771380    1.033884    1.037199
     25          1           0       -3.276588   -0.643900    1.240533
     26          1           0       -2.431559    1.172249   -1.070421
     27          1           0       -1.937169   -0.504498   -0.866214
     28          1           0       -0.807235    0.087702    1.303860
     29          1           0       -1.304433    1.773977    1.098493
     30          1           0       -0.151051    1.047273   -0.033285
     31          6           0       -4.664372   -0.325432   -0.377751
     32          6           0       -5.935654   -0.602453    0.425421
     33          6           0       -7.103156   -1.053639   -0.452740
     34          1           0       -4.876149    0.445004   -1.132055
     35          1           0       -4.381357   -1.232779   -0.928721
     36          1           0       -6.215568    0.305602    0.974693
     37          1           0       -5.721179   -1.371144    1.178899
     38          1           0       -6.848305   -1.972872   -0.990015
     39          1           0       -7.345502   -0.286598   -1.195381
     40          1           0       -8.001688   -1.246168    0.141763
 ---------------------------------------------------------------------

 SCF Done:  E(RHF) =  -470.733011761     A.U. after   11 cycles
 E2 =    -0.1582746098D+01 EUMP2 =    -0.47231575785894D+03

 The electronic state is 1-A.
 Alpha  occ. eigenvalues --  -11.21628 -11.21614 -11.21583 -11.21501 -11.21422
 Alpha  occ. eigenvalues --  -11.21372 -11.21362 -11.21312 -11.21081 -11.21079
 Alpha  occ. eigenvalues --  -11.21059 -11.21040  -1.08451  -1.08394  -1.03570
 Alpha  occ. eigenvalues --   -1.03479  -0.96030  -0.95925  -0.87023  -0.86966
 Alpha  occ. eigenvalues --   -0.79651  -0.79525  -0.78266  -0.78200  -0.65081
 Alpha  occ. eigenvalues --   -0.65048  -0.61004  -0.60943  -0.59418  -0.59222
 Alpha  occ. eigenvalues --   -0.57631  -0.57529  -0.55293  -0.55250  -0.52702
 Alpha  occ. eigenvalues --   -0.52610  -0.52423  -0.52368  -0.49976  -0.49865
 Alpha  occ. eigenvalues --   -0.47951  -0.47849  -0.46675  -0.46563  -0.45808
 Alpha  occ. eigenvalues --   -0.45754  -0.45728  -0.45667  -0.43784  -0.43711
 Alpha virt. eigenvalues --    0.21409   0.23029   0.23685   0.25061   0.26370
 Alpha virt. eigenvalues --    0.26658   0.27034   0.27605   0.27808   0.28891
 Alpha virt. eigenvalues --    0.30505   0.31090   0.31460   0.31812   0.32179

 Mulliken charges:
               1
     1  C   -0.298239
     2  C   -0.299611
     3  C   -0.475673
     4  H    0.149657
     5  H    0.149571
     6  H    0.151903
     7  H    0.151819
     8  H    0.155068
     9  H    0.155175
    10  H    0.160167
    11  C   -0.298034
    12  C   -0.306713
    13  C   -0.476134
    14  H    0.149420
    15  H    0.148890
    16  H    0.151925
    17  H    0.159224
    18  H    0.154130
    19  H    0.155217
    20  H    0.161099
    21  C   -0.298607
    22  C   -0.299780
    23  C   -0.481306
    24  H    0.149760
    25  H    0.149494
    26  H    0.152114
    27  H    0.151573
    28  H    0.154495
    29  H    0.155622
    30  H    0.167609
    31  C   -0.298257
    32  C   -0.299631
    33  C   -0.475709
    34  H    0.149584
    35  H    0.149578
    36  H    0.151991
    37  H    0.151929
    38  H    0.155166
    39  H    0.155214
    40  H    0.160299
 Sum of Mulliken charges =  -0.00000

 Dipole moment (field-independent basis, Debye):
    X=             -0.0210    Y=              0.0090    Z=              0.0125  Tot=              0.0261
 Quadrupole moment (field-independent basis, Debye-Ang):
   XX=            -85.1730   YY=            -84.5874   ZZ=            -85.1189
   XY=              0.1917   XZ=             -0.2948   YZ=              0.2960

 Normal termination of Gaussian 16 at Wed May  5 19:57:20 2021.
