 Gaussian 16, Revision A.03,
 Gaussian 16:  EM64L-G16RevA.03 25-Dec-2016

 -------------
 #p 6-31g* mp2
 -------------

 ------------------------------------------------------
 Input file generated by CHIRIPA (05-May-2021 14:57:23)
 ------------------------------------------------------
 Symbolic Z-matrix:
 Charge =  0 Multiplicity = 1

                         Standard orientation:
 ---------------------------------------------------------------------
 Center     Atomic      Atomic             Coordinates (Angstroms)
 Number     Number       Type             X           Y           Z
 ---------------------------------------------------------------------
      1          6           0        2.606040    2.452336    0.836467
      2          6           0        1.484077    2.109851    0.074612
      3          6           0        1.362878    0.830181   -0.475210
      4          6           0        2.387077   -0.086337   -0.242181
      5          6           0        3.517156    0.224736    0.512434
      6          6           0        3.617217    1.510346    1.052565
      7          1           0        2.691980    3.448722    1.259817
      8          1           0        0.697236    2.839377   -0.094852
      9          1           0        0.505091    0.538434   -1.068929
     10          1           0        4.285205   -0.523942    0.664091
     11          1           0        4.489680    1.773536    1.643821
     12          7           0        2.269958   -1.444211   -0.819123
     13          8           0        3.186050   -2.233555   -0.599242
     14          8           0        1.264287   -1.693456   -1.480288
     15          6           0       -2.914096    1.794442   -1.394305
     16          6           0       -3.044047    1.950299   -0.010347
     17          6           0       -2.765413    0.886718    0.853196
     18          6           0       -2.357295   -0.324226    0.296111
     19          6           0       -2.218422   -0.510675   -1.078386
     20          6           0       -2.502424    0.566617   -1.922976
     21          1           0       -3.132631    2.625982   -2.057765
     22          1           0       -3.363568    2.902701    0.403034
     23          1           0       -2.857722    0.979879    1.928472
     24          1           0       -1.897917   -1.472129   -1.460878
     25          1           0       -2.400633    0.442693   -2.997372
     26          7           0       -2.059476   -1.457448    1.200273
     27          8           0       -1.701603   -2.514116    0.684502
     28          8           0       -2.189557   -1.267545    2.407606
 ---------------------------------------------------------------------

 SCF Done:  E(RHF) =  -868.337667987     A.U. after   16 cycles
 E2 =    -0.2603044972D+01 EUMP2 =    -0.87094071295833D+03

 The electronic state is 1-A.
 Alpha  occ. eigenvalues --  -20.60649 -20.60618 -20.60601 -20.60573 -15.85675
 Alpha  occ. eigenvalues --  -15.85663 -11.31328 -11.31039 -11.28032 -11.27841
 Alpha  occ. eigenvalues --  -11.27805 -11.27613 -11.27566 -11.27405 -11.27106
 Alpha  occ. eigenvalues --  -11.26986 -11.26671 -11.26648  -1.59691  -1.59663
 Alpha  occ. eigenvalues --   -1.39235  -1.39218  -1.19598  -1.19223  -1.08927
 Alpha  occ. eigenvalues --   -1.08625  -1.05015  -1.04633  -0.95696  -0.95450
 Alpha  occ. eigenvalues --   -0.86370  -0.86043  -0.82498  -0.82295  -0.77497
 Alpha  occ. eigenvalues --   -0.77316  -0.71934  -0.71856  -0.71092  -0.70915
 Alpha  occ. eigenvalues --   -0.70633  -0.70358  -0.65205  -0.64977  -0.64875
 Alpha  occ. eigenvalues --   -0.64664  -0.62280  -0.62023  -0.55504  -0.55199
 Alpha  occ. eigenvalues --   -0.53465  -0.53044  -0.52936  -0.52608  -0.48689
 Alpha  occ. eigenvalues --   -0.48647  -0.48631  -0.48602  -0.44733  -0.44447
 Alpha  occ. eigenvalues --   -0.37679  -0.37216  -0.36631  -0.36196
 Alpha virt. eigenvalues --    0.04976   0.05230   0.10898   0.11468   0.16391
 Alpha virt. eigenvalues --    0.16684   0.21165   0.21619   0.27127   0.27302
 Alpha virt. eigenvalues --    0.28110   0.28597   0.30806   0.31133   0.32573

 Mulliken charges:
               1
     1  C   -0.170429
     2  C   -0.221742
     3  C   -0.176165
     4  C    0.158351
     5  C   -0.168916
     6  C   -0.218540
     7  H    0.223776
     8  H    0.219726
     9  H    0.279972
    10  H    0.276411
    11  H    0.223341
    12  N    0.490834
    13  O   -0.457230
    14  O   -0.465878
    15  C   -0.174904
    16  C   -0.223719
    17  C   -0.171148
    18  C    0.158189
    19  C   -0.176272
    20  C   -0.226941
    21  H    0.225679
    22  H    0.222280
    23  H    0.276227
    24  H    0.293945
    25  H    0.228661
    26  N    0.486947
    27  O   -0.448638
    28  O   -0.463816
 Sum of Mulliken charges =  -0.00000

 Dipole moment (field-independent basis, Debye):
    X=             -0.6617    Y=              8.3890    Z=             -1.1759  Tot=              8.4968
 Quadrupole moment (field-independent basis, Debye-Ang):
   XX=            -94.4417   YY=           -107.2820   ZZ=           -104.7319
   XY=              0.6090   XZ=             13.4678   YZ=              3.1165

 Normal termination of Gaussian 16 at Thu May  6 01:50:51 2021.
