 Gaussian 16, Revision A.03,
 Gaussian 16:  EM64L-G16RevA.03 25-Dec-2016

 -------------
 #p 6-31g* mp2
 -------------

 ------------------------------------------------------
 Input file generated by CHIRIPA (05-May-2021 14:53:16)
 ------------------------------------------------------
 Symbolic Z-matrix:
 Charge =  0 Multiplicity = 1

                         Standard orientation:
 ---------------------------------------------------------------------
 Center     Atomic      Atomic             Coordinates (Angstroms)
 Number     Number       Type             X           Y           Z
 ---------------------------------------------------------------------
      1          6           0       -3.973123   -0.624311   -0.235064
      2          6           0       -5.203811   -1.087269    0.545361
      3          6           0       -5.613056   -2.521220    0.207578
      4          1           0       -4.177714   -0.704851   -1.311447
      5          1           0       -3.136489   -1.304718   -0.024151
      6          1           0       -6.037493   -0.405385    0.334116
      7          1           0       -4.996334   -1.005436    1.620011
      8          1           0       -4.799671   -3.217758    0.435262
      9          1           0       -5.846746   -2.614298   -0.857939
     10          1           0       -6.494867   -2.831685    0.776684
     11          6           0       -3.551715    0.807239    0.091751
     12          6           0       -2.321027    1.270198   -0.688673
     13          6           0       -1.911781    2.704148   -0.350890
     14          1           0       -4.388348    1.487647   -0.119162
     15          1           0       -3.347123    0.887780    1.168134
     16          1           0       -2.528504    1.188365   -1.763323
     17          1           0       -1.487344    0.588314   -0.477428
     18          1           0       -1.678091    2.797227    0.714627
     19          1           0       -2.725166    3.400687   -0.578574
     20          1           0       -1.029971    3.014613   -0.919996
     21          6           0        4.146237   -2.255489   -0.317438
     22          6           0        4.059417   -1.714868    0.969696
     23          6           0        3.393177   -0.505376    1.188329
     24          6           0        2.822715    0.139688    0.092082
     25          6           0        2.892252   -0.373452   -1.202191
     26          6           0        3.563406   -1.584240   -1.397369
     27          1           0        4.665697   -3.195555   -0.478167
     28          1           0        4.511105   -2.233976    1.810260
     29          1           0        3.310993   -0.064349    2.174310
     30          1           0        2.432017    0.167137   -2.020339
     31          1           0        3.629263   -2.001735   -2.398072
     32          7           0        2.114797    1.420809    0.311124
     33          8           0        1.620636    1.969593   -0.671361
     34          8           0        2.067496    1.851909    1.461147
 ---------------------------------------------------------------------

 SCF Done:  E(RHF) =  -669.536128211     A.U. after   15 cycles
 E2 =    -0.2091309750D+01 EUMP2 =    -0.67162743796053D+03

 The electronic state is 1-A.
 Alpha  occ. eigenvalues --  -20.60960 -20.60939 -15.85980 -11.31298 -11.27859
 Alpha  occ. eigenvalues --  -11.27855 -11.27595 -11.26865 -11.26855 -11.21207
 Alpha  occ. eigenvalues --  -11.20871 -11.20800 -11.20624 -11.20555 -11.19467
 Alpha  occ. eigenvalues --   -1.60005  -1.39563  -1.19464  -1.08869  -1.07756
 Alpha  occ. eigenvalues --   -1.04860  -1.02742  -0.95716  -0.95160  -0.86262
 Alpha  occ. eigenvalues --   -0.86178  -0.82546  -0.78858  -0.77601  -0.77530
 Alpha  occ. eigenvalues --   -0.72207  -0.71321  -0.70572  -0.65121  -0.64862
 Alpha  occ. eigenvalues --   -0.64400  -0.62206  -0.60153  -0.58598  -0.56746
 Alpha  occ. eigenvalues --   -0.55364  -0.54473  -0.53192  -0.52952  -0.51813
 Alpha  occ. eigenvalues --   -0.51597  -0.49184  -0.48954  -0.48884  -0.47134
 Alpha  occ. eigenvalues --   -0.45929  -0.45080  -0.45050  -0.44877  -0.42966
 Alpha  occ. eigenvalues --   -0.37443  -0.36460
 Alpha virt. eigenvalues --    0.04916   0.11191   0.16397   0.21320   0.23452
 Alpha virt. eigenvalues --    0.25138   0.27189   0.27276   0.27991   0.28261
 Alpha virt. eigenvalues --    0.28951   0.30876   0.32045   0.32281   0.32485

 Mulliken charges:
               1
     1  C   -0.297075
     2  C   -0.299021
     3  C   -0.475135
     4  H    0.147684
     5  H    0.146517
     6  H    0.151749
     7  H    0.151622
     8  H    0.153365
     9  H    0.154213
    10  H    0.159024
    11  C   -0.297767
    12  C   -0.296963
    13  C   -0.479598
    14  H    0.147996
    15  H    0.149648
    16  H    0.146481
    17  H    0.147529
    18  H    0.157858
    19  H    0.145064
    20  H    0.182398
    21  C   -0.170588
    22  C   -0.218593
    23  C   -0.170788
    24  C    0.157727
    25  C   -0.170727
    26  C   -0.218517
    27  H    0.226037
    28  H    0.223818
    29  H    0.275795
    30  H    0.275998
    31  H    0.223947
    32  N    0.489524
    33  O   -0.460129
    34  O   -0.459092
 Sum of Mulliken charges =  -0.00000

 Dipole moment (field-independent basis, Debye):
    X=              2.7952    Y=             -4.4124    Z=             -0.7631  Tot=              5.2787
 Quadrupole moment (field-independent basis, Debye-Ang):
   XX=            -81.9040   YY=            -97.5233   ZZ=            -89.5904
   XY=            -13.4583   XZ=             -0.4935   YZ=             -1.2180

 Normal termination of Gaussian 16 at Thu May  6 18:52:54 2021.
