 Gaussian 16, Revision A.03,
 Gaussian 16:  EM64L-G16RevA.03 25-Dec-2016

 -------------
 #p 6-31g* mp2
 -------------

 ------------------------------------------------------
 Input file generated by CHIRIPA (05-May-2021 14:57:24)
 ------------------------------------------------------
 Symbolic Z-matrix:
 Charge =  0 Multiplicity = 1

                         Standard orientation:
 ---------------------------------------------------------------------
 Center     Atomic      Atomic             Coordinates (Angstroms)
 Number     Number       Type             X           Y           Z
 ---------------------------------------------------------------------
      1          6           0        0.431824   -2.406913    1.010180
      2          6           0        0.671558   -2.300682   -0.363779
      3          6           0        1.586779   -1.364697   -0.854545
      4          6           0        2.247588   -0.547216    0.061067
      5          6           0        2.030373   -0.629002    1.435628
      6          6           0        1.110799   -1.572205    1.903923
      7          1           0       -0.280833   -3.136812    1.382690
      8          1           0        0.145706   -2.947618   -1.060198
      9          1           0        1.791466   -1.261233   -1.913231
     10          1           0        2.569841    0.029693    2.105339
     11          1           0        0.926620   -1.652481    2.971480
     12          7           0        3.218796    0.447490   -0.446590
     13          8           0        3.788075    1.156044    0.380761
     14          8           0        3.392359    0.499753   -1.662230
     15          6           0       -0.392524    2.524439    0.307936
     16          6           0       -1.427229    2.290068    1.219516
     17          6           0       -2.371994    1.288017    0.978975
     18          6           0       -2.251387    0.535853   -0.188497
     19          6           0       -1.231916    0.745283   -1.115917
     20          6           0       -0.298336    1.752659   -0.854821
     21          1           0        0.337047    3.304925    0.502778
     22          1           0       -1.502852    2.887890    2.123361
     23          1           0       -3.183112    1.085328    1.667759
     24          1           0       -1.182616    0.132990   -2.008154
     25          1           0        0.504171    1.932447   -1.564542
     26          7           0       -3.245648   -0.527791   -0.454028
     27          8           0       -3.117371   -1.176642   -1.489969
     28          8           0       -4.134399   -0.692485    0.378819
 ---------------------------------------------------------------------

 SCF Done:  E(RHF) =  -868.338435590     A.U. after   16 cycles
 E2 =    -0.2605214004D+01 EUMP2 =    -0.87094364959379D+03

 The electronic state is 1-A.
 Alpha  occ. eigenvalues --  -20.61491 -20.61484 -20.61179 -20.61165 -15.86493
 Alpha  occ. eigenvalues --  -15.86210 -11.31510 -11.31307 -11.28087 -11.28034
 Alpha  occ. eigenvalues --  -11.27878 -11.27872 -11.27680 -11.27480 -11.27032
 Alpha  occ. eigenvalues --  -11.26919 -11.26808 -11.26698  -1.60564  -1.60253
 Alpha  occ. eigenvalues --   -1.40126  -1.39815  -1.19709  -1.19435  -1.09130
 Alpha  occ. eigenvalues --   -1.08884  -1.05077  -1.04807  -0.96016  -0.95775
 Alpha  occ. eigenvalues --   -0.86447  -0.86244  -0.82861  -0.82626  -0.77978
 Alpha  occ. eigenvalues --   -0.77707  -0.72724  -0.72439  -0.71908  -0.71578
 Alpha  occ. eigenvalues --   -0.70773  -0.70545  -0.65334  -0.65126  -0.65001
 Alpha  occ. eigenvalues --   -0.64811  -0.62432  -0.62165  -0.55499  -0.55296
 Alpha  occ. eigenvalues --   -0.54211  -0.53110  -0.52920  -0.52343  -0.49511
 Alpha  occ. eigenvalues --   -0.49451  -0.49208  -0.49166  -0.45592  -0.45281
 Alpha  occ. eigenvalues --   -0.38256  -0.37537  -0.36568  -0.35653
 Alpha virt. eigenvalues --    0.04269   0.04948   0.10743   0.11398   0.16158
 Alpha virt. eigenvalues --    0.16436   0.20735   0.21839   0.26254   0.27486
 Alpha virt. eigenvalues --    0.28249   0.28848   0.30566   0.31207   0.32403

 Mulliken charges:
               1
     1  C   -0.172201
     2  C   -0.218021
     3  C   -0.178311
     4  C    0.163679
     5  C   -0.170708
     6  C   -0.216886
     7  H    0.232606
     8  H    0.233689
     9  H    0.272460
    10  H    0.272880
    11  H    0.224200
    12  N    0.485490
    13  O   -0.461108
    14  O   -0.463893
    15  C   -0.171429
    16  C   -0.219971
    17  C   -0.172899
    18  C    0.158253
    19  C   -0.164299
    20  C   -0.229084
    21  H    0.233159
    22  H    0.222815
    23  H    0.273211
    24  H    0.270086
    25  H    0.235805
    26  N    0.487321
    27  O   -0.465342
    28  O   -0.461502
 Sum of Mulliken charges =  -0.00000

 Dipole moment (field-independent basis, Debye):
    X=              0.1252    Y=              0.1616    Z=              2.8082  Tot=              2.8156
 Quadrupole moment (field-independent basis, Debye-Ang):
   XX=           -136.9899   YY=            -96.8036   ZZ=            -97.2290
   XY=            -12.8203   XZ=             -0.2073   YZ=              1.1567

 Normal termination of Gaussian 16 at Fri May  7 08:02:46 2021.
