 Gaussian 16, Revision A.03,
 Gaussian 16:  EM64L-G16RevA.03 25-Dec-2016

 -------------
 #p 6-31g* mp2
 -------------

 ------------------------------------------------------
 Input file generated by CHIRIPA (05-May-2021 14:53:14)
 ------------------------------------------------------
 Symbolic Z-matrix:
 Charge =  0 Multiplicity = 1

                         Standard orientation:
 ---------------------------------------------------------------------
 Center     Atomic      Atomic             Coordinates (Angstroms)
 Number     Number       Type             X           Y           Z
 ---------------------------------------------------------------------
      1          6           0       -3.388227    0.669931   -0.563799
      2          6           0       -3.925719    1.758248    0.366068
      3          6           0       -4.199023    3.075159   -0.361150
      4          1           0       -2.464298    1.026384   -1.039447
      5          1           0       -4.111056    0.499493   -1.373654
      6          1           0       -3.202726    1.925607    1.174701
      7          1           0       -4.848373    1.399089    0.839703
      8          1           0       -4.937158    2.930004   -1.156566
      9          1           0       -3.282161    3.459514   -0.819665
     10          1           0       -4.582575    3.839101    0.322326
     11          6           0       -3.110127   -0.652531    0.148580
     12          6           0       -2.572635   -1.740848   -0.781288
     13          6           0       -2.299332   -3.057759   -0.054070
     14          1           0       -2.387298   -0.482093    0.958434
     15          1           0       -4.034057   -1.008984    0.624227
     16          1           0       -1.649982   -1.381689   -1.254923
     17          1           0       -3.295629   -1.908207   -1.589921
     18          1           0       -3.216194   -3.442114    0.404445
     19          1           0       -1.561197   -2.912604    0.741346
     20          1           0       -1.915779   -3.821701   -0.737546
     21          6           0        4.404333    1.558639   -0.496367
     22          6           0        3.426847    1.977732    0.412150
     23          6           0        2.388416    1.118804    0.784242
     24          6           0        2.358030   -0.158138    0.225862
     25          6           0        3.317146   -0.604921   -0.681755
     26          6           0        4.346466    0.270919   -1.039463
     27          1           0        5.207472    2.232443   -0.779830
     28          1           0        3.469267    2.977232    0.835524
     29          1           0        1.618641    1.417460    1.485433
     30          1           0        3.248286   -1.607164   -1.086954
     31          1           0        5.104227   -0.057258   -1.745255
     32          7           0        1.263513   -1.076398    0.612165
     33          8           0        1.259180   -2.196412    0.106015
     34          8           0        0.430689   -0.658730    1.413785
 ---------------------------------------------------------------------

 SCF Done:  E(RHF) =  -669.536894521     A.U. after   15 cycles
 E2 =    -0.2092999734D+01 EUMP2 =    -0.67162989425485D+03

 The electronic state is 1-A.
 Alpha  occ. eigenvalues --  -20.61228 -20.61220 -15.86206 -11.31444 -11.27990
 Alpha  occ. eigenvalues --  -11.27985 -11.27709 -11.26973 -11.26963 -11.20852
 Alpha  occ. eigenvalues --  -11.20563 -11.20393 -11.20045 -11.19821 -11.19045
 Alpha  occ. eigenvalues --   -1.60252  -1.39811  -1.19598  -1.09021  -1.07234
 Alpha  occ. eigenvalues --   -1.04978  -1.02297  -0.95875  -0.94736  -0.86383
 Alpha  occ. eigenvalues --   -0.85756  -0.82713  -0.78458  -0.77781  -0.76955
 Alpha  occ. eigenvalues --   -0.72418  -0.71561  -0.70705  -0.65254  -0.64984
 Alpha  occ. eigenvalues --   -0.63857  -0.62325  -0.59690  -0.58219  -0.56335
 Alpha  occ. eigenvalues --   -0.55489  -0.54025  -0.53312  -0.53067  -0.51470
 Alpha  occ. eigenvalues --   -0.51166  -0.49273  -0.49201  -0.48557  -0.46732
 Alpha  occ. eigenvalues --   -0.45492  -0.45297  -0.44537  -0.44175  -0.42544
 Alpha  occ. eigenvalues --   -0.37569  -0.36573
 Alpha virt. eigenvalues --    0.04712   0.11083   0.16205   0.21200   0.23930
 Alpha virt. eigenvalues --    0.25654   0.27150   0.27606   0.28204   0.28804
 Alpha virt. eigenvalues --    0.29262   0.30861   0.32316   0.32515   0.32713

 Mulliken charges:
               1
     1  C   -0.295829
     2  C   -0.298769
     3  C   -0.474622
     4  H    0.144102
     5  H    0.145432
     6  H    0.151695
     7  H    0.151123
     8  H    0.154226
     9  H    0.151428
    10  H    0.157173
    11  C   -0.307710
    12  C   -0.294151
    13  C   -0.478777
    14  H    0.172622
    15  H    0.143359
    16  H    0.147528
    17  H    0.142448
    18  H    0.142954
    19  H    0.181045
    20  H    0.154213
    21  C   -0.170194
    22  C   -0.218576
    23  C   -0.170590
    24  C    0.158819
    25  C   -0.170383
    26  C   -0.218598
    27  H    0.226637
    28  H    0.224449
    29  H    0.275841
    30  H    0.276343
    31  H    0.224442
    32  N    0.489587
    33  O   -0.456351
    34  O   -0.460914
 Sum of Mulliken charges =  -0.00000

 Dipole moment (field-independent basis, Debye):
    X=              4.3525    Y=              3.1715    Z=             -1.1758  Tot=              5.5123
 Quadrupole moment (field-independent basis, Debye-Ang):
   XX=            -76.6743   YY=            -95.0909   ZZ=            -94.3705
   XY=              6.1603   XZ=             -4.2182   YZ=              3.6659

 Normal termination of Gaussian 16 at Thu May  6 08:58:14 2021.
