 Gaussian 16, Revision A.03,
 Gaussian 16:  EM64L-G16RevA.03 25-Dec-2016

 -------------
 #p 6-31g* mp2
 -------------

 ------------------------------------------------------
 Input file generated by CHIRIPA (05-May-2021 14:57:23)
 ------------------------------------------------------
 Symbolic Z-matrix:
 Charge =  0 Multiplicity = 1

                         Standard orientation:
 ---------------------------------------------------------------------
 Center     Atomic      Atomic             Coordinates (Angstroms)
 Number     Number       Type             X           Y           Z
 ---------------------------------------------------------------------
      1          6           0        4.860802    1.377864    0.236582
      2          6           0        5.193775    0.020503    0.179817
      3          6           0        4.203937   -0.945434   -0.024470
      4          6           0        2.885327   -0.516753   -0.168653
      5          6           0        2.521970    0.828082   -0.116882
      6          6           0        3.528311    1.776618    0.088313
      7          1           0        5.636142    2.121468    0.395630
      8          1           0        6.227774   -0.292078    0.294638
      9          1           0        4.433825   -2.002908   -0.072638
     10          1           0        1.482473    1.109084   -0.234792
     11          1           0        3.266796    2.830065    0.131955
     12          7           0        1.828694   -1.530136   -0.385404
     13          8           0        0.674388   -1.126638   -0.509515
     14          8           0        2.174819   -2.708737   -0.427077
     15          6           0       -4.184308   -1.904158    0.276592
     16          6           0       -3.104970   -1.605788    1.114762
     17          6           0       -2.474113   -0.360181    1.043861
     18          6           0       -2.950728    0.567633    0.119042
     19          6           0       -4.023848    0.300196   -0.729594
     20          6           0       -4.639498   -0.951892   -0.641292
     21          1           0       -4.668466   -2.874292    0.338428
     22          1           0       -2.749326   -2.343392    1.828557
     23          1           0       -1.636540   -0.102866    1.680791
     24          1           0       -4.355862    1.055897   -1.431093
     25          1           0       -5.477518   -1.180850   -1.293478
     26          7           0       -2.290917    1.889733    0.034772
     27          8           0       -2.729818    2.689897   -0.788478
     28          8           0       -1.347348    2.100796    0.793566
 ---------------------------------------------------------------------

 SCF Done:  E(RHF) =  -868.340957727     A.U. after   16 cycles
 E2 =    -0.2599061425D+01 EUMP2 =    -0.87094001915209D+03

 The electronic state is 1-A.
 Alpha  occ. eigenvalues --  -20.60697 -20.60682 -20.60531 -20.60485 -15.85726
 Alpha  occ. eigenvalues --  -15.85522 -11.30798 -11.30419 -11.27420 -11.27200
 Alpha  occ. eigenvalues --  -11.27091 -11.27027 -11.26942 -11.26699 -11.26383
 Alpha  occ. eigenvalues --  -11.26225 -11.25964 -11.25859  -1.59770  -1.59564
 Alpha  occ. eigenvalues --   -1.39328  -1.39134  -1.18965  -1.18575  -1.08429
 Alpha  occ. eigenvalues --   -1.08073  -1.04306  -1.03927  -0.95301  -0.94979
 Alpha  occ. eigenvalues --   -0.85729  -0.85364  -0.82132  -0.81846  -0.77207
 Alpha  occ. eigenvalues --   -0.76914  -0.71974  -0.71771  -0.71087  -0.70834
 Alpha  occ. eigenvalues --   -0.70069  -0.69735  -0.64618  -0.64313  -0.64252
 Alpha  occ. eigenvalues --   -0.63969  -0.61628  -0.61305  -0.54857  -0.54504
 Alpha  occ. eigenvalues --   -0.52686  -0.52390  -0.52233  -0.52053  -0.48721
 Alpha  occ. eigenvalues --   -0.48691  -0.48532  -0.48482  -0.44808  -0.44624
 Alpha  occ. eigenvalues --   -0.36972  -0.36538  -0.35903  -0.35452
 Alpha virt. eigenvalues --    0.05207   0.05641   0.11741   0.12178   0.16804
 Alpha virt. eigenvalues --    0.17130   0.21871   0.22225   0.27797   0.28080
 Alpha virt. eigenvalues --    0.28565   0.29225   0.31268   0.31747   0.32647

 Mulliken charges:
               1
     1  C   -0.170478
     2  C   -0.219547
     3  C   -0.171688
     4  C    0.155067
     5  C   -0.174379
     6  C   -0.220804
     7  H    0.224954
     8  H    0.221454
     9  H    0.272807
    10  H    0.289429
    11  H    0.229562
    12  N    0.488878
    13  O   -0.465043
    14  O   -0.463209
    15  C   -0.168818
    16  C   -0.214914
    17  C   -0.152378
    18  C    0.157678
    19  C   -0.170719
    20  C   -0.219011
    21  H    0.224021
    22  H    0.223669
    23  H    0.272991
    24  H    0.272016
    25  H    0.220435
    26  N    0.489507
    27  O   -0.461421
    28  O   -0.470059
 Sum of Mulliken charges =  -0.00000

 Dipole moment (field-independent basis, Debye):
    X=              1.3625    Y=             -1.0838    Z=              1.0869  Tot=              2.0524
 Quadrupole moment (field-independent basis, Debye-Ang):
   XX=            -66.7832   YY=           -111.8232   ZZ=           -103.7175
   XY=             18.0879   XZ=              3.2160   YZ=             -2.8277

 Normal termination of Gaussian 16 at Thu May  6 00:14:24 2021.
