 Gaussian 16, Revision A.03,
 Gaussian 16:  EM64L-G16RevA.03 25-Dec-2016

 -------------
 #p 6-31g* mp2
 -------------

 ------------------------------------------------------
 Input file generated by CHIRIPA (05-May-2021 14:51:09)
 ------------------------------------------------------
 Symbolic Z-matrix:
 Charge =  0 Multiplicity = 1

                         Standard orientation:
 ---------------------------------------------------------------------
 Center     Atomic      Atomic             Coordinates (Angstroms)
 Number     Number       Type             X           Y           Z
 ---------------------------------------------------------------------
      1          6           0       -4.358723    0.503671    0.347113
      2          6           0       -5.352881    1.357883   -0.440261
      3          6           0       -6.099684    2.359412    0.441225
      4          1           0       -4.895045   -0.033379    1.141393
      5          1           0       -3.636157    1.162602    0.848216
      6          1           0       -6.072522    0.697472   -0.940850
      7          1           0       -4.814160    1.892814   -1.232880
      8          1           0       -5.396619    3.041715    0.929859
      9          1           0       -6.662132    1.839582    1.223549
     10          1           0       -6.805105    2.959557   -0.141927
     11          6           0       -3.604363   -0.502390   -0.520360
     12          6           0       -2.610205   -1.356602    0.267013
     13          6           0       -1.863402   -2.358131   -0.614473
     14          1           0       -4.326928   -1.161321   -1.021463
     15          1           0       -3.068040    0.034660   -1.314640
     16          1           0       -3.148926   -1.891532    1.059632
     17          1           0       -1.890563   -0.696191    0.767602
     18          1           0       -1.300954   -1.838301   -1.396796
     19          1           0       -2.566466   -3.040434   -1.103107
     20          1           0       -1.157980   -2.958276   -0.031321
     21          6           0        3.474313   -0.488324   -0.210555
     22          6           0        2.695035   -1.271606    0.846412
     23          6           0        1.684181   -2.243107    0.236368
     24          1           0        2.766960    0.065470   -0.842939
     25          1           0        3.996012   -1.195404   -0.870299
     26          1           0        2.176073   -0.563224    1.504810
     27          1           0        3.404337   -1.823447    1.476473
     28          1           0        2.189439   -2.972204   -0.405296
     29          1           0        0.954196   -1.704820   -0.376797
     30          1           0        1.138295   -2.792536    1.009669
     31          6           0        4.488772    0.487043    0.383803
     32          6           0        5.268051    1.270325   -0.673164
     33          6           0        6.278905    2.241826   -0.063120
     34          1           0        3.967072    1.194123    1.043546
     35          1           0        5.196125   -0.066750    1.016186
     36          1           0        4.558749    1.822166   -1.303226
     37          1           0        5.787012    0.561942   -1.331563
     38          1           0        7.008889    1.703539    0.550045
     39          1           0        5.773647    2.970924    0.578542
     40          1           0        6.824790    2.791256   -0.836422
 ---------------------------------------------------------------------

 SCF Done:  E(RHF) =  -470.731872060     A.U. after   11 cycles
 E2 =    -0.1583068434D+01 EUMP2 =    -0.47231494049409D+03

 The electronic state is 1-A.
 Alpha  occ. eigenvalues --  -11.21604 -11.21599 -11.21569 -11.21563 -11.21402
 Alpha  occ. eigenvalues --  -11.21393 -11.21343 -11.21333 -11.21074 -11.21071
 Alpha  occ. eigenvalues --  -11.20965 -11.20926  -1.08432  -1.08404  -1.03564
 Alpha  occ. eigenvalues --   -1.03457  -0.96076  -0.95849  -0.87145  -0.86819
 Alpha  occ. eigenvalues --   -0.79684  -0.79470  -0.78244  -0.78218  -0.65108
 Alpha  occ. eigenvalues --   -0.65003  -0.61107  -0.60759  -0.59544  -0.59154
 Alpha  occ. eigenvalues --   -0.57632  -0.57513  -0.55521  -0.54995  -0.52995
 Alpha  occ. eigenvalues --   -0.52530  -0.52321  -0.52194  -0.50115  -0.49640
 Alpha  occ. eigenvalues --   -0.47920  -0.47844  -0.46706  -0.46479  -0.45793
 Alpha  occ. eigenvalues --   -0.45747  -0.45713  -0.45667  -0.43926  -0.43559
 Alpha virt. eigenvalues --    0.21833   0.23101   0.23568   0.25141   0.26316
 Alpha virt. eigenvalues --    0.26843   0.27083   0.27187   0.27691   0.28835
 Alpha virt. eigenvalues --    0.29409   0.31186   0.31675   0.32024   0.32284

 Mulliken charges:
               1
     1  C   -0.298186
     2  C   -0.299619
     3  C   -0.475682
     4  H    0.149665
     5  H    0.149220
     6  H    0.151980
     7  H    0.151813
     8  H    0.155082
     9  H    0.155197
    10  H    0.160233
    11  C   -0.298150
    12  C   -0.300906
    13  C   -0.479509
    14  H    0.149720
    15  H    0.149246
    16  H    0.151832
    17  H    0.151747
    18  H    0.153447
    19  H    0.154398
    20  H    0.168099
    21  C   -0.298436
    22  C   -0.299885
    23  C   -0.479580
    24  H    0.149120
    25  H    0.149596
    26  H    0.151300
    27  H    0.151465
    28  H    0.154721
    29  H    0.163371
    30  H    0.158785
    31  C   -0.298223
    32  C   -0.299613
    33  C   -0.475691
    34  H    0.149369
    35  H    0.149741
    36  H    0.151777
    37  H    0.151966
    38  H    0.155217
    39  H    0.155130
    40  H    0.160242
 Sum of Mulliken charges =  -0.00000

 Dipole moment (field-independent basis, Debye):
    X=              0.0037    Y=             -0.0257    Z=             -0.0056  Tot=              0.0266
 Quadrupole moment (field-independent basis, Debye-Ang):
   XX=            -84.8983   YY=            -84.8798   ZZ=            -85.1552
   XY=             -0.1089   XZ=             -0.1097   YZ=             -0.7182

 Normal termination of Gaussian 16 at Wed May  5 16:38:51 2021.
