 Gaussian 16, Revision A.03,
 Gaussian 16:  EM64L-G16RevA.03 25-Dec-2016

 -------------
 #p 6-31g* mp2
 -------------

 ------------------------------------------------------
 Input file generated by CHIRIPA (05-May-2021 14:53:15)
 ------------------------------------------------------
 Symbolic Z-matrix:
 Charge =  0 Multiplicity = 1

                         Standard orientation:
 ---------------------------------------------------------------------
 Center     Atomic      Atomic             Coordinates (Angstroms)
 Number     Number       Type             X           Y           Z
 ---------------------------------------------------------------------
      1          6           0       -3.599291    0.781839   -0.176540
      2          6           0       -4.797041    1.730362   -0.115846
      3          6           0       -4.393757    3.200274   -0.236329
      4          1           0       -2.895944    1.037671    0.627697
      5          1           0       -3.063114    0.939551   -1.122603
      6          1           0       -5.331599    1.569937    0.829208
      7          1           0       -5.497711    1.472119   -0.920202
      8          1           0       -3.879673    3.382134   -1.185669
      9          1           0       -3.712617    3.480508    0.573682
     10          1           0       -5.265276    3.860739   -0.190506
     11          6           0       -3.986370   -0.691155   -0.057423
     12          6           0       -2.788620   -1.639678   -0.118117
     13          6           0       -3.191905   -3.109590    0.002366
     14          1           0       -4.522548   -0.848867    0.888640
     15          1           0       -4.689718   -0.946987   -0.861660
     16          1           0       -2.087951   -1.381435    0.686239
     17          1           0       -2.254063   -1.479254   -1.063172
     18          1           0       -3.873045   -3.389824   -0.807645
     19          1           0       -3.705989   -3.291450    0.951706
     20          1           0       -2.320386   -3.770055   -0.043458
     21          6           0        0.997645   -1.576624    0.448351
     22          6           0        2.121931   -2.026604   -0.251665
     23          6           0        3.216725   -1.181343   -0.455406
     24          6           0        3.153167    0.113574    0.056883
     25          6           0        2.047294    0.591186    0.758467
     26          6           0        0.963974   -0.271467    0.950298
     27          1           0        0.151641   -2.239999    0.601996
     28          1           0        2.150856   -3.039703   -0.642611
     29          1           0        4.099709   -1.503861   -0.993680
     30          1           0        2.047706    1.606398    1.136306
     31          1           0        0.092160    0.080701    1.494323
     32          7           0        4.306102    1.017620   -0.152505
     33          8           0        4.225415    2.153965    0.308848
     34          8           0        5.268627    0.572748   -0.774010
 ---------------------------------------------------------------------

 SCF Done:  E(RHF) =  -669.535006491     A.U. after   15 cycles
 E2 =    -0.2092104165D+01 EUMP2 =    -0.67162711065563D+03

 The electronic state is 1-A.
 Alpha  occ. eigenvalues --  -20.60707 -20.60702 -15.85762 -11.31108 -11.27685
 Alpha  occ. eigenvalues --  -11.27682 -11.27367 -11.26683 -11.26673 -11.22810
 Alpha  occ. eigenvalues --  -11.22305 -11.22229 -11.22221 -11.22166 -11.21558
 Alpha  occ. eigenvalues --   -1.59784  -1.39338  -1.19281  -1.09324  -1.08672
 Alpha  occ. eigenvalues --   -1.04687  -1.04408  -0.96831  -0.95513  -0.87842
 Alpha  occ. eigenvalues --   -0.86086  -0.82356  -0.80510  -0.79112  -0.77401
 Alpha  occ. eigenvalues --   -0.71980  -0.71108  -0.70399  -0.65964  -0.64932
 Alpha  occ. eigenvalues --   -0.64692  -0.62054  -0.61777  -0.60254  -0.58466
 Alpha  occ. eigenvalues --   -0.56097  -0.55131  -0.53537  -0.53254  -0.53009
 Alpha  occ. eigenvalues --   -0.52780  -0.50759  -0.48795  -0.48737  -0.48728
 Alpha  occ. eigenvalues --   -0.47531  -0.46643  -0.46534  -0.44748  -0.44653
 Alpha  occ. eigenvalues --   -0.37233  -0.36292
 Alpha virt. eigenvalues --    0.05129   0.11327   0.16588   0.19261   0.22298
 Alpha virt. eigenvalues --    0.23102   0.24470   0.25936   0.26298   0.28552
 Alpha virt. eigenvalues --    0.29224   0.30223   0.30871   0.31130   0.32183

 Mulliken charges:
               1
     1  C   -0.298371
     2  C   -0.300482
     3  C   -0.476177
     4  H    0.143848
     5  H    0.153012
     6  H    0.152672
     7  H    0.153988
     8  H    0.157185
     9  H    0.154711
    10  H    0.162706
    11  C   -0.298601
    12  C   -0.304273
    13  C   -0.477674
    14  H    0.151272
    15  H    0.153669
    16  H    0.141152
    17  H    0.157317
    18  H    0.161496
    19  H    0.158839
    20  H    0.154615
    21  C   -0.172533
    22  C   -0.220207
    23  C   -0.170812
    24  C    0.158028
    25  C   -0.171112
    26  C   -0.220653
    27  H    0.232563
    28  H    0.222963
    29  H    0.275227
    30  H    0.275270
    31  H    0.223676
    32  N    0.488095
    33  O   -0.460693
    34  O   -0.460716
 Sum of Mulliken charges =  -0.00000

 Dipole moment (field-independent basis, Debye):
    X=             -4.3266    Y=             -3.1543    Z=              0.6411  Tot=              5.3926
 Quadrupole moment (field-independent basis, Debye-Ang):
   XX=           -118.9339   YY=            -94.2095   ZZ=            -93.0517
   XY=            -12.7126   XZ=              1.1078   YZ=              2.1814

 Normal termination of Gaussian 16 at Thu May  6 04:18:20 2021.
