 Gaussian 16, Revision A.03,
 Gaussian 16:  EM64L-G16RevA.03 25-Dec-2016

 -------------
 #p 6-31g* mp2
 -------------

 ------------------------------------------------------
 Input file generated by CHIRIPA (05-May-2021 14:53:12)
 ------------------------------------------------------
 Symbolic Z-matrix:
 Charge =  0 Multiplicity = 1

                         Standard orientation:
 ---------------------------------------------------------------------
 Center     Atomic      Atomic             Coordinates (Angstroms)
 Number     Number       Type             X           Y           Z
 ---------------------------------------------------------------------
      1          6           0       -3.777427    0.833680   -0.476421
      2          6           0       -3.056043    1.730888    0.529863
      3          6           0       -2.610105    3.061225   -0.077702
      4          1           0       -3.113377    0.643939   -1.330810
      5          1           0       -4.651804    1.368228   -0.872803
      6          1           0       -2.184073    1.194281    0.925259
      7          1           0       -3.721818    1.918358    1.382045
      8          1           0       -3.472135    3.620230   -0.455878
      9          1           0       -1.925653    2.892039   -0.915260
     10          1           0       -2.096641    3.686956    0.658964
     11          6           0       -4.229372   -0.499900    0.116064
     12          6           0       -4.950756   -1.397108   -0.890221
     13          6           0       -5.396695   -2.727446   -0.282656
     14          1           0       -3.354996   -1.034449    0.512446
     15          1           0       -4.893422   -0.310159    0.970453
     16          1           0       -4.284981   -1.584578   -1.742403
     17          1           0       -5.822726   -0.860501   -1.285617
     18          1           0       -6.081146   -2.558260    0.554902
     19          1           0       -4.534664   -3.286451    0.095521
     20          1           0       -5.910158   -3.353176   -1.019321
     21          6           0        0.918612    0.331138    1.269057
     22          6           0        1.681988   -0.776794    1.651503
     23          6           0        2.907477   -1.042225    1.033224
     24          6           0        3.341218   -0.175001    0.031686
     25          6           0        2.603492    0.936971   -0.371515
     26          6           0        1.380986    1.182983    0.260547
     27          1           0       -0.032220    0.529790    1.754705
     28          1           0        1.325393   -1.440059    2.434424
     29          1           0        3.518615   -1.892791    1.309748
     30          1           0        2.985212    1.580106   -1.155151
     31          1           0        0.790250    2.044167   -0.038515
     32          7           0        4.637010   -0.445722   -0.630154
     33          8           0        4.996976    0.333534   -1.509825
     34          8           0        5.268152   -1.432044   -0.256700
 ---------------------------------------------------------------------

 SCF Done:  E(RHF) =  -669.535493985     A.U. after   15 cycles
 E2 =    -0.2091564230D+01 EUMP2 =    -0.67162705821497D+03

 The electronic state is 1-A.
 Alpha  occ. eigenvalues --  -20.60755 -20.60750 -15.85809 -11.31176 -11.27743
 Alpha  occ. eigenvalues --  -11.27737 -11.27462 -11.26757 -11.26736 -11.22777
 Alpha  occ. eigenvalues --  -11.22253 -11.22217 -11.22194 -11.22120 -11.21574
 Alpha  occ. eigenvalues --   -1.59831  -1.39384  -1.19346  -1.09280  -1.08739
 Alpha  occ. eigenvalues --   -1.04748  -1.04380  -0.96810  -0.95577  -0.87829
 Alpha  occ. eigenvalues --   -0.86143  -0.82411  -0.80470  -0.79060  -0.77454
 Alpha  occ. eigenvalues --   -0.72026  -0.71154  -0.70480  -0.65926  -0.64995
 Alpha  occ. eigenvalues --   -0.64744  -0.62129  -0.61737  -0.60206  -0.58414
 Alpha  occ. eigenvalues --   -0.56091  -0.55279  -0.53518  -0.53228  -0.53076
 Alpha  occ. eigenvalues --   -0.52833  -0.50749  -0.48798  -0.48782  -0.48751
 Alpha  occ. eigenvalues --   -0.47497  -0.46599  -0.46499  -0.44789  -0.44616
 Alpha  occ. eigenvalues --   -0.37322  -0.36353
 Alpha virt. eigenvalues --    0.05063   0.11272   0.16498   0.18897   0.22669
 Alpha virt. eigenvalues --    0.23596   0.24818   0.25783   0.26696   0.28365
 Alpha virt. eigenvalues --    0.29000   0.30099   0.30970   0.31360   0.32033

 Mulliken charges:
               1
     1  C   -0.298383
     2  C   -0.304217
     3  C   -0.479343
     4  H    0.152032
     5  H    0.153114
     6  H    0.142948
     7  H    0.156112
     8  H    0.162266
     9  H    0.153623
    10  H    0.159437
    11  C   -0.298390
    12  C   -0.300439
    13  C   -0.476133
    14  H    0.146579
    15  H    0.150557
    16  H    0.153893
    17  H    0.153497
    18  H    0.155556
    19  H    0.155019
    20  H    0.162690
    21  C   -0.175699
    22  C   -0.219080
    23  C   -0.170978
    24  C    0.158611
    25  C   -0.171313
    26  C   -0.223355
    27  H    0.231700
    28  H    0.223634
    29  H    0.275495
    30  H    0.275691
    31  H    0.227756
    32  N    0.488028
    33  O   -0.460443
    34  O   -0.460465
 Sum of Mulliken charges =  -0.00000

 Dipole moment (field-independent basis, Debye):
    X=             -4.7889    Y=              0.9570    Z=              2.2637  Tot=              5.3827
 Quadrupole moment (field-independent basis, Debye-Ang):
   XX=           -124.3565   YY=            -92.6799   ZZ=            -93.5076
   XY=              2.5408   XZ=              8.1844   YZ=             -2.7381

 Normal termination of Gaussian 16 at Thu May  6 08:50:24 2021.
