 Gaussian 16, Revision A.03,
 Gaussian 16:  EM64L-G16RevA.03 25-Dec-2016

 -------------
 #p 6-31g* mp2
 -------------

 ------------------------------------------------------
 Input file generated by CHIRIPA (05-May-2021 14:55:22)
 ------------------------------------------------------
 Symbolic Z-matrix:
 Charge =  0 Multiplicity = 1

                         Standard orientation:
 ---------------------------------------------------------------------
 Center     Atomic      Atomic             Coordinates (Angstroms)
 Number     Number       Type             X           Y           Z
 ---------------------------------------------------------------------
      1          6           0        1.471896    1.936824    1.489865
      2          6           0        1.529660    0.570216    1.782379
      3          6           0        2.274686   -0.297188    0.977957
      4          6           0        2.952709    0.238387   -0.115997
      5          6           0        2.914675    1.595252   -0.433427
      6          6           0        2.163369    2.444087    0.384844
      7          1           0        0.890702    2.603432    2.120138
      8          1           0        0.993662    0.173478    2.639905
      9          1           0        2.336627   -1.359337    1.181478
     10          1           0        3.459616    1.961330   -1.295078
     11          1           0        2.120313    3.504976    0.155270
     12          7           0        3.744759   -0.670065   -0.974933
     13          8           0        4.333122   -0.173394   -1.932943
     14          8           0        3.762208   -1.861580   -0.673892
     15          6           0       -4.074131   -0.282232   -0.602095
     16          6           0       -5.131870    0.735640   -0.174180
     17          6           0       -6.048002    1.155122   -1.324194
     18          1           0       -3.471740    0.144510   -1.415705
     19          1           0       -4.574555   -1.168810   -1.015559
     20          1           0       -4.629635    1.619460    0.239629
     21          1           0       -5.731691    0.306499    0.638636
     22          1           0       -6.575207    0.287071   -1.733025
     23          1           0       -5.466891    1.607492   -2.134299
     24          1           0       -6.796520    1.883101   -0.996127
     25          6           0       -3.150622   -0.711332    0.536646
     26          6           0       -2.092883   -1.729204    0.108731
     27          6           0       -1.176752   -2.148686    1.258745
     28          1           0       -2.650199    0.175245    0.950111
     29          1           0       -3.753013   -1.138074    1.350256
     30          1           0       -1.493063   -1.300062   -0.704084
     31          1           0       -2.595118   -2.613025   -0.305077
     32          1           0       -1.757862   -2.601057    2.068850
     33          1           0       -0.649546   -1.280635    1.667576
     34          1           0       -0.428234   -2.876665    0.930678
 ---------------------------------------------------------------------

 SCF Done:  E(RHF) =  -669.534886942     A.U. after   15 cycles
 E2 =    -0.2092250160D+01 EUMP2 =    -0.67162713710123D+03

 The electronic state is 1-A.
 Alpha  occ. eigenvalues --  -20.60791 -20.60786 -15.85846 -11.31221 -11.27799
 Alpha  occ. eigenvalues --  -11.27784 -11.27548 -11.26815 -11.26793 -11.21924
 Alpha  occ. eigenvalues --  -11.21919 -11.21766 -11.21665 -11.21533 -11.21330
 Alpha  occ. eigenvalues --   -1.59867  -1.39419  -1.19405  -1.08802  -1.08762
 Alpha  occ. eigenvalues --   -1.04817  -1.03868  -0.96342  -0.95625  -0.87369
 Alpha  occ. eigenvalues --   -0.86207  -0.82465  -0.79942  -0.78580  -0.77501
 Alpha  occ. eigenvalues --   -0.72063  -0.71190  -0.70506  -0.65414  -0.65055
 Alpha  occ. eigenvalues --   -0.64825  -0.62215  -0.61231  -0.59695  -0.57941
 Alpha  occ. eigenvalues --   -0.55686  -0.55292  -0.53175  -0.53054  -0.52951
 Alpha  occ. eigenvalues --   -0.52640  -0.50264  -0.48824  -0.48816  -0.48250
 Alpha  occ. eigenvalues --   -0.46959  -0.46123  -0.46042  -0.44822  -0.44126
 Alpha  occ. eigenvalues --   -0.37387  -0.36357
 Alpha virt. eigenvalues --    0.05017   0.11154   0.16386   0.20781   0.22674
 Alpha virt. eigenvalues --    0.24082   0.25880   0.26514   0.27020   0.28055
 Alpha virt. eigenvalues --    0.29071   0.29533   0.31394   0.31547   0.32113

 Mulliken charges:
               1
     1  C   -0.172432
     2  C   -0.219829
     3  C   -0.167489
     4  C    0.157523
     5  C   -0.170843
     6  C   -0.218815
     7  H    0.225836
     8  H    0.224957
     9  H    0.277374
    10  H    0.275747
    11  H    0.223544
    12  N    0.488130
    13  O   -0.460405
    14  O   -0.460221
    15  C   -0.298738
    16  C   -0.299432
    17  C   -0.475865
    18  H    0.150886
    19  H    0.151342
    20  H    0.149515
    21  H    0.152098
    22  H    0.156444
    23  H    0.155587
    24  H    0.160340
    25  C   -0.297833
    26  C   -0.298707
    27  C   -0.482012
    28  H    0.144992
    29  H    0.149474
    30  H    0.155574
    31  H    0.154911
    32  H    0.155156
    33  H    0.148799
    34  H    0.164391
 Sum of Mulliken charges =  -0.00000

 Dipole moment (field-independent basis, Debye):
    X=             -2.8156    Y=              3.1774    Z=              2.9519  Tot=              5.1708
 Quadrupole moment (field-independent basis, Debye-Ang):
   XX=           -111.6472   YY=            -89.9631   ZZ=            -94.8680
   XY=             10.8919   XZ=              7.9417   YZ=             -1.9879

 Normal termination of Gaussian 16 at Thu May  6 15:50:39 2021.
