 Gaussian 16, Revision A.03,
 Gaussian 16:  EM64L-G16RevA.03 25-Dec-2016

 -------------
 #p 6-31g* mp2
 -------------

 ------------------------------------------------------
 Input file generated by CHIRIPA (05-May-2021 14:55:25)
 ------------------------------------------------------
 Symbolic Z-matrix:
 Charge =  0 Multiplicity = 1

                         Standard orientation:
 ---------------------------------------------------------------------
 Center     Atomic      Atomic             Coordinates (Angstroms)
 Number     Number       Type             X           Y           Z
 ---------------------------------------------------------------------
      1          6           0       -3.889086    1.302419   -0.300834
      2          6           0       -4.281805    0.096210    0.288532
      3          6           0       -3.378707   -0.964745    0.404017
      4          6           0       -2.084970   -0.784178   -0.082735
      5          6           0       -1.663623    0.405375   -0.674951
      6          6           0       -2.583550    1.452887   -0.779850
      7          1           0       -4.597170    2.121373   -0.386434
      8          1           0       -5.295054   -0.023480    0.661420
      9          1           0       -3.656205   -1.909336    0.855859
     10          1           0       -0.646745    0.494816   -1.037409
     11          1           0       -2.275777    2.388514   -1.238024
     12          7           0       -1.119993   -1.900247    0.033920
     13          8           0        0.014032   -1.715948   -0.402724
     14          8           0       -1.515940   -2.938189    0.559791
     15          6           0        2.393438    1.171349    0.568284
     16          6           0        1.763379    2.360432   -0.157729
     17          6           0        0.807752    3.156960    0.731154
     18          1           0        1.596670    0.510799    0.936765
     19          1           0        2.932422    1.535170    1.454019
     20          1           0        1.226904    1.994620   -1.042597
     21          1           0        2.561746    3.018129   -0.524690
     22          1           0        1.333665    3.549465    1.607485
     23          1           0       -0.008761    2.520141    1.086636
     24          1           0        0.368692    4.002299    0.192184
     25          6           0        3.351227    0.365256   -0.307263
     26          6           0        3.981285   -0.823826    0.418750
     27          6           0        4.936913   -1.620355   -0.470132
     28          1           0        2.812243    0.001434   -1.192997
     29          1           0        4.147995    1.025805   -0.675744
     30          1           0        3.182919   -1.481524    0.785712
     31          1           0        4.517761   -0.458016    1.303619
     32          1           0        5.753426   -0.983536   -0.825614
     33          1           0        4.411000   -2.012859   -1.346464
     34          1           0        5.375973   -2.465695    0.068838
 ---------------------------------------------------------------------

 SCF Done:  E(RHF) =  -669.535984495     A.U. after   15 cycles
 E2 =    -0.2093850778D+01 EUMP2 =    -0.67162983527318D+03

 The electronic state is 1-A.
 Alpha  occ. eigenvalues --  -20.61010 -20.61005 -15.86029 -11.31301 -11.27861
 Alpha  occ. eigenvalues --  -11.27830 -11.27583 -11.26862 -11.26840 -11.21760
 Alpha  occ. eigenvalues --  -11.21324 -11.20957 -11.20713 -11.20649 -11.20238
 Alpha  occ. eigenvalues --   -1.60062  -1.39620  -1.19471  -1.08880  -1.07996
 Alpha  occ. eigenvalues --   -1.04860  -1.03152  -0.95730  -0.95599  -0.86641
 Alpha  occ. eigenvalues --   -0.86253  -0.82563  -0.79284  -0.77698  -0.77632
 Alpha  occ. eigenvalues --   -0.72260  -0.71373  -0.70590  -0.65127  -0.64979
 Alpha  occ. eigenvalues --   -0.64536  -0.62220  -0.60475  -0.59060  -0.57188
 Alpha  occ. eigenvalues --   -0.55360  -0.54891  -0.53172  -0.52951  -0.52369
 Alpha  occ. eigenvalues --   -0.52016  -0.49564  -0.49018  -0.48996  -0.47573
 Alpha  occ. eigenvalues --   -0.46321  -0.45378  -0.45201  -0.44765  -0.43363
 Alpha  occ. eigenvalues --   -0.37445  -0.36423
 Alpha virt. eigenvalues --    0.04844   0.11148   0.16288   0.19762   0.23283
 Alpha virt. eigenvalues --    0.24457   0.26054   0.27139   0.27635   0.28413
 Alpha virt. eigenvalues --    0.29730   0.30950   0.31539   0.31827   0.32479

 Mulliken charges:
               1
     1  C   -0.170753
     2  C   -0.218743
     3  C   -0.170340
     4  C    0.157521
     5  C   -0.176870
     6  C   -0.220020
     7  H    0.226306
     8  H    0.223946
     9  H    0.275766
    10  H    0.285433
    11  H    0.225818
    12  N    0.488831
    13  O   -0.462571
    14  O   -0.458248
    15  C   -0.302429
    16  C   -0.301980
    17  C   -0.480033
    18  H    0.159811
    19  H    0.147921
    20  H    0.139638
    21  H    0.154679
    22  H    0.159002
    23  H    0.156712
    24  H    0.153298
    25  C   -0.296432
    26  C   -0.303132
    27  C   -0.475924
    28  H    0.155661
    29  H    0.144001
    30  H    0.168526
    31  H    0.146282
    32  H    0.150029
    33  H    0.159061
    34  H    0.159232
 Sum of Mulliken charges =  -0.00000

 Dipole moment (field-independent basis, Debye):
    X=             -3.5250    Y=              3.7093    Z=             -0.3602  Tot=              5.1297
 Quadrupole moment (field-independent basis, Debye-Ang):
   XX=            -78.6202   YY=           -100.1891   ZZ=            -94.6272
   XY=             -2.7860   XZ=              0.0504   YZ=             -1.5780

 Normal termination of Gaussian 16 at Thu May  6 14:24:37 2021.
