 Gaussian 16, Revision A.03,
 Gaussian 16:  EM64L-G16RevA.03 25-Dec-2016

 -------------
 #p 6-31g* mp2
 -------------

 ------------------------------------------------------
 Input file generated by CHIRIPA (05-May-2021 14:57:26)
 ------------------------------------------------------
 Symbolic Z-matrix:
 Charge =  0 Multiplicity = 1

                         Standard orientation:
 ---------------------------------------------------------------------
 Center     Atomic      Atomic             Coordinates (Angstroms)
 Number     Number       Type             X           Y           Z
 ---------------------------------------------------------------------
      1          6           0       -5.452386   -0.875937    0.532805
      2          6           0       -5.011353    0.394085    0.918880
      3          6           0       -3.741865    0.847780    0.548597
      4          6           0       -2.935908    0.001486   -0.211343
      5          6           0       -3.346810   -1.269092   -0.611446
      6          6           0       -4.620174   -1.702016   -0.229782
      7          1           0       -6.440061   -1.220311    0.824870
      8          1           0       -5.655515    1.037779    1.511129
      9          1           0       -3.375276    1.826381    0.833853
     10          1           0       -2.682071   -1.888097   -1.201677
     11          1           0       -4.960049   -2.688815   -0.531041
     12          7           0       -1.589907    0.470798   -0.609370
     13          8           0       -0.898943   -0.293919   -1.279007
     14          8           0       -1.251360    1.594476   -0.244169
     15          6           0        2.079820    2.347472   -0.063517
     16          6           0        2.537466    1.681943   -1.205512
     17          6           0        3.136299    0.422928   -1.101456
     18          6           0        3.261955   -0.143748    0.165974
     19          6           0        2.815983    0.494220    1.322433
     20          6           0        2.220292    1.752535    1.194592
     21          1           0        1.615853    3.325233   -0.153588
     22          1           0        2.429695    2.141567   -2.183865
     23          1           0        3.499407   -0.114463   -1.969086
     24          1           0        2.937349    0.010634    2.284114
     25          1           0        1.865804    2.267071    2.083207
     26          7           0        3.894251   -1.476241    0.288723
     27          8           0        3.993189   -1.954030    1.416804
     28          8           0        4.278932   -2.017628   -0.745470
 ---------------------------------------------------------------------

 SCF Done:  E(RHF) =  -868.338758858     A.U. after   16 cycles
 E2 =    -0.2600044011D+01 EUMP2 =    -0.87093880286858D+03

 The electronic state is 1-A.
 Alpha  occ. eigenvalues --  -20.61312 -20.61269 -20.59617 -20.59605 -15.86331
 Alpha  occ. eigenvalues --  -15.84660 -11.31557 -11.29658 -11.28137 -11.28077
 Alpha  occ. eigenvalues --  -11.27818 -11.27105 -11.27063 -11.26298 -11.26228
 Alpha  occ. eigenvalues --  -11.25885 -11.25185 -11.25097  -1.60352  -1.58697
 Alpha  occ. eigenvalues --   -1.39915  -1.38263  -1.19714  -1.17810  -1.09134
 Alpha  occ. eigenvalues --   -1.07253  -1.05096  -1.03201  -0.95995  -0.94159
 Alpha  occ. eigenvalues --   -0.86501  -0.84621  -0.82836  -0.81037  -0.77897
 Alpha  occ. eigenvalues --   -0.76139  -0.72573  -0.71665  -0.70899  -0.70820
 Alpha  occ. eigenvalues --   -0.70011  -0.68938  -0.65371  -0.65097  -0.63491
 Alpha  occ. eigenvalues --   -0.63250  -0.62446  -0.60609  -0.55603  -0.53692
 Alpha  occ. eigenvalues --   -0.53434  -0.53186  -0.51582  -0.51340  -0.49311
 Alpha  occ. eigenvalues --   -0.49193  -0.47664  -0.47618  -0.45358  -0.43754
 Alpha  occ. eigenvalues --   -0.37685  -0.36693  -0.35606  -0.34768
 Alpha virt. eigenvalues --    0.04623   0.06443   0.10963   0.12894   0.16160
 Alpha virt. eigenvalues --    0.18049   0.21124   0.22843   0.27036   0.28004
 Alpha virt. eigenvalues --    0.28665   0.29734   0.30694   0.32204   0.32354

 Mulliken charges:
               1
     1  C   -0.170240
     2  C   -0.218428
     3  C   -0.171220
     4  C    0.158238
     5  C   -0.170253
     6  C   -0.218398
     7  H    0.227011
     8  H    0.223747
     9  H    0.272675
    10  H    0.277797
    11  H    0.225604
    12  N    0.489462
    13  O   -0.456415
    14  O   -0.467763
    15  C   -0.146554
    16  C   -0.211515
    17  C   -0.164979
    18  C    0.157559
    19  C   -0.173908
    20  C   -0.218516
    21  H    0.223680
    22  H    0.219162
    23  H    0.270901
    24  H    0.268645
    25  H    0.216172
    26  N    0.488395
    27  O   -0.466717
    28  O   -0.464142
 Sum of Mulliken charges =  -0.00000

 Dipole moment (field-independent basis, Debye):
    X=             -7.3817    Y=              3.1248    Z=              0.7734  Tot=              8.0531
 Quadrupole moment (field-independent basis, Debye-Ang):
   XX=            -93.5820   YY=           -103.2442   ZZ=           -100.4626
   XY=             20.5707   XZ=             -6.6631   YZ=              3.7154

 Normal termination of Gaussian 16 at Fri May  7 06:39:18 2021.
