 Gaussian 16, Revision A.03,
 Gaussian 16:  EM64L-G16RevA.03 25-Dec-2016

 -------------
 #p 6-31g* mp2
 -------------

 ------------------------------------------------------
 Input file generated by CHIRIPA (05-May-2021 14:55:24)
 ------------------------------------------------------
 Symbolic Z-matrix:
 Charge =  0 Multiplicity = 1

                         Standard orientation:
 ---------------------------------------------------------------------
 Center     Atomic      Atomic             Coordinates (Angstroms)
 Number     Number       Type             X           Y           Z
 ---------------------------------------------------------------------
      1          6           0        4.076582   -2.315351    0.368790
      2          6           0        3.098625   -1.859124    1.258722
      3          6           0        2.475285   -0.624161    1.056581
      4          6           0        2.855956    0.132153   -0.050834
      5          6           0        3.826868   -0.295039   -0.955337
      6          6           0        4.436947   -1.533231   -0.733456
      7          1           0        4.555657   -3.275954    0.533485
      8          1           0        2.816761   -2.464408    2.115593
      9          1           0        1.715139   -0.246825    1.729793
     10          1           0        4.086765    0.330687   -1.800524
     11          1           0        5.196122   -1.885012   -1.426239
     12          7           0        2.203073    1.441263   -0.275280
     13          8           0        2.556242    2.088708   -1.258501
     14          8           0        1.350537    1.795108    0.536269
     15          6           0       -3.435449    0.736690   -0.224854
     16          6           0       -2.773208    1.529979    0.902140
     17          6           0       -2.061260    2.786905    0.401083
     18          1           0       -2.673226    0.457597   -0.965171
     19          1           0       -4.154847    1.383729   -0.745626
     20          1           0       -2.056278    0.881225    1.421510
     21          1           0       -3.537063    1.807052    1.639956
     22          1           0       -2.768268    3.456540   -0.099245
     23          1           0       -1.279070    2.525452   -0.318932
     24          1           0       -1.594916    3.338821    1.223138
     25          6           0       -4.151263   -0.522664    0.260291
     26          6           0       -4.813502   -1.315952   -0.866703
     27          6           0       -5.525452   -2.572879   -0.365647
     28          1           0       -3.431864   -1.169702    0.781062
     29          1           0       -4.913485   -0.243570    1.000607
     30          1           0       -4.049649   -1.593026   -1.604519
     31          1           0       -5.530433   -0.667198   -1.386073
     32          1           0       -6.307642   -2.311426    0.354369
     33          1           0       -4.818442   -3.242514    0.134682
     34          1           0       -5.991794   -3.124795   -1.187701
 ---------------------------------------------------------------------

 SCF Done:  E(RHF) =  -669.535810163     A.U. after   15 cycles
 E2 =    -0.2091164713D+01 EUMP2 =    -0.67162697487615D+03

 The electronic state is 1-A.
 Alpha  occ. eigenvalues --  -20.60949 -20.60938 -15.85975 -11.31307 -11.27872
 Alpha  occ. eigenvalues --  -11.27867 -11.27608 -11.26879 -11.26869 -11.21265
 Alpha  occ. eigenvalues --  -11.20925 -11.20851 -11.20675 -11.20596 -11.19501
 Alpha  occ. eigenvalues --   -1.60011  -1.39565  -1.19476  -1.08879  -1.07806
 Alpha  occ. eigenvalues --   -1.04873  -1.02788  -0.95723  -0.95206  -0.86278
 Alpha  occ. eigenvalues --   -0.86218  -0.82550  -0.78903  -0.77604  -0.77577
 Alpha  occ. eigenvalues --   -0.72197  -0.71330  -0.70584  -0.65132  -0.64875
 Alpha  occ. eigenvalues --   -0.64443  -0.62220  -0.60177  -0.58665  -0.56816
 Alpha  occ. eigenvalues --   -0.55378  -0.54494  -0.53204  -0.52964  -0.51877
 Alpha  occ. eigenvalues --   -0.51643  -0.49317  -0.48954  -0.48793  -0.47195
 Alpha  occ. eigenvalues --   -0.45959  -0.45153  -0.45059  -0.44837  -0.43053
 Alpha  occ. eigenvalues --   -0.37455  -0.36475
 Alpha virt. eigenvalues --    0.04900   0.11179   0.16384   0.21242   0.23390
 Alpha virt. eigenvalues --    0.24992   0.26891   0.27356   0.27899   0.28412
 Alpha virt. eigenvalues --    0.28898   0.30747   0.31796   0.32310   0.32877

 Mulliken charges:
               1
     1  C   -0.170609
     2  C   -0.218538
     3  C   -0.171127
     4  C    0.157986
     5  C   -0.170775
     6  C   -0.218556
     7  H    0.226072
     8  H    0.223921
     9  H    0.275746
    10  H    0.275911
    11  H    0.223883
    12  N    0.488619
    13  O   -0.459168
    14  O   -0.459535
    15  C   -0.297822
    16  C   -0.298969
    17  C   -0.472880
    18  H    0.149284
    19  H    0.148569
    20  H    0.148795
    21  H    0.146362
    22  H    0.145432
    23  H    0.172284
    24  H    0.162268
    25  C   -0.296911
    26  C   -0.299021
    27  C   -0.475080
    28  H    0.145458
    29  H    0.148591
    30  H    0.150873
    31  H    0.152181
    32  H    0.154876
    33  H    0.152889
    34  H    0.158992
 Sum of Mulliken charges =  -0.00000

 Dipole moment (field-independent basis, Debye):
    X=              2.5919    Y=             -4.5376    Z=              0.7581  Tot=              5.2804
 Quadrupole moment (field-independent basis, Debye-Ang):
   XX=            -81.0272   YY=            -97.1910   ZZ=            -91.8398
   XY=            -13.7444   XZ=             -0.4078   YZ=             -0.1469

 Normal termination of Gaussian 16 at Thu May  6 12:38:50 2021.
