 Gaussian 16, Revision A.03,
 Gaussian 16:  EM64L-G16RevA.03 25-Dec-2016

 -------------
 #p 6-31g* mp2
 -------------

 ------------------------------------------------------
 Input file generated by CHIRIPA (05-May-2021 14:55:21)
 ------------------------------------------------------
 Symbolic Z-matrix:
 Charge =  0 Multiplicity = 1

                         Standard orientation:
 ---------------------------------------------------------------------
 Center     Atomic      Atomic             Coordinates (Angstroms)
 Number     Number       Type             X           Y           Z
 ---------------------------------------------------------------------
      1          6           0       -1.439320   -2.153099   -1.706766
      2          6           0       -2.365666   -1.112404   -1.830688
      3          6           0       -2.573962   -0.217993   -0.776558
      4          6           0       -1.835386   -0.394516    0.392474
      5          6           0       -0.905290   -1.421413    0.546406
      6          6           0       -0.713368   -2.304016   -0.520705
      7          1           0       -1.283870   -2.843312   -2.530681
      8          1           0       -2.930864   -0.992780   -2.750626
      9          1           0       -3.284796    0.596478   -0.845613
     10          1           0       -0.356776   -1.515164    1.475793
     11          1           0        0.006707   -3.111311   -0.421648
     12          7           0       -2.047233    0.546106    1.515306
     13          8           0       -1.383965    0.369064    2.534800
     14          8           0       -2.872534    1.442597    1.354626
     15          6           0        1.774162    0.987516   -0.735973
     16          6           0        1.568774    2.494535   -0.578824
     17          6           0        0.504492    3.048130   -1.526785
     18          1           0        2.056865    0.768776   -1.774807
     19          1           0        0.819468    0.473765   -0.557049
     20          1           0        2.523882    3.005190   -0.756633
     21          1           0        1.286712    2.709733    0.459803
     22          1           0       -0.461281    2.565284   -1.345834
     23          1           0        0.782917    2.862421   -2.569183
     24          1           0        0.373865    4.127067   -1.397577
     25          6           0        2.835046    0.419312    0.204982
     26          6           0        3.040432   -1.087707    0.047834
     27          6           0        4.104715   -1.641303    0.995795
     28          1           0        3.789739    0.933064    0.026058
     29          1           0        2.552341    0.638052    1.243817
     30          1           0        3.322494   -1.302904   -0.990794
     31          1           0        2.085325   -1.598362    0.225643
     32          1           0        3.826289   -1.455593    2.038192
     33          1           0        5.070488   -1.158457    0.814844
     34          1           0        4.235341   -2.720237    0.866587
 ---------------------------------------------------------------------

 SCF Done:  E(RHF) =  -669.533902483     A.U. after   15 cycles
 E2 =    -0.2096163012D+01 EUMP2 =    -0.67163006549507D+03

 The electronic state is 1-A.
 Alpha  occ. eigenvalues --  -20.60902 -20.60897 -15.85950 -11.31307 -11.27899
 Alpha  occ. eigenvalues --  -11.27858 -11.27615 -11.26906 -11.26876 -11.21898
 Alpha  occ. eigenvalues --  -11.21383 -11.21356 -11.21331 -11.21173 -11.20879
 Alpha  occ. eigenvalues --   -1.59975  -1.39527  -1.19516  -1.08888  -1.08428
 Alpha  occ. eigenvalues --   -1.04914  -1.03554  -0.95987  -0.95724  -0.87012
 Alpha  occ. eigenvalues --   -0.86294  -0.82562  -0.79648  -0.78233  -0.77595
 Alpha  occ. eigenvalues --   -0.72166  -0.71313  -0.70598  -0.65193  -0.65067
 Alpha  occ. eigenvalues --   -0.64891  -0.62278  -0.60936  -0.59374  -0.57604
 Alpha  occ. eigenvalues --   -0.55388  -0.55307  -0.53363  -0.52984  -0.52681
 Alpha  occ. eigenvalues --   -0.52390  -0.49947  -0.48928  -0.48922  -0.47962
 Alpha  occ. eigenvalues --   -0.46706  -0.45719  -0.45597  -0.44919  -0.43774
 Alpha  occ. eigenvalues --   -0.37445  -0.36383
 Alpha virt. eigenvalues --    0.04884   0.11034   0.16262   0.20542   0.22940
 Alpha virt. eigenvalues --    0.23903   0.26172   0.26966   0.27781   0.28073
 Alpha virt. eigenvalues --    0.28667   0.30337   0.31275   0.31772   0.32331

 Mulliken charges:
               1
     1  C   -0.171544
     2  C   -0.216910
     3  C   -0.172628
     4  C    0.161224
     5  C   -0.178037
     6  C   -0.211380
     7  H    0.226593
     8  H    0.224498
     9  H    0.276513
    10  H    0.276103
    11  H    0.225257
    12  N    0.488347
    13  O   -0.460699
    14  O   -0.459912
    15  C   -0.305512
    16  C   -0.302068
    17  C   -0.475219
    18  H    0.145342
    19  H    0.158317
    20  H    0.150744
    21  H    0.159399
    22  H    0.153556
    23  H    0.151169
    24  H    0.162635
    25  C   -0.299805
    26  C   -0.301763
    27  C   -0.476022
    28  H    0.150147
    29  H    0.155696
    30  H    0.150228
    31  H    0.143580
    32  H    0.157801
    33  H    0.157684
    34  H    0.156666
 Sum of Mulliken charges =  -0.00000

 Dipole moment (field-independent basis, Debye):
    X=              0.6339    Y=             -3.2938    Z=             -3.9157  Tot=              5.1559
 Quadrupole moment (field-independent basis, Debye-Ang):
   XX=            -95.6847   YY=            -91.7010   ZZ=            -96.7919
   XY=              4.6649   XZ=              9.0679   YZ=             -0.6903

 Normal termination of Gaussian 16 at Thu May  6 06:12:32 2021.
