 Gaussian 16, Revision A.03,
 Gaussian 16:  EM64L-G16RevA.03 25-Dec-2016

 -------------
 #p 6-31g* mp2
 -------------

 ------------------------------------------------------
 Input file generated by CHIRIPA (05-May-2021 14:53:13)
 ------------------------------------------------------
 Symbolic Z-matrix:
 Charge =  0 Multiplicity = 1

                         Standard orientation:
 ---------------------------------------------------------------------
 Center     Atomic      Atomic             Coordinates (Angstroms)
 Number     Number       Type             X           Y           Z
 ---------------------------------------------------------------------
      1          6           0        4.036687   -0.004482   -0.296419
      2          6           0        4.230386   -1.376174    0.350827
      3          6           0        5.171666   -2.278825   -0.447299
      4          1           0        3.643804   -0.138272   -1.313615
      5          1           0        5.014748    0.485265   -0.401017
      6          1           0        3.252096   -1.862612    0.455437
      7          1           0        4.622674   -1.239096    1.366670
      8          1           0        6.160388   -1.818001   -0.540416
      9          1           0        4.782024   -2.445060   -1.456827
     10          1           0        5.295895   -3.254253    0.033291
     11          6           0        3.098272    0.909292    0.489788
     12          6           0        2.904573    2.280983   -0.157459
     13          6           0        1.963293    3.183634    0.640668
     14          1           0        2.120211    0.419545    0.594385
     15          1           0        3.491155    1.043081    1.506984
     16          1           0        2.512285    2.143905   -1.173302
     17          1           0        3.882863    2.767422   -0.262068
     18          1           0        2.352935    3.349869    1.650195
     19          1           0        0.974571    2.722810    0.733784
     20          1           0        1.839064    4.159063    0.160077
     21          6           0       -0.360944   -1.041917   -0.151202
     22          6           0       -1.314815   -1.899331    0.406912
     23          6           0       -2.661890   -1.528246    0.454161
     24          6           0       -3.021644   -0.286882   -0.068219
     25          6           0       -2.094801    0.589381   -0.630725
     26          6           0       -0.753290    0.197518   -0.667330
     27          1           0        0.683335   -1.338254   -0.183772
     28          1           0       -1.012995   -2.862493    0.808496
     29          1           0       -3.421100   -2.172618    0.880547
     30          1           0       -2.426026    1.543188   -1.023103
     31          1           0       -0.014676    0.865433   -1.101363
     32          7           0       -4.444787    0.116967   -0.023834
     33          8           0       -4.736102    1.215947   -0.490756
     34          8           0       -5.241985   -0.673123    0.477037
 ---------------------------------------------------------------------

 SCF Done:  E(RHF) =  -669.534823007     A.U. after   15 cycles
 E2 =    -0.2093494169D+01 EUMP2 =    -0.67162831717653D+03

 The electronic state is 1-A.
 Alpha  occ. eigenvalues --  -20.60779 -20.60774 -15.85833 -11.31219 -11.27792
 Alpha  occ. eigenvalues --  -11.27789 -11.27511 -11.26800 -11.26790 -11.22730
 Alpha  occ. eigenvalues --  -11.22625 -11.22479 -11.22418 -11.21969 -11.21874
 Alpha  occ. eigenvalues --   -1.59854  -1.39407  -1.19396  -1.09519  -1.08782
 Alpha  occ. eigenvalues --   -1.04805  -1.04526  -0.96946  -0.95620  -0.87953
 Alpha  occ. eigenvalues --   -0.86198  -0.82452  -0.80593  -0.79324  -0.77492
 Alpha  occ. eigenvalues --   -0.72052  -0.71177  -0.70554  -0.66267  -0.65041
 Alpha  occ. eigenvalues --   -0.64725  -0.62286  -0.61782  -0.60306  -0.58555
 Alpha  occ. eigenvalues --   -0.56301  -0.55261  -0.53607  -0.53350  -0.53129
 Alpha  occ. eigenvalues --   -0.52869  -0.50898  -0.48900  -0.48806  -0.48798
 Alpha  occ. eigenvalues --   -0.47668  -0.46815  -0.46789  -0.44808  -0.44787
 Alpha  occ. eigenvalues --   -0.37343  -0.36391
 Alpha virt. eigenvalues --    0.05008   0.11115   0.16387   0.18122   0.21773
 Alpha virt. eigenvalues --    0.23457   0.25314   0.25693   0.26903   0.28013
 Alpha virt. eigenvalues --    0.29591   0.30390   0.30848   0.31169   0.32499

 Mulliken charges:
               1
     1  C   -0.299990
     2  C   -0.301602
     3  C   -0.476128
     4  H    0.146749
     5  H    0.155146
     6  H    0.143066
     7  H    0.156944
     8  H    0.158959
     9  H    0.155509
    10  H    0.162641
    11  C   -0.305759
    12  C   -0.302279
    13  C   -0.479559
    14  H    0.146088
    15  H    0.155469
    16  H    0.145849
    17  H    0.157551
    18  H    0.159697
    19  H    0.155485
    20  H    0.163595
    21  C   -0.176422
    22  C   -0.220787
    23  C   -0.170387
    24  C    0.158553
    25  C   -0.172181
    26  C   -0.222912
    27  H    0.233511
    28  H    0.223887
    29  H    0.275834
    30  H    0.276253
    31  H    0.229675
    32  N    0.488053
    33  O   -0.460183
    34  O   -0.460324
 Sum of Mulliken charges =  -0.00000

 Dipole moment (field-independent basis, Debye):
    X=              5.2003    Y=             -1.3710    Z=             -0.0880  Tot=              5.3787
 Quadrupole moment (field-independent basis, Debye-Ang):
   XX=           -124.0187   YY=            -90.4620   ZZ=            -94.3523
   XY=              4.9542   XZ=              0.4782   YZ=             -2.1426

 Normal termination of Gaussian 16 at Thu May  6 13:43:08 2021.
