 Gaussian 16, Revision A.03,
 Gaussian 16:  EM64L-G16RevA.03 25-Dec-2016

 -------------
 #p 6-31g* mp2
 -------------

 ------------------------------------------------------
 Input file generated by CHIRIPA (05-May-2021 14:57:23)
 ------------------------------------------------------
 Symbolic Z-matrix:
 Charge =  0 Multiplicity = 1

                         Standard orientation:
 ---------------------------------------------------------------------
 Center     Atomic      Atomic             Coordinates (Angstroms)
 Number     Number       Type             X           Y           Z
 ---------------------------------------------------------------------
      1          6           0       -3.247294   -2.289225   -0.917680
      2          6           0       -2.003067   -1.682287   -0.717568
      3          6           0       -1.921616   -0.348866   -0.305375
      4          6           0       -3.109804    0.351153   -0.101721
      5          6           0       -4.364475   -0.225600   -0.292629
      6          6           0       -4.421956   -1.560230   -0.704947
      7          1           0       -3.301257   -3.325529   -1.237930
      8          1           0       -1.089158   -2.246002   -0.882011
      9          1           0       -0.971628    0.145672   -0.142982
     10          1           0       -5.258116    0.361968   -0.120617
     11          1           0       -5.389628   -2.029001   -0.859573
     12          7           0       -3.036263    1.763426    0.334716
     13          8           0       -4.097738    2.358506    0.507308
     14          8           0       -1.918540    2.248544    0.495938
     15          6           0        4.400545    1.593558   -1.168093
     16          6           0        3.335650    1.994729   -0.354716
     17          6           0        2.620148    1.054844    0.393095
     18          6           0        2.998311   -0.283898    0.303365
     19          6           0        4.054534   -0.714784   -0.497897
     20          6           0        4.755961    0.242464   -1.236966
     21          1           0        4.950897    2.330428   -1.745615
     22          1           0        3.057404    3.043323   -0.299275
     23          1           0        1.791542    1.337896    1.030836
     24          1           0        4.308462   -1.767275   -0.532590
     25          1           0        5.582532   -0.071975   -1.867802
     26          7           0        2.248292   -1.288103    1.090412
     27          8           0        2.601246   -2.461459    0.993991
     28          8           0        1.321674   -0.882828    1.788818
 ---------------------------------------------------------------------

 SCF Done:  E(RHF) =  -868.339951440     A.U. after   16 cycles
 E2 =    -0.2599143782D+01 EUMP2 =    -0.87093909522192D+03

 The electronic state is 1-A.
 Alpha  occ. eigenvalues --  -20.61278 -20.61273 -20.60495 -20.60476 -15.86294
 Alpha  occ. eigenvalues --  -15.85534 -11.31419 -11.30660 -11.27983 -11.27867
 Alpha  occ. eigenvalues --  -11.27637 -11.27250 -11.27161 -11.26944 -11.26934
 Alpha  occ. eigenvalues --  -11.26836 -11.26231 -11.26120  -1.60356  -1.59558
 Alpha  occ. eigenvalues --   -1.39909  -1.39121  -1.19566  -1.18820  -1.09011
 Alpha  occ. eigenvalues --   -1.08264  -1.04908  -1.04183  -0.95877  -0.95137
 Alpha  occ. eigenvalues --   -0.86324  -0.85601  -0.82700  -0.81979  -0.77783
 Alpha  occ. eigenvalues --   -0.77047  -0.72503  -0.71780  -0.71684  -0.70866
 Alpha  occ. eigenvalues --   -0.70649  -0.69939  -0.65206  -0.64891  -0.64480
 Alpha  occ. eigenvalues --   -0.64191  -0.62241  -0.61533  -0.55421  -0.54720
 Alpha  occ. eigenvalues --   -0.53280  -0.52977  -0.52527  -0.52281  -0.49280
 Alpha  occ. eigenvalues --   -0.49248  -0.48525  -0.48494  -0.45350  -0.44578
 Alpha  occ. eigenvalues --   -0.37550  -0.36802  -0.36505  -0.35757
 Alpha virt. eigenvalues --    0.04666   0.05484   0.11065   0.11887   0.16228
 Alpha virt. eigenvalues --    0.17017   0.21118   0.22013   0.26513   0.27582
 Alpha virt. eigenvalues --    0.28234   0.29007   0.30833   0.31290   0.32056

 Mulliken charges:
               1
     1  C   -0.170645
     2  C   -0.217031
     3  C   -0.164702
     4  C    0.156695
     5  C   -0.171392
     6  C   -0.219131
     7  H    0.225170
     8  H    0.227358
     9  H    0.274285
    10  H    0.273376
    11  H    0.221467
    12  N    0.489221
    13  O   -0.461305
    14  O   -0.466653
    15  C   -0.170382
    16  C   -0.218527
    17  C   -0.176772
    18  C    0.154418
    19  C   -0.172169
    20  C   -0.218635
    21  H    0.227317
    22  H    0.230279
    23  H    0.285810
    24  H    0.274207
    25  H    0.223739
    26  N    0.485418
    27  O   -0.461260
    28  O   -0.460157
 Sum of Mulliken charges =  -0.00000

 Dipole moment (field-independent basis, Debye):
    X=              2.5830    Y=             -1.3868    Z=             -4.2837  Tot=              5.1908
 Quadrupole moment (field-independent basis, Debye-Ang):
   XX=            -81.1943   YY=           -108.4221   ZZ=           -107.0521
   XY=             23.4942   XZ=             -4.2368   YZ=              3.3341

 Normal termination of Gaussian 16 at Thu May  6 19:33:35 2021.
