 Gaussian 16, Revision A.03,
 Gaussian 16:  EM64L-G16RevA.03 25-Dec-2016

 -------------
 #p 6-31g* mp2
 -------------

 ------------------------------------------------------
 Input file generated by CHIRIPA (05-May-2021 14:53:14)
 ------------------------------------------------------
 Symbolic Z-matrix:
 Charge =  0 Multiplicity = 1

                         Standard orientation:
 ---------------------------------------------------------------------
 Center     Atomic      Atomic             Coordinates (Angstroms)
 Number     Number       Type             X           Y           Z
 ---------------------------------------------------------------------
      1          6           0        3.867606    1.061991   -0.249713
      2          6           0        2.828798    1.661559    0.698645
      3          6           0        2.610671    3.157119    0.467315
      4          1           0        4.819497    1.596306   -0.125801
      5          1           0        3.547268    1.230602   -1.287186
      6          1           0        3.150313    1.490650    1.734036
      7          1           0        1.879322    1.125628    0.572597
      8          1           0        2.266334    3.342576   -0.555250
      9          1           0        3.544547    3.709672    0.612788
     10          1           0        1.864233    3.565199    1.155909
     11          6           0        4.096693   -0.432431   -0.030736
     12          6           0        5.135500   -1.031999   -0.979094
     13          6           0        5.353628   -2.527559   -0.747764
     14          1           0        4.417031   -0.601041    1.006737
     15          1           0        3.144802   -0.966746   -0.154648
     16          1           0        6.084977   -0.496067   -0.853046
     17          1           0        4.813985   -0.861090   -2.014485
     18          1           0        4.419752   -3.080112   -0.893237
     19          1           0        5.697965   -2.713015    0.274801
     20          1           0        6.100066   -2.935638   -1.436358
     21          6           0       -5.171604    0.359995   -1.214429
     22          6           0       -5.122452   -0.847060   -0.509359
     23          6           0       -3.985909   -1.193084    0.227585
     24          6           0       -2.911848   -0.304500    0.237547
     25          6           0       -2.930505    0.905406   -0.454602
     26          6           0       -4.077403    1.230840   -1.184852
     27          1           0       -6.058520    0.620798   -1.784305
     28          1           0       -5.970732   -1.525306   -0.530524
     29          1           0       -3.921109   -2.121116    0.782541
     30          1           0       -2.069190    1.561107   -0.414494
     31          1           0       -4.112772    2.168929   -1.731464
     32          7           0       -1.703160   -0.659921    1.014175
     33          8           0       -0.770172    0.140152    1.006903
     34          8           0       -1.711665   -1.731845    1.615460
 ---------------------------------------------------------------------

 SCF Done:  E(RHF) =  -669.536077197     A.U. after   15 cycles
 E2 =    -0.2090832508D+01 EUMP2 =    -0.67162690970544D+03

 The electronic state is 1-A.
 Alpha  occ. eigenvalues --  -20.60955 -20.60942 -15.85995 -11.31307 -11.27870
 Alpha  occ. eigenvalues --  -11.27866 -11.27606 -11.26876 -11.26866 -11.20877
 Alpha  occ. eigenvalues --  -11.20469 -11.20415 -11.20406 -11.20305 -11.20220
 Alpha  occ. eigenvalues --   -1.60017  -1.39573  -1.19475  -1.08880  -1.07496
 Alpha  occ. eigenvalues --   -1.04871  -1.02636  -0.95724  -0.95136  -0.86271
 Alpha  occ. eigenvalues --   -0.86157  -0.82560  -0.78688  -0.77617  -0.77262
 Alpha  occ. eigenvalues --   -0.72218  -0.71333  -0.70584  -0.65133  -0.64873
 Alpha  occ. eigenvalues --   -0.64128  -0.62218  -0.60035  -0.58495  -0.56720
 Alpha  occ. eigenvalues --   -0.55375  -0.54444  -0.53203  -0.52962  -0.51850
 Alpha  occ. eigenvalues --   -0.51553  -0.49113  -0.48973  -0.48956  -0.47003
 Alpha  occ. eigenvalues --   -0.45706  -0.45032  -0.44831  -0.44641  -0.42891
 Alpha  occ. eigenvalues --   -0.37455  -0.36472
 Alpha virt. eigenvalues --    0.04909   0.11183   0.16399   0.21270   0.23744
 Alpha virt. eigenvalues --    0.25053   0.27221   0.27507   0.28037   0.28702
 Alpha virt. eigenvalues --    0.28821   0.30861   0.32073   0.32398   0.32708

 Mulliken charges:
               1
     1  C   -0.297333
     2  C   -0.310246
     3  C   -0.474679
     4  H    0.144997
     5  H    0.144656
     6  H    0.150807
     7  H    0.179639
     8  H    0.148527
     9  H    0.150945
    10  H    0.159350
    11  C   -0.298665
    12  C   -0.298925
    13  C   -0.475177
    14  H    0.149787
    15  H    0.156284
    16  H    0.149530
    17  H    0.149149
    18  H    0.156032
    19  H    0.155219
    20  H    0.157041
    21  C   -0.170604
    22  C   -0.218582
    23  C   -0.170613
    24  C    0.157348
    25  C   -0.170811
    26  C   -0.218541
    27  H    0.226056
    28  H    0.223858
    29  H    0.275894
    30  H    0.275810
    31  H    0.223978
    32  N    0.494979
    33  O   -0.466920
    34  O   -0.458790
 Sum of Mulliken charges =  -0.00000

 Dipole moment (field-independent basis, Debye):
    X=             -4.5614    Y=              1.1325    Z=             -2.6471  Tot=              5.3941
 Quadrupole moment (field-independent basis, Debye-Ang):
   XX=            -70.0828   YY=            -93.7660   ZZ=            -96.0672
   XY=             -0.1150   XZ=              7.3438   YZ=             -0.1706

 Normal termination of Gaussian 16 at Thu May  6 04:13:55 2021.
