 Gaussian 16, Revision A.03,
 Gaussian 16:  EM64L-G16RevA.03 25-Dec-2016

 -------------
 #p 6-31g* mp2
 -------------

 ------------------------------------------------------
 Input file generated by CHIRIPA (05-May-2021 14:51:09)
 ------------------------------------------------------
 Symbolic Z-matrix:
 Charge =  0 Multiplicity = 1

                         Standard orientation:
 ---------------------------------------------------------------------
 Center     Atomic      Atomic             Coordinates (Angstroms)
 Number     Number       Type             X           Y           Z
 ---------------------------------------------------------------------
      1          6           0        2.894541   -0.177864    0.277772
      2          6           0        2.030073   -1.251956    0.938836
      3          6           0        0.589168   -0.793842    1.166254
      4          1           0        2.889750    0.724560    0.904314
      5          1           0        2.443174    0.106226   -0.682934
      6          1           0        2.483681   -1.534928    1.897367
      7          1           0        2.037077   -2.151993    0.310743
      8          1           0        0.114169   -0.530243    0.215732
      9          1           0        0.563310    0.090328    1.811371
     10          1           0       -0.011088   -1.576986    1.639793
     11          6           0        4.337703   -0.620919    0.043862
     12          6           0        5.202172    0.453174   -0.617202
     13          6           0        6.643077   -0.004940   -0.844621
     14          1           0        4.789070   -0.905008    1.004567
     15          1           0        4.342494   -1.523342   -0.582680
     16          1           0        5.195167    1.353210    0.010891
     17          1           0        4.748563    0.736146   -1.575733
     18          1           0        6.668934   -0.889110   -1.489737
     19          1           0        7.118075   -0.268539    0.105902
     20          1           0        7.243332    0.778204   -1.318159
     21          6           0       -3.675907   -0.354389   -0.052776
     22          6           0       -4.937184   -0.957546   -0.671944
     23          6           0       -5.042577   -2.466276   -0.447396
     24          1           0       -2.792987   -0.852173   -0.476578
     25          1           0       -3.667303   -0.567074    1.025225
     26          1           0       -4.944092   -0.742594   -1.748217
     27          1           0       -5.817198   -0.458137   -0.246760
     28          1           0       -5.060950   -2.696113    0.622855
     29          1           0       -4.182885   -2.982185   -0.887133
     30          1           0       -5.951519   -2.876728   -0.898189
     31          6           0       -3.556337    1.153171   -0.268858
     32          6           0       -2.295061    1.756329    0.350310
     33          6           0       -2.189667    3.265058    0.125762
     34          1           0       -3.564940    1.365856   -1.346859
     35          1           0       -4.439257    1.650955    0.154944
     36          1           0       -1.415047    1.256919   -0.074874
     37          1           0       -2.288152    1.541376    1.426584
     38          1           0       -3.049359    3.780967    0.565499
     39          1           0       -2.171294    3.494895   -0.944489
     40          1           0       -1.280725    3.675510    0.576555
 ---------------------------------------------------------------------

 SCF Done:  E(RHF) =  -470.732844891     A.U. after   11 cycles
 E2 =    -0.1582978341D+01 EUMP2 =    -0.47231582323175D+03

 The electronic state is 1-A.
 Alpha  occ. eigenvalues --  -11.21607 -11.21584 -11.21564 -11.21464 -11.21411
 Alpha  occ. eigenvalues --  -11.21351 -11.21341 -11.21281 -11.21076 -11.21046
 Alpha  occ. eigenvalues --  -11.21020 -11.21002  -1.08435  -1.08365  -1.03537
 Alpha  occ. eigenvalues --   -1.03458  -0.95976  -0.95923  -0.87013  -0.86923
 Alpha  occ. eigenvalues --   -0.79682  -0.79457  -0.78289  -0.78118  -0.65091
 Alpha  occ. eigenvalues --   -0.64982  -0.60972  -0.60831  -0.59356  -0.59288
 Alpha  occ. eigenvalues --   -0.57634  -0.57483  -0.55269  -0.55215  -0.52704
 Alpha  occ. eigenvalues --   -0.52612  -0.52454  -0.52291  -0.49964  -0.49844
 Alpha  occ. eigenvalues --   -0.48140  -0.47660  -0.46724  -0.46491  -0.45919
 Alpha  occ. eigenvalues --   -0.45739  -0.45651  -0.45372  -0.43779  -0.43718
 Alpha virt. eigenvalues --    0.21819   0.23060   0.23905   0.24563   0.25458
 Alpha virt. eigenvalues --    0.26449   0.26986   0.27568   0.27935   0.29483
 Alpha virt. eigenvalues --    0.30612   0.31346   0.31828   0.31880   0.32214

 Mulliken charges:
               1
     1  C   -0.298131
     2  C   -0.300258
     3  C   -0.477725
     4  H    0.149656
     5  H    0.148822
     6  H    0.151759
     7  H    0.151574
     8  H    0.157823
     9  H    0.156200
    10  H    0.160601
    11  C   -0.298210
    12  C   -0.299641
    13  C   -0.475708
    14  H    0.149608
    15  H    0.149604
    16  H    0.151964
    17  H    0.151852
    18  H    0.155162
    19  H    0.155208
    20  H    0.160268
    21  C   -0.299218
    22  C   -0.299615
    23  C   -0.475594
    24  H    0.150711
    25  H    0.149740
    26  H    0.151627
    27  H    0.151902
    28  H    0.155120
    29  H    0.155021
    30  H    0.160077
    31  C   -0.298399
    32  C   -0.303658
    33  C   -0.475420
    34  H    0.148709
    35  H    0.149206
    36  H    0.158273
    37  H    0.152022
    38  H    0.154679
    39  H    0.154562
    40  H    0.159827
 Sum of Mulliken charges =  -0.00000

 Dipole moment (field-independent basis, Debye):
    X=              0.0177    Y=             -0.0121    Z=              0.0175  Tot=              0.0277
 Quadrupole moment (field-independent basis, Debye-Ang):
   XX=            -85.8458   YY=            -85.9802   ZZ=            -83.1999
   XY=              0.0294   XZ=              0.0234   YZ=              0.5398

 Normal termination of Gaussian 16 at Wed May  5 23:00:48 2021.
