 Gaussian 16, Revision A.03,
 Gaussian 16:  EM64L-G16RevA.03 25-Dec-2016

 -------------
 #p 6-31g* mp2
 -------------

 ------------------------------------------------------
 Input file generated by CHIRIPA (05-May-2021 14:57:27)
 ------------------------------------------------------
 Symbolic Z-matrix:
 Charge =  0 Multiplicity = 1

                         Standard orientation:
 ---------------------------------------------------------------------
 Center     Atomic      Atomic             Coordinates (Angstroms)
 Number     Number       Type             X           Y           Z
 ---------------------------------------------------------------------
      1          6           0        3.498601    2.619447   -0.206583
      2          6           0        2.914632    2.095717    0.951522
      3          6           0        2.764079    0.714702    1.108619
      4          6           0        3.210644   -0.117242    0.083076
      5          6           0        3.796453    0.374157   -1.082534
      6          6           0        3.936875    1.758513   -1.218131
      7          1           0        3.611619    3.693550   -0.320269
      8          1           0        2.573347    2.761941    1.738742
      9          1           0        2.315506    0.282418    1.994808
     10          1           0        4.127013   -0.315137   -1.850012
     11          1           0        4.390762    2.162437   -2.118619
     12          7           0        3.056623   -1.581030    0.238007
     13          8           0        3.458194   -2.292724   -0.680072
     14          8           0        2.537247   -1.988935    1.274587
     15          6           0       -1.577781   -2.024726   -0.115918
     16          6           0       -2.940199   -2.278308   -0.305750
     17          6           0       -3.867950   -1.232887   -0.275446
     18          6           0       -3.396342    0.059747   -0.051898
     19          6           0       -2.045357    0.344421    0.140693
     20          6           0       -1.135489   -0.716477    0.106305
     21          1           0       -0.864026   -2.842845   -0.141045
     22          1           0       -3.286550   -3.293312   -0.478529
     23          1           0       -4.928358   -1.400946   -0.419356
     24          1           0       -1.730251    1.366759    0.310842
     25          1           0       -0.078012   -0.516580    0.254051
     26          7           0       -4.369046    1.174680   -0.017655
     27          8           0       -3.928100    2.304600    0.181053
     28          8           0       -5.553978    0.897533   -0.190171
 ---------------------------------------------------------------------

 SCF Done:  E(RHF) =  -868.339462654     A.U. after   16 cycles
 E2 =    -0.2599920837D+01 EUMP2 =    -0.87093938349112D+03

 The electronic state is 1-A.
 Alpha  occ. eigenvalues --  -20.61927 -20.61900 -20.60598 -20.60584 -15.86935
 Alpha  occ. eigenvalues --  -15.85643 -11.32138 -11.30860 -11.28671 -11.28616
 Alpha  occ. eigenvalues --  -11.28289 -11.27600 -11.27570 -11.27443 -11.27411
 Alpha  occ. eigenvalues --  -11.26987 -11.26343 -11.26324  -1.60992  -1.59672
 Alpha  occ. eigenvalues --   -1.40543  -1.39231  -1.20273  -1.19005  -1.09685
 Alpha  occ. eigenvalues --   -1.08395  -1.05626  -1.04398  -0.96547  -0.95262
 Alpha  occ. eigenvalues --   -0.87027  -0.85783  -0.83369  -0.82114  -0.78460
 Alpha  occ. eigenvalues --   -0.77213  -0.73138  -0.72340  -0.71861  -0.71323
 Alpha  occ. eigenvalues --   -0.70994  -0.70034  -0.65901  -0.65590  -0.64643
 Alpha  occ. eigenvalues --   -0.64384  -0.62960  -0.61763  -0.56083  -0.54794
 Alpha  occ. eigenvalues --   -0.53986  -0.53685  -0.52723  -0.52465  -0.49921
 Alpha  occ. eigenvalues --   -0.49892  -0.48630  -0.48605  -0.45961  -0.44671
 Alpha  occ. eigenvalues --   -0.38217  -0.37226  -0.36924  -0.36015
 Alpha virt. eigenvalues --    0.04027   0.05335   0.10300   0.11654   0.15576
 Alpha virt. eigenvalues --    0.16883   0.20654   0.21811   0.26430   0.27116
 Alpha virt. eigenvalues --    0.27867   0.28763   0.30289   0.31123   0.32108

 Mulliken charges:
               1
     1  C   -0.169633
     2  C   -0.218619
     3  C   -0.181226
     4  C    0.155253
     5  C   -0.170530
     6  C   -0.217573
     7  H    0.230674
     8  H    0.228395
     9  H    0.276680
    10  H    0.277641
    11  H    0.227596
    12  N    0.486696
    13  O   -0.455967
    14  O   -0.463493
    15  C   -0.171716
    16  C   -0.219228
    17  C   -0.171596
    18  C    0.158148
    19  C   -0.173837
    20  C   -0.221110
    21  H    0.237992
    22  H    0.223891
    23  H    0.274295
    24  H    0.270386
    25  H    0.223357
    26  N    0.488360
    27  O   -0.463920
    28  O   -0.460917
 Sum of Mulliken charges =  -0.00000

 Dipole moment (field-independent basis, Debye):
    X=              4.3528    Y=              1.2285    Z=             -0.7498  Tot=              4.5846
 Quadrupole moment (field-independent basis, Debye-Ang):
   XX=           -121.4646   YY=           -104.4758   ZZ=           -101.6037
   XY=             33.5616   XZ=             -3.2482   YZ=              2.0692

 Normal termination of Gaussian 16 at Thu May  6 00:27:28 2021.
