 Gaussian 16, Revision A.03,
 Gaussian 16:  EM64L-G16RevA.03 25-Dec-2016

 -------------
 #p 6-31g* mp2
 -------------

 ------------------------------------------------------
 Input file generated by CHIRIPA (05-May-2021 14:53:18)
 ------------------------------------------------------
 Symbolic Z-matrix:
 Charge =  0 Multiplicity = 1

                         Standard orientation:
 ---------------------------------------------------------------------
 Center     Atomic      Atomic             Coordinates (Angstroms)
 Number     Number       Type             X           Y           Z
 ---------------------------------------------------------------------
      1          6           0       -3.465712   -0.481066    0.737327
      2          6           0       -2.305920   -1.401413    0.355453
      3          6           0       -1.244913   -1.501411    1.451838
      4          1           0       -3.072564    0.519998    0.961495
      5          1           0       -3.927793   -0.850011    1.663478
      6          1           0       -1.847039   -1.031631   -0.570454
      7          1           0       -2.701897   -2.400353    0.131983
      8          1           0       -1.682090   -1.891796    2.376541
      9          1           0       -0.822375   -0.515298    1.670113
     10          1           0       -0.425114   -2.164278    1.157905
     11          6           0       -4.534500   -0.370850   -0.348616
     12          6           0       -5.694292    0.549498    0.033258
     13          6           0       -6.755299    0.649495   -1.063127
     14          1           0       -4.072419   -0.001905   -1.274767
     15          1           0       -4.927648   -1.371913   -0.572783
     16          1           0       -5.298316    1.548437    0.256728
     17          1           0       -6.153174    0.179715    0.959166
     18          1           0       -7.177837   -0.336618   -1.281401
     19          1           0       -6.318122    1.039881   -1.987830
     20          1           0       -7.575098    1.312362   -0.769194
     21          6           0        1.319638    2.063248    0.182486
     22          6           0        2.650374    2.373184    0.481830
     23          6           0        3.658966    1.422185    0.300469
     24          6           0        3.299626    0.165484   -0.184162
     25          6           0        1.982852   -0.173541   -0.491497
     26          6           0        0.990705    0.793114   -0.302366
     27          1           0        0.542528    2.808087    0.326390
     28          1           0        2.908752    3.358776    0.858517
     29          1           0        4.697178    1.635454    0.524186
     30          1           0        1.756098   -1.164571   -0.865479
     31          1           0       -0.041922    0.549617   -0.535681
     32          7           0        4.358674   -0.849582   -0.380273
     33          8           0        4.016083   -1.949527   -0.808517
     34          8           0        5.511291   -0.526028   -0.102028
 ---------------------------------------------------------------------

 SCF Done:  E(RHF) =  -669.534565043     A.U. after   15 cycles
 E2 =    -0.2092727472D+01 EUMP2 =    -0.67162729251425D+03

 The electronic state is 1-A.
 Alpha  occ. eigenvalues --  -20.60749 -20.60744 -15.85801 -11.31170 -11.27726
 Alpha  occ. eigenvalues --  -11.27717 -11.27474 -11.26758 -11.26703 -11.22530
 Alpha  occ. eigenvalues --  -11.22218 -11.22200 -11.22062 -11.21743 -11.21568
 Alpha  occ. eigenvalues --   -1.59824  -1.39377  -1.19339  -1.09195  -1.08737
 Alpha  occ. eigenvalues --   -1.04759  -1.04233  -0.96665  -0.95571  -0.87673
 Alpha  occ. eigenvalues --   -0.86144  -0.82403  -0.80312  -0.78990  -0.77456
 Alpha  occ. eigenvalues --   -0.72021  -0.71146  -0.70451  -0.65961  -0.64991
 Alpha  occ. eigenvalues --   -0.64728  -0.62305  -0.61408  -0.60026  -0.58271
 Alpha  occ. eigenvalues --   -0.55990  -0.55226  -0.53378  -0.53108  -0.53020
 Alpha  occ. eigenvalues --   -0.52767  -0.50594  -0.48790  -0.48775  -0.48589
 Alpha  occ. eigenvalues --   -0.47387  -0.46514  -0.46465  -0.44782  -0.44492
 Alpha  occ. eigenvalues --   -0.37319  -0.36294
 Alpha virt. eigenvalues --    0.05074   0.11218   0.16525   0.19253   0.22718
 Alpha virt. eigenvalues --    0.23900   0.25572   0.26087   0.26897   0.28271
 Alpha virt. eigenvalues --    0.29137   0.29780   0.30930   0.31274   0.32080

 Mulliken charges:
               1
     1  C   -0.298229
     2  C   -0.305923
     3  C   -0.480422
     4  H    0.144170
     5  H    0.154214
     6  H    0.142065
     7  H    0.159414
     8  H    0.160140
     9  H    0.155569
    10  H    0.163458
    11  C   -0.298403
    12  C   -0.299841
    13  C   -0.476080
    14  H    0.147409
    15  H    0.152789
    16  H    0.150328
    17  H    0.153752
    18  H    0.156842
    19  H    0.155179
    20  H    0.161798
    21  C   -0.174289
    22  C   -0.218016
    23  C   -0.171273
    24  C    0.158612
    25  C   -0.172777
    26  C   -0.219709
    27  H    0.225460
    28  H    0.223294
    29  H    0.275497
    30  H    0.275374
    31  H    0.232413
    32  N    0.488134
    33  O   -0.460474
    34  O   -0.460476
 Sum of Mulliken charges =  -0.00000

 Dipole moment (field-independent basis, Debye):
    X=             -3.8821    Y=              3.4971    Z=              0.7585  Tot=              5.2797
 Quadrupole moment (field-independent basis, Debye-Ang):
   XX=           -117.1297   YY=            -91.0474   ZZ=            -95.5312
   XY=             14.6132   XZ=              3.3690   YZ=              0.3705

 Normal termination of Gaussian 16 at Thu May  6 07:36:57 2021.
