 Gaussian 16, Revision A.03,
 Gaussian 16:  EM64L-G16RevA.03 25-Dec-2016

 -------------
 #p 6-31g* mp2
 -------------

 ------------------------------------------------------
 Input file generated by CHIRIPA (05-May-2021 14:55:23)
 ------------------------------------------------------
 Symbolic Z-matrix:
 Charge =  0 Multiplicity = 1

                         Standard orientation:
 ---------------------------------------------------------------------
 Center     Atomic      Atomic             Coordinates (Angstroms)
 Number     Number       Type             X           Y           Z
 ---------------------------------------------------------------------
      1          6           0        1.618246    1.526500    1.217241
      2          6           0        1.318725    0.956269   -0.024389
      3          6           0        2.218200    0.079875   -0.638740
      4          6           0        3.413318   -0.205517    0.019693
      5          6           0        3.740418    0.346618    1.257207
      6          6           0        2.826007    1.220395    1.852955
      7          1           0        0.913711    2.206288    1.687258
      8          1           0        0.381520    1.192183   -0.520411
      9          1           0        2.011627   -0.375697   -1.599573
     10          1           0        4.682665    0.092358    1.727249
     11          1           0        3.061271    1.661764    2.817263
     12          7           0        4.373457   -1.131930   -0.620846
     13          8           0        5.419608   -1.367244   -0.020151
     14          8           0        4.061685   -1.605198   -1.711466
     15          6           0       -4.308642   -0.478042    0.354906
     16          6           0       -5.454716   -1.407246   -0.046436
     17          6           0       -5.727086   -2.493636    0.994413
     18          1           0       -3.399248   -1.074280    0.511267
     19          1           0       -4.545855   -0.010651    1.320655
     20          1           0       -5.216035   -1.871687   -1.011807
     21          1           0       -6.361441   -0.808704   -0.202046
     22          1           0       -5.990322   -2.046286    1.958356
     23          1           0       -4.838408   -3.115309    1.143994
     24          1           0       -6.550076   -3.146520    0.687346
     25          6           0       -4.024351    0.613294   -0.675576
     26          6           0       -2.878276    1.542499   -0.274233
     27          6           0       -2.605905    2.628889   -1.315082
     28          1           0       -3.787138    0.145903   -1.641324
     29          1           0       -4.933745    1.209532   -0.831937
     30          1           0       -1.971552    0.943956   -0.118623
     31          1           0       -3.116957    2.006939    0.691138
     32          1           0       -3.494584    3.250561   -1.464664
     33          1           0       -2.342670    2.181538   -2.279025
     34          1           0       -1.782916    3.281772   -1.008014
 ---------------------------------------------------------------------

 SCF Done:  E(RHF) =  -669.535554613     A.U. after   15 cycles
 E2 =    -0.2091193067D+01 EUMP2 =    -0.67162674768036D+03

 The electronic state is 1-A.
 Alpha  occ. eigenvalues --  -20.60747 -20.60742 -15.85800 -11.31161 -11.27733
 Alpha  occ. eigenvalues --  -11.27725 -11.27465 -11.26743 -11.26700 -11.22670
 Alpha  occ. eigenvalues --  -11.22151 -11.22125 -11.22065 -11.21967 -11.21436
 Alpha  occ. eigenvalues --   -1.59822  -1.39376  -1.19332  -1.09160  -1.08725
 Alpha  occ. eigenvalues --   -1.04736  -1.04269  -0.96696  -0.95562  -0.87708
 Alpha  occ. eigenvalues --   -0.86134  -0.82395  -0.80361  -0.78931  -0.77444
 Alpha  occ. eigenvalues --   -0.72018  -0.71145  -0.70437  -0.65835  -0.64982
 Alpha  occ. eigenvalues --   -0.64739  -0.62170  -0.61584  -0.60091  -0.58299
 Alpha  occ. eigenvalues --   -0.55971  -0.55224  -0.53411  -0.53124  -0.53055
 Alpha  occ. eigenvalues --   -0.52817  -0.50631  -0.48790  -0.48774  -0.48644
 Alpha  occ. eigenvalues --   -0.47385  -0.46470  -0.46366  -0.44783  -0.44503
 Alpha  occ. eigenvalues --   -0.37309  -0.36335
 Alpha virt. eigenvalues --    0.05092   0.11240   0.16570   0.19463   0.22584
 Alpha virt. eigenvalues --    0.23726   0.25723   0.26406   0.26939   0.27981
 Alpha virt. eigenvalues --    0.28980   0.30306   0.30943   0.31285   0.31661

 Mulliken charges:
               1
     1  C   -0.172407
     2  C   -0.225659
     3  C   -0.172204
     4  C    0.158854
     5  C   -0.171101
     6  C   -0.218559
     7  H    0.225961
     8  H    0.233947
     9  H    0.275586
    10  H    0.275513
    11  H    0.223301
    12  N    0.488032
    13  O   -0.460519
    14  O   -0.460560
    15  C   -0.299203
    16  C   -0.300311
    17  C   -0.476221
    18  H    0.150531
    19  H    0.149734
    20  H    0.153335
    21  H    0.152732
    22  H    0.155274
    23  H    0.156362
    24  H    0.162086
    25  C   -0.297846
    26  C   -0.306399
    27  C   -0.478378
    28  H    0.151342
    29  H    0.152551
    30  H    0.146096
    31  H    0.153501
    32  H    0.161594
    33  H    0.157176
    34  H    0.155859
 Sum of Mulliken charges =  -0.00000

 Dipole moment (field-independent basis, Debye):
    X=             -3.5937    Y=              3.2471    Z=              2.2475  Tot=              5.3394
 Quadrupole moment (field-independent basis, Debye-Ang):
   XX=           -115.1773   YY=            -97.0183   ZZ=            -92.0967
   XY=             11.6145   XZ=             10.5247   YZ=              0.9470

 Normal termination of Gaussian 16 at Wed May  5 22:21:19 2021.
