 Gaussian 16, Revision A.03,
 Gaussian 16:  EM64L-G16RevA.03 25-Dec-2016

 -------------
 #p 6-31g* mp2
 -------------

 ------------------------------------------------------
 Input file generated by CHIRIPA (05-May-2021 14:57:22)
 ------------------------------------------------------
 Symbolic Z-matrix:
 Charge =  0 Multiplicity = 1

                         Standard orientation:
 ---------------------------------------------------------------------
 Center     Atomic      Atomic             Coordinates (Angstroms)
 Number     Number       Type             X           Y           Z
 ---------------------------------------------------------------------
      1          6           0        2.179688   -2.284986    0.572746
      2          6           0        3.341476   -2.251631   -0.205493
      3          6           0        3.966031   -1.035313   -0.497126
      4          6           0        3.399106    0.133765    0.007991
      5          6           0        2.242524    0.133241    0.786199
      6          6           0        1.634880   -1.094543    1.065240
      7          1           0        1.701087   -3.234305    0.794403
      8          1           0        3.766811   -3.174573   -0.589305
      9          1           0        4.866275   -0.980629   -1.097117
     10          1           0        1.842035    1.069834    1.154736
     11          1           0        0.732707   -1.117422    1.669893
     12          7           0        4.051343    1.427496   -0.294082
     13          8           0        3.532037    2.443475    0.162802
     14          8           0        5.069523    1.401045   -0.982012
     15          6           0       -3.657080    2.567393    0.148457
     16          6           0       -2.430315    2.006976    0.519268
     17          6           0       -2.216662    0.629734    0.409239
     18          6           0       -3.256278   -0.161067   -0.077715
     19          6           0       -4.489703    0.367495   -0.455302
     20          6           0       -4.681053    1.747311   -0.336790
     21          1           0       -3.814388    3.638267    0.237225
     22          1           0       -1.633289    2.641433    0.896441
     23          1           0       -1.276798    0.169586    0.689129
     24          1           0       -5.265307   -0.290563   -0.827883
     25          1           0       -5.634808    2.179782   -0.625521
     26          7           0       -3.041899   -1.620453   -0.198687
     27          8           0       -3.973767   -2.295537   -0.630567
     28          8           0       -1.946058   -2.061603    0.140664
 ---------------------------------------------------------------------

 SCF Done:  E(RHF) =  -868.339018915     A.U. after   16 cycles
 E2 =    -0.2599961964D+01 EUMP2 =    -0.87093898087979D+03

 The electronic state is 1-A.
 Alpha  occ. eigenvalues --  -20.61468 -20.61420 -20.60786 -20.60765 -15.86491
 Alpha  occ. eigenvalues --  -15.85829 -11.31678 -11.31060 -11.28273 -11.28186
 Alpha  occ. eigenvalues --  -11.27878 -11.27690 -11.27591 -11.27182 -11.27172
 Alpha  occ. eigenvalues --  -11.27157 -11.26544 -11.26512  -1.60511  -1.59855
 Alpha  occ. eigenvalues --   -1.40076  -1.39415  -1.19820  -1.19201  -1.09236
 Alpha  occ. eigenvalues --   -1.08573  -1.05206  -1.04608  -0.96112  -0.95448
 Alpha  occ. eigenvalues --   -0.86608  -0.85971  -0.82959  -0.82315  -0.78058
 Alpha  occ. eigenvalues --   -0.77398  -0.72729  -0.72049  -0.71818  -0.71177
 Alpha  occ. eigenvalues --   -0.70930  -0.70232  -0.65480  -0.65230  -0.64839
 Alpha  occ. eigenvalues --   -0.64557  -0.62626  -0.61909  -0.55682  -0.54970
 Alpha  occ. eigenvalues --   -0.53527  -0.53338  -0.52879  -0.52650  -0.49486
 Alpha  occ. eigenvalues --   -0.49444  -0.48819  -0.48784  -0.45518  -0.44854
 Alpha  occ. eigenvalues --   -0.37764  -0.37073  -0.36797  -0.36207
 Alpha virt. eigenvalues --    0.04492   0.05122   0.10859   0.11433   0.16045
 Alpha virt. eigenvalues --    0.16509   0.19586   0.22292   0.25385   0.27104
 Alpha virt. eigenvalues --    0.28433   0.29669   0.30093   0.31322   0.32574

 Mulliken charges:
               1
     1  C   -0.166849
     2  C   -0.219234
     3  C   -0.170717
     4  C    0.158619
     5  C   -0.175016
     6  C   -0.217190
     7  H    0.235745
     8  H    0.224692
     9  H    0.275087
    10  H    0.265805
    11  H    0.227318
    12  N    0.488516
    13  O   -0.465157
    14  O   -0.459710
    15  C   -0.169587
    16  C   -0.220166
    17  C   -0.172116
    18  C    0.156969
    19  C   -0.169807
    20  C   -0.218490
    21  H    0.229005
    22  H    0.226877
    23  H    0.271769
    24  H    0.276445
    25  H    0.225524
    26  N    0.489322
    27  O   -0.456671
    28  O   -0.470982
 Sum of Mulliken charges =  -0.00000

 Dipole moment (field-independent basis, Debye):
    X=             -3.2426    Y=              0.4231    Z=              1.4118  Tot=              3.5618
 Quadrupole moment (field-independent basis, Debye-Ang):
   XX=           -108.4678   YY=           -106.7940   ZZ=           -104.2995
   XY=            -35.0494   XZ=              2.1389   YZ=              1.2035

 Normal termination of Gaussian 16 at Thu May  6 19:30:52 2021.
