 Gaussian 16, Revision A.03,
 Gaussian 16:  EM64L-G16RevA.03 25-Dec-2016

 -------------
 #p 6-31g* mp2
 -------------

 ------------------------------------------------------
 Input file generated by CHIRIPA (05-May-2021 14:57:26)
 ------------------------------------------------------
 Symbolic Z-matrix:
 Charge =  0 Multiplicity = 1

                         Standard orientation:
 ---------------------------------------------------------------------
 Center     Atomic      Atomic             Coordinates (Angstroms)
 Number     Number       Type             X           Y           Z
 ---------------------------------------------------------------------
      1          6           0       -4.642852   -1.865520   -0.926639
      2          6           0       -3.391143   -1.470127   -1.409765
      3          6           0       -2.796558   -0.288319   -0.957718
      4          6           0       -3.484819    0.477450   -0.017939
      5          6           0       -4.733054    0.110262    0.482432
      6          6           0       -5.308639   -1.075457    0.016255
      7          1           0       -5.097360   -2.785096   -1.283288
      8          1           0       -2.871780   -2.081722   -2.142061
      9          1           0       -1.828521    0.041386   -1.314954
     10          1           0       -5.226494    0.740776    1.212080
     11          1           0       -6.280836   -1.380051    0.393216
     12          7           0       -2.865415    1.730648    0.468102
     13          8           0       -3.492279    2.387692    1.296336
     14          8           0       -1.764791    2.032130    0.011623
     15          6           0        1.683728   -1.460300    1.250952
     16          6           0        2.974963   -1.523861    1.784987
     17          6           0        4.037047   -0.868735    1.154640
     18          6           0        3.770896   -0.155923   -0.013414
     19          6           0        2.495482   -0.073849   -0.570077
     20          6           0        1.448523   -0.736772    0.077193
     21          1           0        0.864551   -1.972246    1.747192
     22          1           0        3.160568   -2.085016    2.696414
     23          1           0        5.046450   -0.901401    1.546376
     24          1           0        2.341463    0.493389   -1.479987
     25          1           0        0.446757   -0.685677   -0.339821
     26          7           0        4.887270    0.541758   -0.689691
     27          8           0        4.626617    1.163119   -1.717605
     28          8           0        6.001799    0.454026   -0.179039
 ---------------------------------------------------------------------

 SCF Done:  E(RHF) =  -868.337235577     A.U. after   16 cycles
 E2 =    -0.2599835400D+01 EUMP2 =    -0.87093707097635D+03

 The electronic state is 1-A.
 Alpha  occ. eigenvalues --  -20.61504 -20.61486 -20.60505 -20.60497 -15.86549
 Alpha  occ. eigenvalues --  -15.85559 -11.32020 -11.30924 -11.28656 -11.28516
 Alpha  occ. eigenvalues --  -11.28263 -11.27624 -11.27547 -11.27509 -11.27495
 Alpha  occ. eigenvalues --  -11.27280 -11.26562 -11.26534  -1.60567  -1.59578
 Alpha  occ. eigenvalues --   -1.40121  -1.39132  -1.20176  -1.19107  -1.09536
 Alpha  occ. eigenvalues --   -1.08509  -1.05595  -1.04517  -0.96365  -0.95340
 Alpha  occ. eigenvalues --   -0.86980  -0.85924  -0.83194  -0.82178  -0.78253
 Alpha  occ. eigenvalues --   -0.77217  -0.72758  -0.71896  -0.71780  -0.71269
 Alpha  occ. eigenvalues --   -0.70899  -0.70232  -0.65817  -0.65597  -0.64770
 Alpha  occ. eigenvalues --   -0.64557  -0.62953  -0.61856  -0.56048  -0.55044
 Alpha  occ. eigenvalues --   -0.53911  -0.53688  -0.52832  -0.52607  -0.49528
 Alpha  occ. eigenvalues --   -0.49513  -0.48540  -0.48531  -0.45499  -0.44537
 Alpha  occ. eigenvalues --   -0.38130  -0.37203  -0.37092  -0.36101
 Alpha virt. eigenvalues --    0.04252   0.05331   0.10359   0.11546   0.15789
 Alpha virt. eigenvalues --    0.16815   0.19448   0.21859   0.25007   0.27079
 Alpha virt. eigenvalues --    0.28500   0.28804   0.30152   0.30908   0.32468

 Mulliken charges:
               1
     1  C   -0.171072
     2  C   -0.218896
     3  C   -0.178985
     4  C    0.159954
     5  C   -0.170832
     6  C   -0.217554
     7  H    0.228383
     8  H    0.224982
     9  H    0.272123
    10  H    0.278062
    11  H    0.226462
    12  N    0.487921
    13  O   -0.456401
    14  O   -0.461933
    15  C   -0.171735
    16  C   -0.218331
    17  C   -0.170846
    18  C    0.158452
    19  C   -0.169441
    20  C   -0.214272
    21  H    0.224074
    22  H    0.222441
    23  H    0.275099
    24  H    0.276272
    25  H    0.219019
    26  N    0.488230
    27  O   -0.459914
    28  O   -0.461261
 Sum of Mulliken charges =  -0.00000

 Dipole moment (field-independent basis, Debye):
    X=             -6.3704    Y=             -6.8217    Z=              0.7234  Tot=              9.3617
 Quadrupole moment (field-independent basis, Debye-Ang):
   XX=           -113.5985   YY=           -108.8871   ZZ=           -101.4584
   XY=              4.1760   XZ=             14.9222   YZ=             -1.7379

 Normal termination of Gaussian 16 at Thu May  6 02:01:51 2021.
