 Gaussian 16, Revision A.03,
 Gaussian 16:  EM64L-G16RevA.03 25-Dec-2016

 -------------
 #p 6-31g* mp2
 -------------

 ------------------------------------------------------
 Input file generated by CHIRIPA (05-May-2021 14:51:09)
 ------------------------------------------------------
 Symbolic Z-matrix:
 Charge =  0 Multiplicity = 1

                         Standard orientation:
 ---------------------------------------------------------------------
 Center     Atomic      Atomic             Coordinates (Angstroms)
 Number     Number       Type             X           Y           Z
 ---------------------------------------------------------------------
      1          6           0       -2.788461    1.065345   -0.588304
      2          6           0       -1.954476    1.882625    0.398867
      3          6           0       -1.710474    3.314902   -0.077410
      4          1           0       -2.279643    1.047879   -1.561825
      5          1           0       -3.752011    1.568730   -0.748210
      6          1           0       -0.993338    1.377126    0.557926
      7          1           0       -2.465244    1.897987    1.370205
      8          1           0       -2.660145    3.841135   -0.218149
      9          1           0       -1.179875    3.317314   -1.035043
     10          1           0       -1.112355    3.881230    0.643275
     11          6           0       -3.040886   -0.368685   -0.126167
     12          6           0       -3.874871   -1.185965   -1.113338
     13          6           0       -4.118873   -2.618242   -0.637061
     14          1           0       -2.077337   -0.872070    0.033739
     15          1           0       -3.549704   -0.351219    0.847354
     16          1           0       -3.364104   -1.201327   -2.084675
     17          1           0       -4.836010   -0.680466   -1.272397
     18          1           0       -4.649472   -2.620654    0.320572
     19          1           0       -3.169203   -3.144475   -0.496322
     20          1           0       -4.716992   -3.184570   -1.357746
     21          6           0        3.124967   -0.098842   -0.333390
     22          6           0        4.558027   -0.480663   -0.705595
     23          6           0        4.964069    0.025538   -2.090039
     24          1           0        2.436861   -0.501833   -1.089070
     25          1           0        3.023146    0.994652   -0.369402
     26          1           0        4.657485   -1.573036   -0.667546
     27          1           0        5.242786   -0.076879    0.051162
     28          1           0        4.893122    1.117024   -2.137218
     29          1           0        4.304496   -0.387632   -2.860010
     30          1           0        5.992053   -0.258558   -2.335798
     31          6           0        2.704379   -0.597818    1.047861
     32          6           0        1.271320   -0.215997    1.420066
     33          6           0        0.865279   -0.722198    2.804510
     34          1           0        2.806202   -1.691313    1.083873
     35          1           0        3.392487   -0.194827    1.803542
     36          1           0        0.586562   -0.619781    0.663309
     37          1           0        1.171862    0.876376    1.382018
     38          1           0        1.524852   -0.309028    3.574480
     39          1           0        0.936226   -1.813684    2.851688
     40          1           0       -0.162706   -0.438102    3.050269
 ---------------------------------------------------------------------

 SCF Done:  E(RHF) =  -470.732642235     A.U. after   11 cycles
 E2 =    -0.1583889302D+01 EUMP2 =    -0.47231653153708D+03

 The electronic state is 1-A.
 Alpha  occ. eigenvalues --  -11.21667 -11.21642 -11.21594 -11.21458 -11.21435
 Alpha  occ. eigenvalues --  -11.21398 -11.21373 -11.21301 -11.21105 -11.21098
 Alpha  occ. eigenvalues --  -11.21072 -11.21016  -1.08499  -1.08379  -1.03600
 Alpha  occ. eigenvalues --   -1.03470  -0.96022  -0.95944  -0.87040  -0.86958
 Alpha  occ. eigenvalues --   -0.79768  -0.79481  -0.78414  -0.78085  -0.65130
 Alpha  occ. eigenvalues --   -0.65021  -0.61018  -0.60877  -0.59464  -0.59241
 Alpha  occ. eigenvalues --   -0.57648  -0.57540  -0.55323  -0.55220  -0.52721
 Alpha  occ. eigenvalues --   -0.52628  -0.52446  -0.52368  -0.49980  -0.49883
 Alpha  occ. eigenvalues --   -0.48197  -0.47778  -0.46771  -0.46532  -0.46096
 Alpha  occ. eigenvalues --   -0.45742  -0.45717  -0.45220  -0.43820  -0.43737
 Alpha virt. eigenvalues --    0.21054   0.23173   0.23803   0.24267   0.25626
 Alpha virt. eigenvalues --    0.26450   0.26721   0.27841   0.28118   0.29277
 Alpha virt. eigenvalues --    0.30540   0.31402   0.31620   0.31948   0.31976

 Mulliken charges:
               1
     1  C   -0.297183
     2  C   -0.311983
     3  C   -0.475239
     4  H    0.149016
     5  H    0.149133
     6  H    0.167306
     7  H    0.150353
     8  H    0.154886
     9  H    0.154828
    10  H    0.159221
    11  C   -0.302256
    12  C   -0.299486
    13  C   -0.475610
    14  H    0.152435
    15  H    0.149516
    16  H    0.151717
    17  H    0.152136
    18  H    0.155282
    19  H    0.154790
    20  H    0.160221
    21  C   -0.298586
    22  C   -0.299648
    23  C   -0.475751
    24  H    0.149088
    25  H    0.149638
    26  H    0.152032
    27  H    0.152143
    28  H    0.155302
    29  H    0.155105
    30  H    0.160440
    31  C   -0.296583
    32  C   -0.307279
    33  C   -0.476634
    34  H    0.149570
    35  H    0.149943
    36  H    0.154523
    37  H    0.154601
    38  H    0.155309
    39  H    0.155249
    40  H    0.162452
 Sum of Mulliken charges =  -0.00000

 Dipole moment (field-independent basis, Debye):
    X=              0.0513    Y=             -0.0197    Z=              0.0239  Tot=              0.0599
 Quadrupole moment (field-independent basis, Debye-Ang):
   XX=            -84.2753   YY=            -85.2781   ZZ=            -85.3580
   XY=             -0.2844   XZ=              0.2242   YZ=              1.0231

 Normal termination of Gaussian 16 at Wed May  5 19:43:37 2021.
