 Gaussian 16, Revision A.03,
 Gaussian 16:  EM64L-G16RevA.03 25-Dec-2016

 -------------
 #p 6-31g* mp2
 -------------

 ------------------------------------------------------
 Input file generated by CHIRIPA (05-May-2021 14:55:22)
 ------------------------------------------------------
 Symbolic Z-matrix:
 Charge =  0 Multiplicity = 1

                         Standard orientation:
 ---------------------------------------------------------------------
 Center     Atomic      Atomic             Coordinates (Angstroms)
 Number     Number       Type             X           Y           Z
 ---------------------------------------------------------------------
      1          6           0       -1.127014   -2.103981   -0.656283
      2          6           0       -2.393688   -2.521498   -0.234695
      3          6           0       -3.379884   -1.584012    0.086377
      4          6           0       -3.063713   -0.230975   -0.025941
      5          6           0       -1.811040    0.216359   -0.443064
      6          6           0       -0.840238   -0.738792   -0.758941
      7          1           0       -0.366893   -2.839104   -0.903682
      8          1           0       -2.619218   -3.581062   -0.154041
      9          1           0       -4.368747   -1.879577    0.415329
     10          1           0       -1.615895    1.279538   -0.513683
     11          1           0        0.142613   -0.411643   -1.086083
     12          7           0       -4.099606    0.770850    0.311214
     13          8           0       -3.796007    1.957008    0.204004
     14          8           0       -5.195523    0.350953    0.676302
     15          6           0        4.318322    0.066878   -0.001204
     16          6           0        4.159217   -1.344004    0.566319
     17          6           0        5.398433   -2.212463    0.347422
     18          1           0        4.536121    0.000507   -1.075962
     19          1           0        5.190129    0.546096    0.465379
     20          1           0        3.287150   -1.819917    0.099820
     21          1           0        3.941582   -1.274259    1.639812
     22          1           0        6.273594   -1.762971    0.827682
     23          1           0        5.615444   -2.311729   -0.721060
     24          1           0        5.262977   -3.216757    0.760831
     25          6           0        3.087722    0.947105    0.209864
     26          6           0        3.246827    2.357987   -0.357660
     27          6           0        2.007611    3.226447   -0.138762
     28          1           0        2.215915    0.467887   -0.256719
     29          1           0        2.869922    1.013477    1.284622
     30          1           0        3.464462    2.288244   -1.431152
     31          1           0        4.118894    2.833900    0.108840
     32          1           0        1.790600    3.325713    0.929720
     33          1           0        1.132449    2.776955   -0.619022
     34          1           0        2.143068    4.230740   -0.552171
 ---------------------------------------------------------------------

 SCF Done:  E(RHF) =  -669.535372513     A.U. after   15 cycles
 E2 =    -0.2091600956D+01 EUMP2 =    -0.67162697346857D+03

 The electronic state is 1-A.
 Alpha  occ. eigenvalues --  -20.60731 -20.60726 -15.85784 -11.31154 -11.27728
 Alpha  occ. eigenvalues --  -11.27721 -11.27474 -11.26744 -11.26722 -11.22369
 Alpha  occ. eigenvalues --  -11.22274 -11.22213 -11.22102 -11.21713 -11.21681
 Alpha  occ. eigenvalues --   -1.59806  -1.39360  -1.19329  -1.09181  -1.08724
 Alpha  occ. eigenvalues --   -1.04734  -1.04220  -0.96662  -0.95557  -0.87674
 Alpha  occ. eigenvalues --   -0.86134  -0.82393  -0.80279  -0.79012  -0.77433
 Alpha  occ. eigenvalues --   -0.72003  -0.71129  -0.70440  -0.65863  -0.64982
 Alpha  occ. eigenvalues --   -0.64726  -0.62111  -0.61595  -0.60024  -0.58274
 Alpha  occ. eigenvalues --   -0.55965  -0.55239  -0.53327  -0.53146  -0.53056
 Alpha  occ. eigenvalues --   -0.52783  -0.50602  -0.48769  -0.48757  -0.48590
 Alpha  occ. eigenvalues --   -0.47325  -0.46527  -0.46458  -0.44764  -0.44487
 Alpha  occ. eigenvalues --   -0.37309  -0.36329
 Alpha virt. eigenvalues --    0.05098   0.11274   0.16544   0.18648   0.22695
 Alpha virt. eigenvalues --    0.23226   0.24944   0.25761   0.26491   0.28142
 Alpha virt. eigenvalues --    0.29490   0.30453   0.31154   0.31386   0.31589

 Mulliken charges:
               1
     1  C   -0.172235
     2  C   -0.218641
     3  C   -0.170775
     4  C    0.158832
     5  C   -0.174446
     6  C   -0.222314
     7  H    0.225605
     8  H    0.223315
     9  H    0.275515
    10  H    0.277349
    11  H    0.230261
    12  N    0.488036
    13  O   -0.460195
    14  O   -0.460677
    15  C   -0.298696
    16  C   -0.298057
    17  C   -0.476157
    18  H    0.149669
    19  H    0.153390
    20  H    0.143360
    21  H    0.154982
    22  H    0.157957
    23  H    0.155418
    24  H    0.160973
    25  C   -0.302228
    26  C   -0.300761
    27  C   -0.474942
    28  H    0.140858
    29  H    0.154491
    30  H    0.152129
    31  H    0.155788
    32  H    0.159868
    33  H    0.146975
    34  H    0.165353
 Sum of Mulliken charges =  -0.00000

 Dipole moment (field-independent basis, Debye):
    X=              3.8368    Y=             -3.4368    Z=             -1.0991  Tot=              5.2670
 Quadrupole moment (field-independent basis, Debye-Ang):
   XX=           -115.2023   YY=            -90.7037   ZZ=            -94.4771
   XY=             13.7852   XZ=              3.4048   YZ=             -0.2536

 Normal termination of Gaussian 16 at Thu May  6 17:35:35 2021.
