 Gaussian 16, Revision A.03,
 Gaussian 16:  EM64L-G16RevA.03 25-Dec-2016

 -------------
 #p 6-31g* mp2
 -------------

 ------------------------------------------------------
 Input file generated by CHIRIPA (05-May-2021 14:57:26)
 ------------------------------------------------------
 Symbolic Z-matrix:
 Charge =  0 Multiplicity = 1

                         Standard orientation:
 ---------------------------------------------------------------------
 Center     Atomic      Atomic             Coordinates (Angstroms)
 Number     Number       Type             X           Y           Z
 ---------------------------------------------------------------------
      1          6           0        3.127278    2.244808   -0.846162
      2          6           0        2.188186    1.455801   -0.173782
      3          6           0        2.541698    0.196028    0.318711
      4          6           0        3.848968   -0.245487    0.120215
      5          6           0        4.807260    0.517196   -0.545579
      6          6           0        4.431518    1.773818   -1.029592
      7          1           0        2.844027    3.222206   -1.225449
      8          1           0        1.174573    1.819013   -0.029872
      9          1           0        1.834672   -0.435463    0.842877
     10          1           0        5.810056    0.128090   -0.673694
     11          1           0        5.162925    2.384404   -1.551391
     12          7           0        4.234982   -1.577484    0.637106
     13          8           0        5.393124   -1.943631    0.449279
     14          8           0        3.372088   -2.230135    1.220286
     15          6           0       -3.049358    2.249659    0.902734
     16          6           0       -2.277970    1.612267   -0.074616
     17          6           0       -2.676104    0.379944   -0.601321
     18          6           0       -3.856501   -0.189022   -0.125684
     19          6           0       -4.646598    0.421251    0.847250
     20          6           0       -4.229130    1.653169    1.359742
     21          1           0       -2.732567    3.206800    1.306370
     22          1           0       -1.361284    2.073166   -0.431413
     23          1           0       -2.097933   -0.135366   -1.358679
     24          1           0       -5.555562   -0.062884    1.183132
     25          1           0       -4.830192    2.145884    2.118690
     26          7           0       -4.288222   -1.493412   -0.675760
     27          8           0       -5.332234   -1.973829   -0.240014
     28          8           0       -3.574418   -2.010678   -1.532239
 ---------------------------------------------------------------------

 SCF Done:  E(RHF) =  -868.336436445     A.U. after   16 cycles
 E2 =    -0.2599596879D+01 EUMP2 =    -0.87093603332414D+03

 The electronic state is 1-A.
 Alpha  occ. eigenvalues --  -20.61084 -20.61079 -20.61015 -20.61008 -15.86148
 Alpha  occ. eigenvalues --  -15.86075 -11.31681 -11.31588 -11.28340 -11.28263
 Alpha  occ. eigenvalues --  -11.28220 -11.28171 -11.28110 -11.28014 -11.27473
 Alpha  occ. eigenvalues --  -11.27355 -11.27288 -11.27205  -1.60157  -1.60087
 Alpha  occ. eigenvalues --   -1.39706  -1.39636  -1.19896  -1.19797  -1.09262
 Alpha  occ. eigenvalues --   -1.09172  -1.05342  -1.05231  -0.96058  -0.95972
 Alpha  occ. eigenvalues --   -0.86748  -0.86620  -0.82908  -0.82801  -0.77933
 Alpha  occ. eigenvalues --   -0.77803  -0.72362  -0.72290  -0.71483  -0.71413
 Alpha  occ. eigenvalues --   -0.71001  -0.70912  -0.65555  -0.65542  -0.65457
 Alpha  occ. eigenvalues --   -0.65134  -0.62774  -0.62484  -0.55848  -0.55740
 Alpha  occ. eigenvalues --   -0.53654  -0.53571  -0.53538  -0.53207  -0.49138
 Alpha  occ. eigenvalues --   -0.49105  -0.49061  -0.49034  -0.45074  -0.45008
 Alpha  occ. eigenvalues --   -0.37885  -0.37794  -0.36948  -0.36835
 Alpha virt. eigenvalues --    0.04647   0.04736   0.10637   0.10795   0.16002
 Alpha virt. eigenvalues --    0.16171   0.18484   0.21901   0.24654   0.27665
 Alpha virt. eigenvalues --    0.27934   0.28509   0.29579   0.31660   0.31782

 Mulliken charges:
               1
     1  C   -0.171140
     2  C   -0.222681
     3  C   -0.171252
     4  C    0.159241
     5  C   -0.169649
     6  C   -0.218349
     7  H    0.224349
     8  H    0.216968
     9  H    0.278251
    10  H    0.277561
    11  H    0.224986
    12  N    0.488021
    13  O   -0.459157
    14  O   -0.458170
    15  C   -0.170339
    16  C   -0.224173
    17  C   -0.171106
    18  C    0.159350
    19  C   -0.169016
    20  C   -0.218342
    21  H    0.225324
    22  H    0.216918
    23  H    0.277331
    24  H    0.278171
    25  H    0.225677
    26  N    0.488131
    27  O   -0.458477
    28  O   -0.458431
 Sum of Mulliken charges =  -0.00000

 Dipole moment (field-independent basis, Debye):
    X=              0.1114    Y=              9.1195    Z=              0.1561  Tot=              9.1215
 Quadrupole moment (field-independent basis, Debye-Ang):
   XX=           -118.0241   YY=           -110.2270   ZZ=           -104.5354
   XY=              1.0271   XZ=            -19.8389   YZ=             -0.0793

 Normal termination of Gaussian 16 at Fri May  7 05:05:54 2021.
