 Gaussian 16, Revision A.03,
 Gaussian 16:  EM64L-G16RevA.03 25-Dec-2016

 -------------
 #p 6-31g* mp2
 -------------

 ------------------------------------------------------
 Input file generated by CHIRIPA (05-May-2021 14:51:13)
 ------------------------------------------------------
 Symbolic Z-matrix:
 Charge =  0 Multiplicity = 1

                         Standard orientation:
 ---------------------------------------------------------------------
 Center     Atomic      Atomic             Coordinates (Angstroms)
 Number     Number       Type             X           Y           Z
 ---------------------------------------------------------------------
      1          6           0        3.505398    1.255442    0.121067
      2          6           0        1.986005    1.340995   -0.027632
      3          6           0        1.444402    2.746284    0.236233
      4          1           0        3.786826    1.574192    1.134054
      5          1           0        3.975310    1.966680   -0.572272
      6          1           0        1.519141    0.628818    0.664797
      7          1           0        1.708145    1.021823   -1.040320
      8          1           0        1.882973    3.465714   -0.462821
      9          1           0        1.692895    3.070476    1.251984
     10          1           0        0.356332    2.784723    0.124485
     11          6           0        4.061820   -0.143187   -0.139620
     12          6           0        5.581212   -0.228740    0.009079
     13          6           0        6.122816   -1.634029   -0.254785
     14          1           0        3.591908   -0.854425    0.553720
     15          1           0        3.780391   -0.461937   -1.152606
     16          1           0        5.859072    0.090432    1.021768
     17          1           0        6.048077    0.483437   -0.683349
     18          1           0        5.874323   -1.958221   -1.270537
     19          1           0        5.684245   -2.353459    0.444269
     20          1           0        7.210885   -1.672468   -0.143037
     21          6           0       -3.072283   -0.641406   -0.255629
     22          6           0       -2.213931   -1.572997    0.600733
     23          6           0       -0.793576   -1.733534    0.057949
     24          1           0       -3.112336   -1.030581   -1.282217
     25          1           0       -2.587327    0.342920   -0.313207
     26          1           0       -2.701058   -2.554864    0.657819
     27          1           0       -2.176074   -1.181662    1.625448
     28          1           0       -0.285013   -0.764878    0.017077
     29          1           0       -0.812980   -2.145884   -0.956050
     30          1           0       -0.197395   -2.403514    0.685288
     31          6           0       -4.494935   -0.470848    0.274181
     32          6           0       -5.353287    0.460742   -0.582180
     33          6           0       -6.773641    0.621278   -0.039396
     34          1           0       -4.979890   -1.455175    0.331759
     35          1           0       -4.454882   -0.081674    1.300770
     36          1           0       -5.391144    0.069407   -1.606895
     37          1           0       -4.866160    1.442609   -0.639266
     38          1           0       -6.754237    1.033629    0.974602
     39          1           0       -7.282205   -0.347377    0.001476
     40          1           0       -7.369822    1.291259   -0.666736
 ---------------------------------------------------------------------

 SCF Done:  E(RHF) =  -470.733101760     A.U. after   11 cycles
 E2 =    -0.1582685943D+01 EUMP2 =    -0.47231578770314D+03

 The electronic state is 1-A.
 Alpha  occ. eigenvalues --  -11.21606 -11.21593 -11.21589 -11.21562 -11.21400
 Alpha  occ. eigenvalues --  -11.21390 -11.21335 -11.21330 -11.21116 -11.21064
 Alpha  occ. eigenvalues --  -11.21057 -11.20956  -1.08436  -1.08404  -1.03554
 Alpha  occ. eigenvalues --   -1.03487  -0.95992  -0.95942  -0.87020  -0.86949
 Alpha  occ. eigenvalues --   -0.79684  -0.79497  -0.78279  -0.78185  -0.65089
 Alpha  occ. eigenvalues --   -0.65017  -0.61008  -0.60845  -0.59375  -0.59307
 Alpha  occ. eigenvalues --   -0.57654  -0.57509  -0.55300  -0.55212  -0.52697
 Alpha  occ. eigenvalues --   -0.52634  -0.52448  -0.52338  -0.50007  -0.49857
 Alpha  occ. eigenvalues --   -0.48066  -0.47732  -0.46736  -0.46508  -0.45859
 Alpha  occ. eigenvalues --   -0.45729  -0.45719  -0.45511  -0.43788  -0.43757
 Alpha virt. eigenvalues --    0.21765   0.23056   0.23635   0.24850   0.26187
 Alpha virt. eigenvalues --    0.26548   0.26849   0.27299   0.28261   0.29035
 Alpha virt. eigenvalues --    0.30626   0.31243   0.31665   0.31734   0.31990

 Mulliken charges:
               1
     1  C   -0.297595
     2  C   -0.304935
     3  C   -0.475934
     4  H    0.149460
     5  H    0.149452
     6  H    0.156417
     7  H    0.152970
     8  H    0.155649
     9  H    0.155295
    10  H    0.159413
    11  C   -0.298422
    12  C   -0.299668
    13  C   -0.475669
    14  H    0.150012
    15  H    0.149999
    16  H    0.151814
    17  H    0.151845
    18  H    0.155263
    19  H    0.155229
    20  H    0.160159
    21  C   -0.298187
    22  C   -0.299258
    23  C   -0.483579
    24  H    0.149638
    25  H    0.149048
    26  H    0.151649
    27  H    0.151321
    28  H    0.165109
    29  H    0.154632
    30  H    0.159008
    31  C   -0.298272
    32  C   -0.299629
    33  C   -0.475694
    34  H    0.149552
    35  H    0.149586
    36  H    0.151916
    37  H    0.151840
    38  H    0.155171
    39  H    0.155172
    40  H    0.160225
 Sum of Mulliken charges =  -0.00000

 Dipole moment (field-independent basis, Debye):
    X=              0.0314    Y=              0.0117    Z=             -0.0068  Tot=              0.0342
 Quadrupole moment (field-independent basis, Debye-Ang):
   XX=            -86.1682   YY=            -85.1433   ZZ=            -83.5621
   XY=              0.9998   XZ=              0.4387   YZ=              0.0286

 Normal termination of Gaussian 16 at Thu May  6 02:24:13 2021.
