 Gaussian 16, Revision A.03,
 Gaussian 16:  EM64L-G16RevA.03 25-Dec-2016

 -------------
 #p 6-31g* mp2
 -------------

 ------------------------------------------------------
 Input file generated by CHIRIPA (05-May-2021 14:57:26)
 ------------------------------------------------------
 Symbolic Z-matrix:
 Charge =  0 Multiplicity = 1

                         Standard orientation:
 ---------------------------------------------------------------------
 Center     Atomic      Atomic             Coordinates (Angstroms)
 Number     Number       Type             X           Y           Z
 ---------------------------------------------------------------------
      1          6           0        1.695974    2.138450    0.951308
      2          6           0        1.935447    1.074512    1.827213
      3          6           0        2.646103   -0.050972    1.399659
      4          6           0        3.104837   -0.079308    0.083585
      5          6           0        2.882307    0.964767   -0.812896
      6          6           0        2.169334    2.080285   -0.363632
      7          1           0        1.143019    3.008882    1.291874
      8          1           0        1.569021    1.116945    2.848964
      9          1           0        2.845668   -0.888714    2.056758
     10          1           0        3.260136    0.893605   -1.825614
     11          1           0        1.984841    2.905078   -1.046072
     12          7           0        3.858403   -1.265532   -0.380539
     13          8           0        4.251947   -1.266128   -1.544910
     14          8           0        4.041236   -2.172237    0.428841
     15          6           0       -5.356312   -0.886253    0.199255
     16          6           0       -5.101851    0.416746   -0.241156
     17          6           0       -3.789536    0.854218   -0.443634
     18          6           0       -2.750969   -0.041750   -0.194817
     19          6           0       -2.972232   -1.346083    0.244555
     20          6           0       -4.292565   -1.761965    0.440280
     21          1           0       -6.378864   -1.217707    0.353922
     22          1           0       -5.926003    1.099007   -0.429142
     23          1           0       -3.564073    1.857555   -0.784074
     24          1           0       -2.129947   -2.003316    0.423493
     25          1           0       -4.487199   -2.774458    0.782364
     26          7           0       -1.357436    0.409954   -0.405597
     27          8           0       -0.459957   -0.398709   -0.179250
     28          8           0       -1.189049    1.564110   -0.793162
 ---------------------------------------------------------------------

 SCF Done:  E(RHF) =  -868.337828685     A.U. after   16 cycles
 E2 =    -0.2602605293D+01 EUMP2 =    -0.87094043397864D+03

 The electronic state is 1-A.
 Alpha  occ. eigenvalues --  -20.61384 -20.61298 -20.59404 -20.59390 -15.86348
 Alpha  occ. eigenvalues --  -15.84437 -11.31620 -11.29383 -11.28190 -11.28142
 Alpha  occ. eigenvalues --  -11.27879 -11.27165 -11.27131 -11.26006 -11.25896
 Alpha  occ. eigenvalues --  -11.25639 -11.25001 -11.24838  -1.60392  -1.58478
 Alpha  occ. eigenvalues --   -1.39957  -1.38047  -1.19777  -1.17509  -1.09191
 Alpha  occ. eigenvalues --   -1.07013  -1.05159  -1.02917  -0.96048  -0.93930
 Alpha  occ. eigenvalues --   -0.86562  -0.84372  -0.82888  -0.80816  -0.77947
 Alpha  occ. eigenvalues --   -0.75898  -0.72610  -0.71723  -0.70877  -0.70691
 Alpha  occ. eigenvalues --   -0.69773  -0.68746  -0.65431  -0.65159  -0.63242
 Alpha  occ. eigenvalues --   -0.63020  -0.62505  -0.60348  -0.55675  -0.53520
 Alpha  occ. eigenvalues --   -0.53490  -0.53246  -0.51647  -0.51103  -0.49361
 Alpha  occ. eigenvalues --   -0.48774  -0.47453  -0.47402  -0.45393  -0.43550
 Alpha  occ. eigenvalues --   -0.37762  -0.36759  -0.35375  -0.34390
 Alpha virt. eigenvalues --    0.04564   0.06661   0.10896   0.13207   0.16088
 Alpha virt. eigenvalues --    0.18259   0.21071   0.22967   0.26987   0.27954
 Alpha virt. eigenvalues --    0.28817   0.29821   0.30644   0.32161   0.32431

 Mulliken charges:
               1
     1  C   -0.161281
     2  C   -0.216542
     3  C   -0.165220
     4  C    0.166100
     5  C   -0.169462
     6  C   -0.197445
     7  H    0.218308
     8  H    0.212412
     9  H    0.266884
    10  H    0.268748
    11  H    0.218781
    12  N    0.487737
    13  O   -0.465396
    14  O   -0.467434
    15  C   -0.170410
    16  C   -0.218485
    17  C   -0.171550
    18  C    0.158419
    19  C   -0.171219
    20  C   -0.218548
    21  H    0.227099
    22  H    0.224101
    23  H    0.273676
    24  H    0.277843
    25  H    0.225644
    26  N    0.488457
    27  O   -0.454062
    28  O   -0.467157
 Sum of Mulliken charges =  -0.00000

 Dipole moment (field-independent basis, Debye):
    X=             -7.9909    Y=              2.5916    Z=              2.2518  Tot=              8.6972
 Quadrupole moment (field-independent basis, Debye-Ang):
   XX=            -96.0398   YY=           -101.3268   ZZ=           -101.8504
   XY=             16.9684   XZ=              3.4619   YZ=             -3.3355

 Normal termination of Gaussian 16 at Wed May  5 21:12:17 2021.
