 Gaussian 16, Revision A.03,
 Gaussian 16:  EM64L-G16RevA.03 25-Dec-2016

 -------------
 #p 6-31g* mp2
 -------------

 ------------------------------------------------------
 Input file generated by CHIRIPA (05-May-2021 14:53:13)
 ------------------------------------------------------
 Symbolic Z-matrix:
 Charge =  0 Multiplicity = 1

                         Standard orientation:
 ---------------------------------------------------------------------
 Center     Atomic      Atomic             Coordinates (Angstroms)
 Number     Number       Type             X           Y           Z
 ---------------------------------------------------------------------
      1          6           0       -3.167099   -0.247425    0.660831
      2          6           0       -2.357662   -1.537940    0.792623
      3          6           0       -1.056028   -1.342490    1.570660
      4          1           0       -2.551755    0.514651    0.163301
      5          1           0       -3.393112    0.139487    1.664132
      6          1           0       -2.134428   -1.923044   -0.210610
      7          1           0       -2.975071   -2.297092    1.289726
      8          1           0       -1.262965   -0.980784    2.583057
      9          1           0       -0.417547   -0.604611    1.074196
     10          1           0       -0.493195   -2.277539    1.652900
     11          6           0       -4.471106   -0.426717   -0.114506
     12          6           0       -5.280543    0.863798   -0.246298
     13          6           0       -6.582177    0.668348   -1.024335
     14          1           0       -4.245093   -0.813630   -1.117807
     15          1           0       -5.086449   -1.188794    0.383024
     16          1           0       -4.663134    1.622950   -0.743401
     17          1           0       -5.503777    1.248902    0.756935
     18          1           0       -7.220658   -0.069531   -0.527871
     19          1           0       -6.375239    0.306642   -2.036732
     20          1           0       -7.145010    1.603396   -1.106575
     21          6           0        3.615227   -2.134174   -0.681394
     22          6           0        2.305095   -1.698765   -0.906100
     23          6           0        1.943914   -0.372617   -0.650310
     24          6           0        2.922617    0.495119   -0.168166
     25          6           0        4.236237    0.091445    0.065805
     26          6           0        4.574925   -1.239257   -0.197013
     27          1           0        3.887064   -3.166125   -0.882827
     28          1           0        1.557696   -2.391559   -1.282234
     29          1           0        0.936979   -0.008949   -0.815368
     30          1           0        4.959320    0.805341    0.441199
     31          1           0        5.593159   -1.574613   -0.021569
     32          7           0        2.552157    1.901463    0.106348
     33          8           0        3.432937    2.646282    0.530743
     34          8           0        1.388028    2.232307   -0.108081
 ---------------------------------------------------------------------

 SCF Done:  E(RHF) =  -669.535084543     A.U. after   15 cycles
 E2 =    -0.2091935135D+01 EUMP2 =    -0.67162701967811D+03

 The electronic state is 1-A.
 Alpha  occ. eigenvalues --  -20.60805 -20.60799 -15.85853 -11.31202 -11.27771
 Alpha  occ. eigenvalues --  -11.27768 -11.27512 -11.26784 -11.26774 -11.21827
 Alpha  occ. eigenvalues --  -11.21490 -11.21391 -11.21332 -11.21245 -11.20986
 Alpha  occ. eigenvalues --   -1.59875  -1.39430  -1.19379  -1.08774  -1.08456
 Alpha  occ. eigenvalues --   -1.04785  -1.03583  -0.96027  -0.95610  -0.87044
 Alpha  occ. eigenvalues --   -0.86181  -0.82444  -0.79646  -0.78243  -0.77496
 Alpha  occ. eigenvalues --   -0.72073  -0.71195  -0.70506  -0.65123  -0.65026
 Alpha  occ. eigenvalues --   -0.64779  -0.62191  -0.60952  -0.59396  -0.57625
 Alpha  occ. eigenvalues --   -0.55427  -0.55192  -0.53138  -0.52905  -0.52701
 Alpha  occ. eigenvalues --   -0.52393  -0.49947  -0.48832  -0.48827  -0.47949
 Alpha  occ. eigenvalues --   -0.46682  -0.45786  -0.45706  -0.44829  -0.43822
 Alpha  occ. eigenvalues --   -0.37355  -0.36340
 Alpha virt. eigenvalues --    0.05015   0.11188   0.16511   0.20240   0.22930
 Alpha virt. eigenvalues --    0.24051   0.26211   0.26965   0.27579   0.28180
 Alpha virt. eigenvalues --    0.29263   0.29988   0.31467   0.31636   0.32015

 Mulliken charges:
               1
     1  C   -0.300078
     2  C   -0.300106
     3  C   -0.479948
     4  H    0.155425
     5  H    0.152370
     6  H    0.143665
     7  H    0.152872
     8  H    0.160131
     9  H    0.157678
    10  H    0.155964
    11  C   -0.298094
    12  C   -0.300268
    13  C   -0.475750
    14  H    0.147255
    15  H    0.148832
    16  H    0.155122
    17  H    0.153041
    18  H    0.154377
    19  H    0.154357
    20  H    0.161179
    21  C   -0.170984
    22  C   -0.218003
    23  C   -0.169127
    24  C    0.158189
    25  C   -0.170980
    26  C   -0.218318
    27  H    0.225669
    28  H    0.224039
    29  H    0.275439
    30  H    0.275633
    31  H    0.223494
    32  N    0.488728
    33  O   -0.459852
    34  O   -0.461949
 Sum of Mulliken charges =  -0.00000

 Dipole moment (field-independent basis, Debye):
    X=              1.3104    Y=             -4.8721    Z=             -0.9162  Tot=              5.1278
 Quadrupole moment (field-independent basis, Debye-Ang):
   XX=            -83.2721   YY=           -100.2318   ZZ=            -94.2691
   XY=            -13.1963   XZ=             -2.5947   YZ=              0.5706

 Normal termination of Gaussian 16 at Thu May  6 04:11:32 2021.
