 Gaussian 16, Revision A.03,
 Gaussian 16:  EM64L-G16RevA.03 25-Dec-2016

 -------------
 #p 6-31g* mp2
 -------------

 ------------------------------------------------------
 Input file generated by CHIRIPA (05-May-2021 14:57:27)
 ------------------------------------------------------
 Symbolic Z-matrix:
 Charge =  0 Multiplicity = 1

                         Standard orientation:
 ---------------------------------------------------------------------
 Center     Atomic      Atomic             Coordinates (Angstroms)
 Number     Number       Type             X           Y           Z
 ---------------------------------------------------------------------
      1          6           0       -1.519755   -2.754923    0.244542
      2          6           0       -0.990211   -1.948999    1.257750
      3          6           0       -1.252740   -0.576052    1.283077
      4          6           0       -2.052395   -0.039843    0.274949
      5          6           0       -2.594489   -0.816528   -0.747882
      6          6           0       -2.318795   -2.187117   -0.753281
      7          1           0       -1.310703   -3.820545    0.232607
      8          1           0       -0.369337   -2.387236    2.033965
      9          1           0       -0.855576    0.071053    2.055692
     10          1           0       -3.209946   -0.350912   -1.508035
     11          1           0       -2.731387   -2.810577   -1.541387
     12          7           0       -2.337292    1.412386    0.291214
     13          8           0       -3.044712    1.860505   -0.608444
     14          8           0       -1.847779    2.075026    1.203311
     15          6           0        1.452143    2.738896   -0.370355
     16          6           0        2.416355    2.273654    0.529848
     17          6           0        2.730962    0.912918    0.592847
     18          6           0        2.058932    0.041392   -0.262786
     19          6           0        1.093484    0.474261   -1.170435
     20          6           0        0.794944    1.839301   -1.216132
     21          1           0        1.213988    3.797620   -0.412574
     22          1           0        2.928340    2.970001    1.187888
     23          1           0        3.473207    0.525687    1.280264
     24          1           0        0.599921   -0.244025   -1.813767
     25          1           0        0.045681    2.197779   -1.916237
     26          7           0        2.383488   -1.401436   -0.205250
     27          8           0        1.777238   -2.148875   -0.969730
     28          8           0        3.237981   -1.757563    0.603237
 ---------------------------------------------------------------------

 SCF Done:  E(RHF) =  -868.339124303     A.U. after   16 cycles
 E2 =    -0.2606316206D+01 EUMP2 =    -0.87094544050900D+03

 The electronic state is 1-A.
 Alpha  occ. eigenvalues --  -20.61093 -20.61063 -20.60981 -20.60966 -15.86085
 Alpha  occ. eigenvalues --  -15.85992 -11.31093 -11.31000 -11.27732 -11.27635
 Alpha  occ. eigenvalues --  -11.27633 -11.27557 -11.27256 -11.27180 -11.26590
 Alpha  occ. eigenvalues --  -11.26487 -11.26469 -11.26367  -1.60154  -1.60054
 Alpha  occ. eigenvalues --   -1.39716  -1.39615  -1.19329  -1.19141  -1.08690
 Alpha  occ. eigenvalues --   -1.08598  -1.04652  -1.04550  -0.95593  -0.95500
 Alpha  occ. eigenvalues --   -0.86028  -0.85931  -0.82456  -0.82366  -0.77568
 Alpha  occ. eigenvalues --   -0.77472  -0.72339  -0.72244  -0.71552  -0.71349
 Alpha  occ. eigenvalues --   -0.70315  -0.70230  -0.64913  -0.64819  -0.64605
 Alpha  occ. eigenvalues --   -0.64506  -0.62001  -0.61899  -0.55053  -0.54972
 Alpha  occ. eigenvalues --   -0.53496  -0.52727  -0.52635  -0.52328  -0.49114
 Alpha  occ. eigenvalues --   -0.49064  -0.49012  -0.48967  -0.45205  -0.45100
 Alpha  occ. eigenvalues --   -0.37585  -0.37059  -0.36185  -0.35680
 Alpha virt. eigenvalues --    0.04384   0.05583   0.11273   0.11626   0.16458
 Alpha virt. eigenvalues --    0.16733   0.21587   0.21889   0.27467   0.27603
 Alpha virt. eigenvalues --    0.28578   0.28671   0.31145   0.31581   0.32480

 Mulliken charges:
               1
     1  C   -0.153317
     2  C   -0.223363
     3  C   -0.172664
     4  C    0.157078
     5  C   -0.180132
     6  C   -0.220205
     7  H    0.232816
     8  H    0.229926
     9  H    0.274240
    10  H    0.272302
    11  H    0.224285
    12  N    0.488771
    13  O   -0.467270
    14  O   -0.460515
    15  C   -0.156331
    16  C   -0.219884
    17  C   -0.174857
    18  C    0.156097
    19  C   -0.172154
    20  C   -0.230679
    21  H    0.232617
    22  H    0.223784
    23  H    0.272861
    24  H    0.274273
    25  H    0.232896
    26  N    0.487560
    27  O   -0.463315
    28  O   -0.464821
 Sum of Mulliken charges =  -0.00000

 Dipole moment (field-independent basis, Debye):
    X=             -0.1383    Y=             -0.0826    Z=             -0.2075  Tot=              0.2627
 Quadrupole moment (field-independent basis, Debye-Ang):
   XX=           -111.9121   YY=           -103.4868   ZZ=            -99.4111
   XY=             22.8761   XZ=              5.5680   YZ=             -1.7198

 Normal termination of Gaussian 16 at Thu May  6 05:15:14 2021.
