 Gaussian 16, Revision A.03,
 Gaussian 16:  EM64L-G16RevA.03 25-Dec-2016

 -------------
 #p 6-31g* mp2
 -------------

 ------------------------------------------------------
 Input file generated by CHIRIPA (05-May-2021 14:51:11)
 ------------------------------------------------------
 Symbolic Z-matrix:
 Charge =  0 Multiplicity = 1

                         Standard orientation:
 ---------------------------------------------------------------------
 Center     Atomic      Atomic             Coordinates (Angstroms)
 Number     Number       Type             X           Y           Z
 ---------------------------------------------------------------------
      1          6           0        2.598085    1.545839    0.150917
      2          6           0        1.484227    2.111611   -0.730677
      3          6           0        1.262093    3.608841   -0.514457
      4          1           0        2.353261    1.733131    1.205397
      5          1           0        3.530697    2.089289   -0.054729
      6          1           0        0.554311    1.566328   -0.524426
      7          1           0        1.731638    1.922781   -1.783173
      8          1           0        2.174792    4.170125   -0.739270
      9          1           0        0.990776    3.811647    0.526628
     10          1           0        0.461531    3.992491   -1.154593
     11          6           0        2.832035    0.050152   -0.053815
     12          6           0        3.945893   -0.515621    0.827779
     13          6           0        4.168027   -2.012851    0.611559
     14          1           0        1.899422   -0.493299    0.151831
     15          1           0        3.076859   -0.137140   -1.108295
     16          1           0        3.698482   -0.326791    1.880275
     17          1           0        4.875809    0.029662    0.621528
     18          1           0        4.439344   -2.215657   -0.429526
     19          1           0        3.255328   -2.574135    0.836372
     20          1           0        4.968589   -2.396501    1.251695
     21          6           0       -2.489202   -1.523988   -0.121724
     22          6           0       -1.054871   -1.664238   -0.632615
     23          6           0       -0.617549   -3.122532   -0.773756
     24          1           0       -2.576942   -2.030217    0.849347
     25          1           0       -3.168649   -2.046619   -0.809187
     26          1           0       -0.378484   -1.140324    0.054866
     27          1           0       -0.970489   -1.157452   -1.602493
     28          1           0       -1.268645   -3.653780   -1.475503
     29          1           0       -0.673276   -3.636554    0.191273
     30          1           0        0.410835   -3.199585   -1.140295
     31          6           0       -2.940918   -0.072002    0.024622
     32          6           0       -4.375249    0.068248    0.535513
     33          6           0       -4.812571    1.526543    0.676654
     34          1           0       -2.261471    0.450628    0.712085
     35          1           0       -2.853178    0.434227   -0.946449
     36          1           0       -4.459631   -0.438539    1.505392
     37          1           0       -5.051637   -0.455667   -0.151967
     38          1           0       -4.756843    2.040564   -0.288374
     39          1           0       -4.161475    2.057789    1.378401
     40          1           0       -5.840955    1.603594    1.043193
 ---------------------------------------------------------------------

 SCF Done:  E(RHF) =  -470.733253328     A.U. after   11 cycles
 E2 =    -0.1583648896D+01 EUMP2 =    -0.47231690222380D+03

 The electronic state is 1-A.
 Alpha  occ. eigenvalues --  -11.21636 -11.21623 -11.21584 -11.21539 -11.21448
 Alpha  occ. eigenvalues --  -11.21387 -11.21366 -11.21302 -11.21095 -11.21094
 Alpha  occ. eigenvalues --  -11.21063 -11.21034  -1.08479  -1.08391  -1.03563
 Alpha  occ. eigenvalues --   -1.03498  -0.96012  -0.95949  -0.87026  -0.86966
 Alpha  occ. eigenvalues --   -0.79641  -0.79559  -0.78397  -0.78098  -0.65196
 Alpha  occ. eigenvalues --   -0.64955  -0.60985  -0.60879  -0.59384  -0.59314
 Alpha  occ. eigenvalues --   -0.57659  -0.57524  -0.55318  -0.55225  -0.52709
 Alpha  occ. eigenvalues --   -0.52639  -0.52431  -0.52377  -0.49992  -0.49863
 Alpha  occ. eigenvalues --   -0.47985  -0.47880  -0.46780  -0.46593  -0.46147
 Alpha  occ. eigenvalues --   -0.45781  -0.45716  -0.45146  -0.43814  -0.43748
 Alpha virt. eigenvalues --    0.20702   0.22973   0.23481   0.24347   0.25524
 Alpha virt. eigenvalues --    0.26618   0.27111   0.27288   0.27844   0.29575
 Alpha virt. eigenvalues --    0.31353   0.31392   0.31740   0.31861   0.32481

 Mulliken charges:
               1
     1  C   -0.297735
     2  C   -0.303417
     3  C   -0.475446
     4  H    0.148770
     5  H    0.149414
     6  H    0.156227
     7  H    0.151539
     8  H    0.154949
     9  H    0.154766
    10  H    0.160236
    11  C   -0.306709
    12  C   -0.298997
    13  C   -0.476306
    14  H    0.158321
    15  H    0.149319
    16  H    0.151452
    17  H    0.151911
    18  H    0.155035
    19  H    0.155626
    20  H    0.160262
    21  C   -0.297651
    22  C   -0.305806
    23  C   -0.477255
    24  H    0.149417
    25  H    0.149771
    26  H    0.156650
    27  H    0.153268
    28  H    0.155589
    29  H    0.154696
    30  H    0.162081
    31  C   -0.299350
    32  C   -0.299695
    33  C   -0.475732
    34  H    0.149506
    35  H    0.150218
    36  H    0.151971
    37  H    0.152180
    38  H    0.155333
    39  H    0.155214
    40  H    0.160375
 Sum of Mulliken charges =  -0.00000

 Dipole moment (field-independent basis, Debye):
    X=             -0.0337    Y=             -0.0216    Z=             -0.0171  Tot=              0.0435
 Quadrupole moment (field-independent basis, Debye-Ang):
   XX=            -84.5422   YY=            -86.9630   ZZ=            -83.3075
   XY=              0.8773   XZ=             -0.0863   YZ=             -0.3234

 Normal termination of Gaussian 16 at Thu May  6 00:40:51 2021.
