 Gaussian 16, Revision A.03,
 Gaussian 16:  EM64L-G16RevA.03 25-Dec-2016

 -------------
 #p 6-31g* mp2
 -------------

 ------------------------------------------------------
 Input file generated by CHIRIPA (05-May-2021 14:53:18)
 ------------------------------------------------------
 Symbolic Z-matrix:
 Charge =  0 Multiplicity = 1

                         Standard orientation:
 ---------------------------------------------------------------------
 Center     Atomic      Atomic             Coordinates (Angstroms)
 Number     Number       Type             X           Y           Z
 ---------------------------------------------------------------------
      1          6           0        3.708869   -0.907105    0.331885
      2          6           0        2.521478   -0.510928    1.210026
      3          6           0        1.522190   -1.651980    1.402946
      4          1           0        3.337738   -1.240786   -0.646820
      5          1           0        4.218393   -1.769522    0.783567
      6          1           0        2.015170    0.351352    0.757544
      7          1           0        2.895491   -0.177970    2.186688
      8          1           0        2.006578   -2.512457    1.875756
      9          1           0        1.121255   -1.980127    0.438492
     10          1           0        0.681439   -1.346979    2.033796
     11          6           0        4.716598    0.223095    0.129746
     12          6           0        5.903989   -0.173082   -0.748395
     13          6           0        6.903277    0.967970   -0.941315
     14          1           0        4.207074    1.085512   -0.321936
     15          1           0        5.087729    0.556776    1.108451
     16          1           0        5.529976   -0.506040   -1.725057
     17          1           0        6.410297   -1.035362   -0.295913
     18          1           0        7.304212    1.296117    0.023139
     19          1           0        6.418889    1.828447   -1.414126
     20          1           0        7.744028    0.662969   -1.572165
     21          6           0       -0.945999    1.179811    0.001583
     22          6           0       -1.209759    0.088689   -0.832924
     23          6           0       -2.505366   -0.425285   -0.941485
     24          6           0       -3.517923    0.178963   -0.197911
     25          6           0       -3.286811    1.267176    0.642130
     26          6           0       -1.983537    1.764543    0.735153
     27          1           0        0.063437    1.572628    0.079881
     28          1           0       -0.405952   -0.367425   -1.403798
     29          1           0       -2.737512   -1.269024   -1.579943
     30          1           0       -4.108716    1.700739    1.198829
     31          1           0       -1.781627    2.612024    1.384038
     32          7           0       -4.893582   -0.356367   -0.304615
     33          8           0       -5.768230    0.193802    0.360925
     34          8           0       -5.071127   -1.315989   -1.051769
 ---------------------------------------------------------------------

 SCF Done:  E(RHF) =  -669.535096360     A.U. after   15 cycles
 E2 =    -0.2092184409D+01 EUMP2 =    -0.67162728076972D+03

 The electronic state is 1-A.
 Alpha  occ. eigenvalues --  -20.60756 -20.60751 -15.85810 -11.31181 -11.27750
 Alpha  occ. eigenvalues --  -11.27746 -11.27478 -11.26773 -11.26760 -11.22603
 Alpha  occ. eigenvalues --  -11.22248 -11.22230 -11.22137 -11.21831 -11.21620
 Alpha  occ. eigenvalues --   -1.59831  -1.39385  -1.19356  -1.09241  -1.08747
 Alpha  occ. eigenvalues --   -1.04762  -1.04289  -0.96708  -0.95582  -0.87720
 Alpha  occ. eigenvalues --   -0.86156  -0.82421  -0.80369  -0.79049  -0.77462
 Alpha  occ. eigenvalues --   -0.72028  -0.71154  -0.70492  -0.65901  -0.65006
 Alpha  occ. eigenvalues --   -0.64763  -0.62139  -0.61662  -0.60082  -0.58328
 Alpha  occ. eigenvalues --   -0.56012  -0.55277  -0.53413  -0.53145  -0.53013
 Alpha  occ. eigenvalues --   -0.52847  -0.50648  -0.48790  -0.48783  -0.48664
 Alpha  occ. eigenvalues --   -0.47416  -0.46576  -0.46512  -0.44789  -0.44537
 Alpha  occ. eigenvalues --   -0.37311  -0.36353
 Alpha virt. eigenvalues --    0.05054   0.11223   0.16469   0.19276   0.22666
 Alpha virt. eigenvalues --    0.23862   0.24991   0.25649   0.27157   0.27918
 Alpha virt. eigenvalues --    0.28792   0.29870   0.31105   0.31580   0.31952

 Mulliken charges:
               1
     1  C   -0.297846
     2  C   -0.303098
     3  C   -0.474932
     4  H    0.146943
     5  H    0.153857
     6  H    0.139940
     7  H    0.155914
     8  H    0.158880
     9  H    0.151079
    10  H    0.165251
    11  C   -0.298003
    12  C   -0.300086
    13  C   -0.476075
    14  H    0.145423
    15  H    0.151556
    16  H    0.152033
    17  H    0.153961
    18  H    0.156152
    19  H    0.154783
    20  H    0.162385
    21  C   -0.171373
    22  C   -0.217173
    23  C   -0.171563
    24  C    0.158486
    25  C   -0.170870
    26  C   -0.219917
    27  H    0.229109
    28  H    0.223159
    29  H    0.275584
    30  H    0.275567
    31  H    0.223664
    32  N    0.488074
    33  O   -0.460458
    34  O   -0.460407
 Sum of Mulliken charges =  -0.00000

 Dipole moment (field-independent basis, Debye):
    X=              4.9789    Y=              1.8203    Z=              0.4448  Tot=              5.3199
 Quadrupole moment (field-independent basis, Debye-Ang):
   XX=           -128.6892   YY=            -92.4497   ZZ=            -92.5219
   XY=             -8.0031   XZ=             -2.7591   YZ=              2.1250

 Normal termination of Gaussian 16 at Thu May  6 02:50:37 2021.
