 Gaussian 16, Revision A.03,
 Gaussian 16:  EM64L-G16RevA.03 25-Dec-2016

 -------------
 #p 6-31g* mp2
 -------------

 ------------------------------------------------------
 Input file generated by CHIRIPA (05-May-2021 14:57:23)
 ------------------------------------------------------
 Symbolic Z-matrix:
 Charge =  0 Multiplicity = 1

                         Standard orientation:
 ---------------------------------------------------------------------
 Center     Atomic      Atomic             Coordinates (Angstroms)
 Number     Number       Type             X           Y           Z
 ---------------------------------------------------------------------
      1          6           0        1.098939   -1.236298   -0.136547
      2          6           0        1.194363    0.145463   -0.331878
      3          6           0        2.438849    0.781953   -0.305781
      4          6           0        3.572499    0.002526   -0.080787
      5          6           0        3.510043   -1.375942    0.117245
      6          6           0        2.255046   -1.991259    0.086997
      7          1           0        0.128110   -1.722514   -0.158431
      8          1           0        0.298199    0.734295   -0.505695
      9          1           0        2.541503    1.850090   -0.453984
     10          1           0        4.421129   -1.936371    0.288300
     11          1           0        2.183956   -3.064517    0.239010
     12          7           0        4.895545    0.665142   -0.050962
     13          8           0        5.879310   -0.043947    0.149128
     14          8           0        4.923731    1.881043   -0.228240
     15          6           0       -3.464325    2.624678    0.202084
     16          6           0       -3.944000    1.954572   -0.928133
     17          6           0       -3.888172    0.559669   -1.003498
     18          6           0       -3.343822   -0.136750    0.074451
     19          6           0       -2.857742    0.502137    1.214118
     20          6           0       -2.923680    1.897604    1.267723
     21          1           0       -3.511621    3.708490    0.252179
     22          1           0       -4.364399    2.516639   -1.757224
     23          1           0       -4.252313    0.015522   -1.866472
     24          1           0       -2.444215   -0.085431    2.024782
     25          1           0       -2.550404    2.415357    2.146723
     26          7           0       -3.279368   -1.613768    0.006183
     27          8           0       -2.795112   -2.204290    0.969208
     28          8           0       -3.714326   -2.152967   -1.009058
 ---------------------------------------------------------------------

 SCF Done:  E(RHF) =  -868.339542008     A.U. after   16 cycles
 E2 =    -0.2599642807D+01 EUMP2 =    -0.87093918481554D+03

 The electronic state is 1-A.
 Alpha  occ. eigenvalues --  -20.62002 -20.61981 -20.60632 -20.60620 -15.87015
 Alpha  occ. eigenvalues --  -15.85680 -11.32257 -11.30952 -11.28796 -11.28762
 Alpha  occ. eigenvalues --  -11.28454 -11.27739 -11.27716 -11.27556 -11.27491
 Alpha  occ. eigenvalues --  -11.27114 -11.26498 -11.26415  -1.61070  -1.59707
 Alpha  occ. eigenvalues --   -1.40619  -1.39263  -1.20408  -1.19108  -1.09814
 Alpha  occ. eigenvalues --   -1.08494  -1.05761  -1.04504  -0.96666  -0.95349
 Alpha  occ. eigenvalues --   -0.87156  -0.85891  -0.83483  -0.82192  -0.78562
 Alpha  occ. eigenvalues --   -0.77276  -0.73215  -0.72427  -0.71898  -0.71456
 Alpha  occ. eigenvalues --   -0.71031  -0.70128  -0.66031  -0.65721  -0.64748
 Alpha  occ. eigenvalues --   -0.64492  -0.63086  -0.61862  -0.56229  -0.54912
 Alpha  occ. eigenvalues --   -0.54140  -0.53816  -0.52834  -0.52567  -0.49998
 Alpha  occ. eigenvalues --   -0.49970  -0.48661  -0.48646  -0.46026  -0.44690
 Alpha  occ. eigenvalues --   -0.38379  -0.37390  -0.37028  -0.36122
 Alpha virt. eigenvalues --    0.03921   0.05267   0.10255   0.11548   0.15434
 Alpha virt. eigenvalues --    0.16799   0.20558   0.21604   0.26517   0.27309
 Alpha virt. eigenvalues --    0.27427   0.28318   0.30242   0.31123   0.31876

 Mulliken charges:
               1
     1  C   -0.174914
     2  C   -0.223289
     3  C   -0.172142
     4  C    0.157847
     5  C   -0.171420
     6  C   -0.219752
     7  H    0.236824
     8  H    0.221768
     9  H    0.272168
    10  H    0.275119
    11  H    0.227436
    12  N    0.488198
    13  O   -0.460491
    14  O   -0.462799
    15  C   -0.171309
    16  C   -0.219071
    17  C   -0.171419
    18  C    0.152569
    19  C   -0.175417
    20  C   -0.220563
    21  H    0.230214
    22  H    0.227613
    23  H    0.278140
    24  H    0.278052
    25  H    0.228381
    26  N    0.485475
    27  O   -0.462196
    28  O   -0.455019
 Sum of Mulliken charges =  -0.00000

 Dipole moment (field-independent basis, Debye):
    X=             -5.2366    Y=              2.8600    Z=              0.1401  Tot=              5.9683
 Quadrupole moment (field-independent basis, Debye-Ang):
   XX=           -135.5665   YY=           -102.5014   ZZ=           -101.3032
   XY=            -28.8883   XZ=              1.9830   YZ=             -0.3559

 Normal termination of Gaussian 16 at Fri May  7 08:01:01 2021.
