 Gaussian 16, Revision A.03,
 Gaussian 16:  EM64L-G16RevA.03 25-Dec-2016

 -------------
 #p 6-31g* mp2
 -------------

 ------------------------------------------------------
 Input file generated by CHIRIPA (05-May-2021 14:55:23)
 ------------------------------------------------------
 Symbolic Z-matrix:
 Charge =  0 Multiplicity = 1

                         Standard orientation:
 ---------------------------------------------------------------------
 Center     Atomic      Atomic             Coordinates (Angstroms)
 Number     Number       Type             X           Y           Z
 ---------------------------------------------------------------------
      1          6           0        4.723879   -1.446695   -0.824338
      2          6           0        4.616298   -0.072253   -1.060680
      3          6           0        3.576726    0.667270   -0.488890
      4          6           0        2.658160   -0.002781    0.317682
      5          6           0        2.738485   -1.371046    0.572023
      6          6           0        3.786282   -2.090569   -0.010176
      7          1           0        5.534638   -2.013406   -1.272561
      8          1           0        5.343006    0.430428   -1.692543
      9          1           0        3.469740    1.732310   -0.655209
     10          1           0        1.998878   -1.844326    1.206376
     11          1           0        3.867347   -3.157875    0.175115
     12          7           0        1.553258    0.769533    0.928520
     13          8           0        0.756824    0.155732    1.635328
     14          8           0        1.504592    1.974049    0.688921
     15          6           0       -4.130462   -0.269356    0.107612
     16          6           0       -4.477697   -1.573411   -0.611313
     17          6           0       -5.468892   -2.434539    0.172132
     18          1           0       -3.713334   -0.503205    1.096685
     19          1           0       -5.053079    0.300689    0.284305
     20          1           0       -3.554539   -2.140189   -0.787830
     21          1           0       -4.893868   -1.336436   -1.598866
     22          1           0       -6.405291   -1.891523    0.336116
     23          1           0       -5.058353   -2.699843    1.151760
     24          1           0       -5.703153   -3.361820   -0.359970
     25          6           0       -3.140607    0.602330   -0.663154
     26          6           0       -2.793372    1.906385    0.055771
     27          6           0       -1.802176    2.767513   -0.727672
     28          1           0       -2.217990    0.032284   -0.839846
     29          1           0       -3.557734    0.836179   -1.652226
     30          1           0       -2.377201    1.669409    1.043325
     31          1           0       -3.716529    2.473163    0.232289
     32          1           0       -2.212716    3.032816   -1.707301
     33          1           0       -0.865777    2.224496   -0.891657
     34          1           0       -1.567916    3.694794   -0.195571
 ---------------------------------------------------------------------

 SCF Done:  E(RHF) =  -669.536245869     A.U. after   15 cycles
 E2 =    -0.2091471467D+01 EUMP2 =    -0.67162771733571D+03

 The electronic state is 1-A.
 Alpha  occ. eigenvalues --  -20.61023 -20.61011 -15.86033 -11.31336 -11.27896
 Alpha  occ. eigenvalues --  -11.27890 -11.27628 -11.26896 -11.26886 -11.20957
 Alpha  occ. eigenvalues --  -11.20547 -11.20493 -11.20324 -11.20165 -11.19522
 Alpha  occ. eigenvalues --   -1.60072  -1.39628  -1.19501  -1.08910  -1.07441
 Alpha  occ. eigenvalues --   -1.04893  -1.02494  -0.95755  -0.94953  -0.86295
 Alpha  occ. eigenvalues --   -0.85980  -0.82587  -0.78606  -0.77645  -0.77216
 Alpha  occ. eigenvalues --   -0.72250  -0.71394  -0.70609  -0.65155  -0.64896
 Alpha  occ. eigenvalues --   -0.64062  -0.62240  -0.59873  -0.58385  -0.56554
 Alpha  occ. eigenvalues --   -0.55399  -0.54244  -0.53223  -0.52984  -0.51653
 Alpha  occ. eigenvalues --   -0.51399  -0.49135  -0.49015  -0.48794  -0.46917
 Alpha  occ. eigenvalues --   -0.45699  -0.44994  -0.44753  -0.44572  -0.42758
 Alpha  occ. eigenvalues --   -0.37478  -0.36493
 Alpha virt. eigenvalues --    0.04852   0.11162   0.16339   0.21295   0.23787
 Alpha virt. eigenvalues --    0.25337   0.27222   0.27531   0.28220   0.28443
 Alpha virt. eigenvalues --    0.29037   0.30859   0.32301   0.32484   0.32652

 Mulliken charges:
               1
     1  C   -0.170465
     2  C   -0.218533
     3  C   -0.170775
     4  C    0.158227
     5  C   -0.170866
     6  C   -0.218543
     7  H    0.226201
     8  H    0.224081
     9  H    0.276199
    10  H    0.275696
    11  H    0.223980
    12  N    0.487244
    13  O   -0.460393
    14  O   -0.457096
    15  C   -0.298524
    16  C   -0.298509
    17  C   -0.475199
    18  H    0.153927
    19  H    0.147195
    20  H    0.149616
    21  H    0.149671
    22  H    0.154509
    23  H    0.155156
    24  H    0.157035
    25  C   -0.296083
    26  C   -0.302575
    27  C   -0.471953
    28  H    0.147926
    29  H    0.144210
    30  H    0.167061
    31  H    0.144795
    32  H    0.143232
    33  H    0.161668
    34  H    0.161885
 Sum of Mulliken charges =  -0.00000

 Dipole moment (field-independent basis, Debye):
    X=              4.2249    Y=             -2.6934    Z=             -1.9913  Tot=              5.3916
 Quadrupole moment (field-independent basis, Debye-Ang):
   XX=            -74.8285   YY=            -92.0236   ZZ=            -96.0268
   XY=             -6.6687   XZ=             -5.3705   YZ=             -2.5919

 Normal termination of Gaussian 16 at Thu May  6 10:59:26 2021.
