 Gaussian 16, Revision A.03,
 Gaussian 16:  EM64L-G16RevA.03 25-Dec-2016

 -------------
 #p 6-31g* mp2
 -------------

 ------------------------------------------------------
 Input file generated by CHIRIPA (05-May-2021 14:57:23)
 ------------------------------------------------------
 Symbolic Z-matrix:
 Charge =  0 Multiplicity = 1

                         Standard orientation:
 ---------------------------------------------------------------------
 Center     Atomic      Atomic             Coordinates (Angstroms)
 Number     Number       Type             X           Y           Z
 ---------------------------------------------------------------------
      1          6           0        4.808187   -1.010435    1.378045
      2          6           0        3.637153   -1.747758    1.174194
      3          6           0        2.661354   -1.297662    0.279892
      4          6           0        2.890281   -0.100603   -0.396816
      5          6           0        4.046624    0.656500   -0.215279
      6          6           0        5.008831    0.187230    0.683881
      7          1           0        5.560932   -1.367528    2.074647
      8          1           0        3.478646   -2.678231    1.711912
      9          1           0        1.745613   -1.848628    0.103049
     10          1           0        4.176349    1.580343   -0.765828
     11          1           0        5.917311    0.761924    0.840200
     12          7           0        1.864441    0.386043   -1.346146
     13          8           0        2.090004    1.443776   -1.930064
     14          8           0        0.854248   -0.299471   -1.488337
     15          6           0       -1.837212    2.190451    1.153391
     16          6           0       -2.683462    1.448773    1.984233
     17          6           0       -3.365657    0.333436    1.489076
     18          6           0       -3.177504   -0.013476    0.152086
     19          6           0       -2.341245    0.705334   -0.700715
     20          6           0       -1.669101    1.817023   -0.184073
     21          1           0       -1.311171    3.055454    1.546386
     22          1           0       -2.815929    1.736457    3.023335
     23          1           0       -4.026865   -0.258519    2.110213
     24          1           0       -2.229330    0.394053   -1.732218
     25          1           0       -1.012530    2.391157   -0.831629
     26          7           0       -3.894393   -1.192302   -0.383486
     27          8           0       -3.711632   -1.477244   -1.565029
     28          8           0       -4.625477   -1.809004    0.388415
 ---------------------------------------------------------------------

 SCF Done:  E(RHF) =  -868.339763898     A.U. after   16 cycles
 E2 =    -0.2599948078D+01 EUMP2 =    -0.87093971197617D+03

 The electronic state is 1-A.
 Alpha  occ. eigenvalues --  -20.61557 -20.61498 -20.59958 -20.59927 -15.86525
 Alpha  occ. eigenvalues --  -15.84990 -11.31666 -11.30179 -11.28229 -11.28173
 Alpha  occ. eigenvalues --  -11.27914 -11.27186 -11.27144 -11.26858 -11.26590
 Alpha  occ. eigenvalues --  -11.26549 -11.25873 -11.25573  -1.60589  -1.59025
 Alpha  occ. eigenvalues --   -1.40144  -1.38580  -1.19820  -1.18368  -1.09262
 Alpha  occ. eigenvalues --   -1.07820  -1.05183  -1.03713  -0.96134  -0.94666
 Alpha  occ. eigenvalues --   -0.86592  -0.85146  -0.82971  -0.81480  -0.78042
 Alpha  occ. eigenvalues --   -0.76532  -0.72772  -0.71892  -0.71215  -0.70922
 Alpha  occ. eigenvalues --   -0.70347  -0.69505  -0.65474  -0.65183  -0.64016
 Alpha  occ. eigenvalues --   -0.63716  -0.62527  -0.61039  -0.55698  -0.54307
 Alpha  occ. eigenvalues --   -0.53534  -0.53268  -0.52115  -0.51792  -0.49537
 Alpha  occ. eigenvalues --   -0.49516  -0.47979  -0.47954  -0.45595  -0.44020
 Alpha  occ. eigenvalues --   -0.37797  -0.36778  -0.36423  -0.35246
 Alpha virt. eigenvalues --    0.04414   0.06007   0.10880   0.12315   0.15981
 Alpha virt. eigenvalues --    0.17484   0.21055   0.22441   0.26991   0.27903
 Alpha virt. eigenvalues --    0.28487   0.29284   0.30650   0.31906   0.32182

 Mulliken charges:
               1
     1  C   -0.170109
     2  C   -0.218956
     3  C   -0.170046
     4  C    0.157484
     5  C   -0.171589
     6  C   -0.218884
     7  H    0.227271
     8  H    0.226178
     9  H    0.279186
    10  H    0.274759
    11  H    0.224315
    12  N    0.488648
    13  O   -0.465719
    14  O   -0.459327
    15  C   -0.174359
    16  C   -0.220421
    17  C   -0.173930
    18  C    0.152737
    19  C   -0.156400
    20  C   -0.223883
    21  H    0.221101
    22  H    0.217756
    23  H    0.271024
    24  H    0.284778
    25  H    0.234944
    26  N    0.487903
    27  O   -0.458194
    28  O   -0.466264
 Sum of Mulliken charges =  -0.00000

 Dipole moment (field-independent basis, Debye):
    X=              6.4927    Y=              2.3349    Z=              4.9817  Tot=              8.5103
 Quadrupole moment (field-independent basis, Debye-Ang):
   XX=            -99.2111   YY=           -102.3785   ZZ=           -103.7833
   XY=            -16.0208   XZ=              0.9976   YZ=             -1.1040

 Normal termination of Gaussian 16 at Thu May  6 21:11:14 2021.
