 Gaussian 16, Revision A.03,
 Gaussian 16:  EM64L-G16RevA.03 25-Dec-2016

 -------------
 #p 6-31g* mp2
 -------------

 ------------------------------------------------------
 Input file generated by CHIRIPA (05-May-2021 14:53:12)
 ------------------------------------------------------
 Symbolic Z-matrix:
 Charge =  0 Multiplicity = 1

                         Standard orientation:
 ---------------------------------------------------------------------
 Center     Atomic      Atomic             Coordinates (Angstroms)
 Number     Number       Type             X           Y           Z
 ---------------------------------------------------------------------
      1          6           0       -5.593358    0.262738   -0.037074
      2          6           0       -6.877010   -0.274971   -0.670394
      3          6           0       -8.007277    0.754679   -0.680945
      4          1           0       -5.806697    0.585683    0.991098
      5          1           0       -5.269608    1.158364   -0.585193
      6          1           0       -7.197483   -1.170117   -0.122100
      7          1           0       -6.660547   -0.596851   -1.697114
      8          1           0       -7.711843    1.645261   -1.245024
      9          1           0       -8.251829    1.068738    0.338939
     10          1           0       -8.915357    0.349336   -1.138052
     11          6           0       -4.454239   -0.755012   -0.019174
     12          6           0       -3.170588   -0.217303    0.614146
     13          6           0       -2.040321   -1.246953    0.624697
     14          1           0       -4.777989   -1.650638    0.528945
     15          1           0       -4.240900   -1.077958   -1.047346
     16          1           0       -3.387050    0.104577    1.640866
     17          1           0       -2.850115    0.677843    0.065852
     18          1           0       -1.795768   -1.561012   -0.395187
     19          1           0       -2.335754   -2.137535    1.188776
     20          1           0       -1.132241   -0.841610    1.081804
     21          6           0        1.792566    1.224525    0.890199
     22          6           0        1.996625   -0.155110    0.997380
     23          6           0        3.174247   -0.737887    0.519756
     24          6           0        4.130983    0.092502   -0.061965
     25          6           0        3.956963    1.470288   -0.183262
     26          6           0        2.771660    2.031398    0.301259
     27          1           0        0.874778    1.668825    1.263908
     28          1           0        1.237982   -0.784188    1.454291
     29          1           0        3.358066   -1.803111    0.589929
     30          1           0        4.731498    2.071576   -0.643660
     31          1           0        2.615895    3.103139    0.216679
     32          7           0        5.381745   -0.512989   -0.571254
     33          8           0        6.209195    0.240374   -1.079593
     34          8           0        5.510959   -1.729470   -0.452452
 ---------------------------------------------------------------------

 SCF Done:  E(RHF) =  -669.535378033     A.U. after   15 cycles
 E2 =    -0.2090898758D+01 EUMP2 =    -0.67162627679150D+03

 The electronic state is 1-A.
 Alpha  occ. eigenvalues --  -20.60738 -20.60732 -15.85791 -11.31155 -11.27725
 Alpha  occ. eigenvalues --  -11.27714 -11.27466 -11.26743 -11.26710 -11.22467
 Alpha  occ. eigenvalues --  -11.22106 -11.22049 -11.22035 -11.21914 -11.21451
 Alpha  occ. eigenvalues --   -1.59813  -1.39367  -1.19327  -1.09064  -1.08724
 Alpha  occ. eigenvalues --   -1.04730  -1.04194  -0.96651  -0.95558  -0.87676
 Alpha  occ. eigenvalues --   -0.86129  -0.82389  -0.80267  -0.78846  -0.77439
 Alpha  occ. eigenvalues --   -0.72010  -0.71136  -0.70437  -0.65685  -0.64981
 Alpha  occ. eigenvalues --   -0.64774  -0.62118  -0.61576  -0.60037  -0.58250
 Alpha  occ. eigenvalues --   -0.55912  -0.55235  -0.53482  -0.53107  -0.53037
 Alpha  occ. eigenvalues --   -0.52693  -0.50570  -0.48773  -0.48764  -0.48572
 Alpha  occ. eigenvalues --   -0.47281  -0.46395  -0.46296  -0.44772  -0.44445
 Alpha  occ. eigenvalues --   -0.37305  -0.36327
 Alpha virt. eigenvalues --    0.05097   0.11266   0.16589   0.19925   0.22445
 Alpha virt. eigenvalues --    0.23865   0.25840   0.26045   0.26810   0.27775
 Alpha virt. eigenvalues --    0.28572   0.30164   0.30803   0.31531   0.31760

 Mulliken charges:
               1
     1  C   -0.298686
     2  C   -0.300167
     3  C   -0.476021
     4  H    0.149856
     5  H    0.149598
     6  H    0.152786
     7  H    0.153007
     8  H    0.155436
     9  H    0.155410
    10  H    0.161763
    11  C   -0.299202
    12  C   -0.299960
    13  C   -0.478036
    14  H    0.151243
    15  H    0.151808
    16  H    0.151960
    17  H    0.150817
    18  H    0.160880
    19  H    0.158906
    20  H    0.148632
    21  C   -0.171945
    22  C   -0.220743
    23  C   -0.171658
    24  C    0.158678
    25  C   -0.171192
    26  C   -0.218672
    27  H    0.225679
    28  H    0.228136
    29  H    0.275904
    30  H    0.275476
    31  H    0.223262
    32  N    0.487990
    33  O   -0.460554
    34  O   -0.460391
 Sum of Mulliken charges =  -0.00000

 Dipole moment (field-independent basis, Debye):
    X=             -4.6045    Y=              2.1011    Z=              1.7438  Tot=              5.3532
 Quadrupole moment (field-independent basis, Debye-Ang):
   XX=           -131.3028   YY=            -90.5991   ZZ=            -94.5711
   XY=             10.9217   XZ=              6.9230   YZ=             -1.7087

 Normal termination of Gaussian 16 at Thu May  6 04:07:45 2021.
