 Gaussian 16, Revision A.03,
 Gaussian 16:  EM64L-G16RevA.03 25-Dec-2016

 -------------
 #p 6-31g* mp2
 -------------

 ------------------------------------------------------
 Input file generated by CHIRIPA (05-May-2021 14:57:25)
 ------------------------------------------------------
 Symbolic Z-matrix:
 Charge =  0 Multiplicity = 1

                         Standard orientation:
 ---------------------------------------------------------------------
 Center     Atomic      Atomic             Coordinates (Angstroms)
 Number     Number       Type             X           Y           Z
 ---------------------------------------------------------------------
      1          6           0        5.011367    1.539098    0.708901
      2          6           0        5.241646    0.842069   -0.481747
      3          6           0        4.362638   -0.162277   -0.897899
      4          6           0        3.258371   -0.444933   -0.095409
      5          6           0        3.001776    0.231801    1.096010
      6          6           0        3.894137    1.232281    1.492598
      7          1           0        5.699388    2.317797    1.024579
      8          1           0        6.108482    1.078217   -1.092381
      9          1           0        4.516945   -0.717541   -1.815117
     10          1           0        2.129039   -0.026051    1.683598
     11          1           0        3.712787    1.771963    2.417747
     12          7           0        2.320737   -1.506143   -0.525614
     13          8           0        1.355164   -1.736211    0.199213
     14          8           0        2.569147   -2.087756   -1.579491
     15          6           0       -2.915426    2.653792   -0.635896
     16          6           0       -4.220606    2.159468   -0.729011
     17          6           0       -4.507817    0.840318   -0.365830
     18          6           0       -3.460999    0.039580    0.088352
     19          6           0       -2.150366    0.502960    0.192317
     20          6           0       -1.886287    1.825421   -0.176340
     21          1           0       -2.701298    3.679826   -0.920152
     22          1           0       -5.021835    2.800518   -1.085568
     23          1           0       -5.509200    0.431929   -0.428038
     24          1           0       -1.372576   -0.160034    0.551345
     25          1           0       -0.871718    2.206624   -0.102991
     26          7           0       -3.752813   -1.358697    0.475733
     27          8           0       -2.812907   -2.043917    0.872833
     28          8           0       -4.915916   -1.742971    0.374928
 ---------------------------------------------------------------------

 SCF Done:  E(RHF) =  -868.337355436     A.U. after   16 cycles
 E2 =    -0.2599641225D+01 EUMP2 =    -0.87093699666092D+03

 The electronic state is 1-A.
 Alpha  occ. eigenvalues --  -20.61109 -20.61083 -20.60040 -20.59982 -15.86137
 Alpha  occ. eigenvalues --  -15.85071 -11.31591 -11.30586 -11.28186 -11.28134
 Alpha  occ. eigenvalues --  -11.27896 -11.27239 -11.27200 -11.27164 -11.27103
 Alpha  occ. eigenvalues --  -11.27049 -11.26291 -11.26275  -1.60159  -1.59093
 Alpha  occ. eigenvalues --   -1.39712  -1.38636  -1.19765  -1.18803  -1.09138
 Alpha  occ. eigenvalues --   -1.08185  -1.05177  -1.04232  -0.95956  -0.94980
 Alpha  occ. eigenvalues --   -0.86568  -0.85625  -0.82783  -0.81810  -0.77830
 Alpha  occ. eigenvalues --   -0.76809  -0.72334  -0.71492  -0.71282  -0.70859
 Alpha  occ. eigenvalues --   -0.70423  -0.69915  -0.65409  -0.65168  -0.64459
 Alpha  occ. eigenvalues --   -0.64254  -0.62521  -0.61554  -0.55658  -0.54764
 Alpha  occ. eigenvalues --   -0.53508  -0.53261  -0.52562  -0.52328  -0.49104
 Alpha  occ. eigenvalues --   -0.49094  -0.48076  -0.48020  -0.45090  -0.44008
 Alpha  occ. eigenvalues --   -0.37746  -0.36825  -0.36792  -0.35844
 Alpha virt. eigenvalues --    0.04665   0.05722   0.10849   0.11806   0.16126
 Alpha virt. eigenvalues --    0.17155   0.20807   0.21910   0.26396   0.27318
 Alpha virt. eigenvalues --    0.28131   0.28955   0.30612   0.31369   0.31993

 Mulliken charges:
               1
     1  C   -0.171223
     2  C   -0.218377
     3  C   -0.170963
     4  C    0.158441
     5  C   -0.175469
     6  C   -0.218973
     7  H    0.226586
     8  H    0.224839
     9  H    0.277180
    10  H    0.274424
    11  H    0.224013
    12  N    0.488548
    13  O   -0.459974
    14  O   -0.456085
    15  C   -0.170982
    16  C   -0.219375
    17  C   -0.170746
    18  C    0.157114
    19  C   -0.174965
    20  C   -0.220607
    21  H    0.222113
    22  H    0.221089
    23  H    0.274495
    24  H    0.290375
    25  H    0.218063
    26  N    0.486902
    27  O   -0.451723
    28  O   -0.464719
 Sum of Mulliken charges =  -0.00000

 Dipole moment (field-independent basis, Debye):
    X=              4.5907    Y=              8.4383    Z=              0.1420  Tot=              9.6072
 Quadrupole moment (field-independent basis, Debye-Ang):
   XX=            -84.8992   YY=           -109.0228   ZZ=           -102.7988
   XY=             -7.2044   XZ=              7.9783   YZ=              0.0082

 Normal termination of Gaussian 16 at Fri May  7 05:02:52 2021.
