 Gaussian 16, Revision A.03,
 Gaussian 16:  EM64L-G16RevA.03 25-Dec-2016

 -------------
 #p 6-31g* mp2
 -------------

 ------------------------------------------------------
 Input file generated by CHIRIPA (05-May-2021 14:55:19)
 ------------------------------------------------------
 Symbolic Z-matrix:
 Charge =  0 Multiplicity = 1

                         Standard orientation:
 ---------------------------------------------------------------------
 Center     Atomic      Atomic             Coordinates (Angstroms)
 Number     Number       Type             X           Y           Z
 ---------------------------------------------------------------------
      1          6           0        2.593642    2.321310    0.389990
      2          6           0        3.693087    1.696258    0.987528
      3          6           0        3.943297    0.338297    0.768703
      4          6           0        3.069670   -0.367525   -0.057059
      5          6           0        1.965857    0.226856   -0.666647
      6          6           0        1.735050    1.585911   -0.433738
      7          1           0        2.406809    3.376631    0.565449
      8          1           0        4.361564    2.264893    1.627714
      9          1           0        4.787031   -0.170634    1.218726
     10          1           0        1.317214   -0.366179   -1.299884
     11          1           0        0.880428    2.068710   -0.899111
     12          7           0        3.324286   -1.805717   -0.296174
     13          8           0        2.539653   -2.405434   -1.027835
     14          8           0        4.303665   -2.306021    0.252596
     15          6           0       -4.341168   -0.291067    0.418442
     16          6           0       -4.342819   -1.735031   -0.084499
     17          6           0       -5.279311   -2.639269    0.717454
     18          1           0       -4.047683   -0.278563    1.477052
     19          1           0       -5.364401    0.106837    0.373040
     20          1           0       -3.319651   -2.129638   -0.039462
     21          1           0       -4.636149   -1.744082   -1.142087
     22          1           0       -6.309323   -2.272244    0.662962
     23          1           0       -4.985346   -2.659992    1.771852
     24          1           0       -5.264955   -3.666856    0.340995
     25          6           0       -3.409760    0.625131   -0.373259
     26          6           0       -3.408109    2.069095    0.129682
     27          6           0       -2.471617    2.973334   -0.672271
     28          1           0       -2.386527    0.227228   -0.327857
     29          1           0       -3.703245    0.612626   -1.431869
     30          1           0       -3.114779    2.078146    1.187271
     31          1           0       -4.431277    2.463702    0.084646
     32          1           0       -2.765583    2.994055   -1.726670
     33          1           0       -1.441605    2.606309   -0.617781
     34          1           0       -2.485973    4.000919   -0.295812
 ---------------------------------------------------------------------

 SCF Done:  E(RHF) =  -669.535589794     A.U. after   15 cycles
 E2 =    -0.2090964913D+01 EUMP2 =    -0.67162655470647D+03

 The electronic state is 1-A.
 Alpha  occ. eigenvalues --  -20.60770 -20.60765 -15.85824 -11.31192 -11.27766
 Alpha  occ. eigenvalues --  -11.27761 -11.27503 -11.26777 -11.26753 -11.22205
 Alpha  occ. eigenvalues --  -11.21977 -11.21852 -11.21728 -11.21640 -11.21124
 Alpha  occ. eigenvalues --   -1.59846  -1.39400  -1.19366  -1.08820  -1.08758
 Alpha  occ. eigenvalues --   -1.04771  -1.03934  -0.96409  -0.95593  -0.87433
 Alpha  occ. eigenvalues --   -0.86167  -0.82427  -0.80014  -0.78594  -0.77474
 Alpha  occ. eigenvalues --   -0.72042  -0.71170  -0.70470  -0.65463  -0.65017
 Alpha  occ. eigenvalues --   -0.64785  -0.62154  -0.61305  -0.59792  -0.57995
 Alpha  occ. eigenvalues --   -0.55732  -0.55256  -0.53118  -0.53097  -0.53002
 Alpha  occ. eigenvalues --   -0.52683  -0.50346  -0.48803  -0.48797  -0.48316
 Alpha  occ. eigenvalues --   -0.47032  -0.46145  -0.46039  -0.44805  -0.44175
 Alpha  occ. eigenvalues --   -0.37345  -0.36372
 Alpha virt. eigenvalues --    0.05057   0.11228   0.16499   0.19937   0.22743
 Alpha virt. eigenvalues --    0.23901   0.25338   0.26544   0.27068   0.28462
 Alpha virt. eigenvalues --    0.28809   0.30027   0.31218   0.31704   0.32032

 Mulliken charges:
               1
     1  C   -0.172245
     2  C   -0.218601
     3  C   -0.170913
     4  C    0.158718
     5  C   -0.173206
     6  C   -0.225062
     7  H    0.226170
     8  H    0.223457
     9  H    0.275632
    10  H    0.276060
    11  H    0.233110
    12  N    0.488068
    13  O   -0.460438
    14  O   -0.460473
    15  C   -0.298674
    16  C   -0.300736
    17  C   -0.476048
    18  H    0.150603
    19  H    0.150059
    20  H    0.155008
    21  H    0.152252
    22  H    0.154643
    23  H    0.155751
    24  H    0.162501
    25  C   -0.298393
    26  C   -0.299164
    27  C   -0.480345
    28  H    0.146792
    29  H    0.150602
    30  H    0.153441
    31  H    0.154951
    32  H    0.158356
    33  H    0.146261
    34  H    0.161864
 Sum of Mulliken charges =  -0.00000

 Dipole moment (field-independent basis, Debye):
    X=             -1.0255    Y=              5.0309    Z=              0.8736  Tot=              5.2082
 Quadrupole moment (field-independent basis, Debye-Ang):
   XX=            -96.4845   YY=            -99.5877   ZZ=            -93.5294
   XY=             15.6459   XZ=              6.2403   YZ=             -0.1447

 Normal termination of Gaussian 16 at Thu May  6 10:46:29 2021.
