 Gaussian 16, Revision A.03,
 Gaussian 16:  EM64L-G16RevA.03 25-Dec-2016

 -------------
 #p 6-31g* mp2
 -------------

 ------------------------------------------------------
 Input file generated by CHIRIPA (05-May-2021 14:57:22)
 ------------------------------------------------------
 Symbolic Z-matrix:
 Charge =  0 Multiplicity = 1

                         Standard orientation:
 ---------------------------------------------------------------------
 Center     Atomic      Atomic             Coordinates (Angstroms)
 Number     Number       Type             X           Y           Z
 ---------------------------------------------------------------------
      1          6           0        2.217511    2.679606    0.396501
      2          6           0        2.529618    2.264025   -0.902115
      3          6           0        2.962608    0.957007   -1.144544
      4          6           0        3.072630    0.087974   -0.060124
      5          6           0        2.769154    0.472141    1.245100
      6          6           0        2.338063    1.783916    1.464081
      7          1           0        1.881891    3.696776    0.575718
      8          1           0        2.436929    2.957469   -1.733132
      9          1           0        3.210835    0.608908   -2.139847
     10          1           0        2.871382   -0.241889    2.053264
     11          1           0        2.096368    2.103897    2.473656
     12          7           0        3.530013   -1.298226   -0.304361
     13          8           0        3.618644   -2.044620    0.668098
     14          8           0        3.791217   -1.612086   -1.463628
     15          6           0       -0.945580   -1.740068    0.380221
     16          6           0       -0.823137   -0.351109    0.269216
     17          6           0       -1.953082    0.447553    0.069441
     18          6           0       -3.195596   -0.178805   -0.014967
     19          6           0       -3.350100   -1.560122    0.091720
     20          6           0       -2.206447   -2.339086    0.291276
     21          1           0       -0.062487   -2.352837    0.535326
     22          1           0        0.154801    0.116828    0.337902
     23          1           0       -1.886979    1.525077   -0.019945
     24          1           0       -4.338328   -1.997793    0.019148
     25          1           0       -2.304545   -3.417535    0.377123
     26          7           0       -4.399074    0.656276   -0.226343
     27          8           0       -5.482442    0.080146   -0.297243
     28          8           0       -4.236206    1.871130   -0.317117
 ---------------------------------------------------------------------

 SCF Done:  E(RHF) =  -868.338164034     A.U. after   16 cycles
 E2 =    -0.2602271460D+01 EUMP2 =    -0.87094043549382D+03

 The electronic state is 1-A.
 Alpha  occ. eigenvalues --  -20.61923 -20.61895 -20.60787 -20.60770 -15.86958
 Alpha  occ. eigenvalues --  -15.85828 -11.32380 -11.31088 -11.28919 -11.28888
 Alpha  occ. eigenvalues --  -11.28616 -11.27917 -11.27885 -11.27646 -11.27616
 Alpha  occ. eigenvalues --  -11.27252 -11.26587 -11.26462  -1.60991  -1.59858
 Alpha  occ. eigenvalues --   -1.40536  -1.39416  -1.20588  -1.19227  -1.09925
 Alpha  occ. eigenvalues --   -1.08628  -1.05940  -1.04611  -0.96744  -0.95489
 Alpha  occ. eigenvalues --   -0.87301  -0.86016  -0.83543  -0.82327  -0.78605
 Alpha  occ. eigenvalues --   -0.77417  -0.73153  -0.72350  -0.72047  -0.71570
 Alpha  occ. eigenvalues --   -0.71180  -0.70300  -0.66162  -0.65856  -0.64867
 Alpha  occ. eigenvalues --   -0.64666  -0.63231  -0.62035  -0.56357  -0.55184
 Alpha  occ. eigenvalues --   -0.54384  -0.53954  -0.52956  -0.52376  -0.49930
 Alpha  occ. eigenvalues --   -0.49913  -0.48815  -0.48785  -0.45919  -0.44846
 Alpha  occ. eigenvalues --   -0.38572  -0.37628  -0.37145  -0.36189
 Alpha virt. eigenvalues --    0.03880   0.05117   0.10044   0.11426   0.15370
 Alpha virt. eigenvalues --    0.16662   0.20475   0.21755   0.26430   0.27286
 Alpha virt. eigenvalues --    0.27623   0.28358   0.30244   0.31308   0.31890

 Mulliken charges:
               1
     1  C   -0.174824
     2  C   -0.217848
     3  C   -0.171442
     4  C    0.155984
     5  C   -0.188070
     6  C   -0.219206
     7  H    0.232763
     8  H    0.230397
     9  H    0.280228
    10  H    0.278198
    11  H    0.230058
    12  N    0.487212
    13  O   -0.461771
    14  O   -0.454947
    15  C   -0.177952
    16  C   -0.227504
    17  C   -0.176214
    18  C    0.159029
    19  C   -0.172174
    20  C   -0.218168
    21  H    0.233448
    22  H    0.238019
    23  H    0.270070
    24  H    0.275049
    25  H    0.225167
    26  N    0.488191
    27  O   -0.460104
    28  O   -0.463592
 Sum of Mulliken charges =  -0.00000

 Dipole moment (field-independent basis, Debye):
    X=              2.9866    Y=              2.0244    Z=              1.5382  Tot=              3.9223
 Quadrupole moment (field-independent basis, Debye-Ang):
   XX=           -141.2122   YY=            -99.3543   ZZ=           -100.7291
   XY=             27.0420   XZ=             -0.4146   YZ=             -1.4387

 Normal termination of Gaussian 16 at Fri May  7 00:11:48 2021.
