 Gaussian 16, Revision A.03,
 Gaussian 16:  EM64L-G16RevA.03 25-Dec-2016

 -------------
 #p 6-31g* mp2
 -------------

 ------------------------------------------------------
 Input file generated by CHIRIPA (05-May-2021 14:57:23)
 ------------------------------------------------------
 Symbolic Z-matrix:
 Charge =  0 Multiplicity = 1

                         Standard orientation:
 ---------------------------------------------------------------------
 Center     Atomic      Atomic             Coordinates (Angstroms)
 Number     Number       Type             X           Y           Z
 ---------------------------------------------------------------------
      1          6           0        2.030463   -2.309554    0.179302
      2          6           0        2.821221   -1.925037   -0.908525
      3          6           0        3.422103   -0.663061   -0.938610
      4          6           0        3.210106    0.193095    0.140900
      5          6           0        2.427685   -0.160920    1.238981
      6          6           0        1.836560   -1.427823    1.247699
      7          1           0        1.567473   -3.291801    0.194374
      8          1           0        2.973548   -2.607735   -1.739648
      9          1           0        4.039075   -0.339713   -1.768195
     10          1           0        2.294167    0.541394    2.052827
     11          1           0        1.222949   -1.723754    2.093838
     12          7           0        3.841069    1.531701    0.120360
     13          8           0        3.638824    2.267599    1.083786
     14          8           0        4.525914    1.819655   -0.858775
     15          6           0       -5.270734    1.297820    0.113972
     16          6           0       -5.206923   -0.054943    0.463944
     17          6           0       -4.012859   -0.768708    0.325025
     18          6           0       -2.896849   -0.095285   -0.169253
     19          6           0       -2.928745    1.251784   -0.526577
     20          6           0       -4.133447    1.945724   -0.379302
     21          1           0       -6.202444    1.844590    0.225132
     22          1           0       -6.088574   -0.560694    0.847288
     23          1           0       -3.935505   -1.816611    0.588342
     24          1           0       -2.033210    1.728749   -0.905966
     25          1           0       -4.180073    2.996231   -0.651895
     26          7           0       -1.627116   -0.840422   -0.320743
     27          8           0       -0.657978   -0.224178   -0.758521
     28          8           0       -1.625081   -2.026596    0.001167
 ---------------------------------------------------------------------

 SCF Done:  E(RHF) =  -868.338922378     A.U. after   16 cycles
 E2 =    -0.2600733895D+01 EUMP2 =    -0.87093965627251D+03

 The electronic state is 1-A.
 Alpha  occ. eigenvalues --  -20.61454 -20.61384 -20.59663 -20.59656 -15.86428
 Alpha  occ. eigenvalues --  -15.84704 -11.31614 -11.29645 -11.28181 -11.28122
 Alpha  occ. eigenvalues --  -11.27857 -11.27140 -11.27095 -11.26245 -11.26223
 Alpha  occ. eigenvalues --  -11.25784 -11.25114 -11.25068  -1.60481  -1.58747
 Alpha  occ. eigenvalues --   -1.40040  -1.38314  -1.19767  -1.17767  -1.09198
 Alpha  occ. eigenvalues --   -1.07222  -1.05135  -1.03165  -0.96065  -0.94145
 Alpha  occ. eigenvalues --   -0.86543  -0.84590  -0.82902  -0.81038  -0.77972
 Alpha  occ. eigenvalues --   -0.76151  -0.72674  -0.71802  -0.70945  -0.70866
 Alpha  occ. eigenvalues --   -0.70058  -0.68895  -0.65419  -0.65133  -0.63460
 Alpha  occ. eigenvalues --   -0.63222  -0.62481  -0.60585  -0.55649  -0.53631
 Alpha  occ. eigenvalues --   -0.53485  -0.53221  -0.51624  -0.51313  -0.49439
 Alpha  occ. eigenvalues --   -0.49190  -0.47714  -0.47657  -0.45483  -0.43819
 Alpha  occ. eigenvalues --   -0.37745  -0.36731  -0.35562  -0.34699
 Alpha virt. eigenvalues --    0.04529   0.06419   0.10925   0.12930   0.16074
 Alpha virt. eigenvalues --    0.18042   0.21107   0.22897   0.27032   0.27984
 Alpha virt. eigenvalues --    0.28661   0.29809   0.30689   0.32201   0.32428

 Mulliken charges:
               1
     1  C   -0.150098
     2  C   -0.216637
     3  C   -0.169962
     4  C    0.159217
     5  C   -0.169278
     6  C   -0.210764
     7  H    0.227086
     8  H    0.217371
     9  H    0.269353
    10  H    0.267378
    11  H    0.217925
    12  N    0.488004
    13  O   -0.466828
    14  O   -0.465350
    15  C   -0.170125
    16  C   -0.218562
    17  C   -0.171565
    18  C    0.157665
    19  C   -0.170710
    20  C   -0.218533
    21  H    0.227368
    22  H    0.224166
    23  H    0.273764
    24  H    0.278609
    25  H    0.226404
    26  N    0.487706
    27  O   -0.452855
    28  O   -0.470750
 Sum of Mulliken charges =  -0.00000

 Dipole moment (field-independent basis, Debye):
    X=             -7.1380    Y=             -2.1805    Z=              0.5012  Tot=              7.4804
 Quadrupole moment (field-independent basis, Debye-Ang):
   XX=            -93.5916   YY=           -104.3615   ZZ=           -101.6588
   XY=            -22.2524   XZ=             -3.9710   YZ=             -1.8793

 Normal termination of Gaussian 16 at Thu May  6 01:49:55 2021.
