 Gaussian 16, Revision A.03,
 Gaussian 16:  EM64L-G16RevA.03 25-Dec-2016

 -------------
 #p 6-31g* mp2
 -------------

 ------------------------------------------------------
 Input file generated by CHIRIPA (05-May-2021 14:57:22)
 ------------------------------------------------------
 Symbolic Z-matrix:
 Charge =  0 Multiplicity = 1

                         Standard orientation:
 ---------------------------------------------------------------------
 Center     Atomic      Atomic             Coordinates (Angstroms)
 Number     Number       Type             X           Y           Z
 ---------------------------------------------------------------------
      1          6           0        1.190264    0.020695    0.429413
      2          6           0        2.010398    0.885783    1.161207
      3          6           0        3.398581    0.855684    0.998147
      4          6           0        3.935369   -0.056226    0.090641
      5          6           0        3.144745   -0.930941   -0.653050
      6          6           0        1.759052   -0.883313   -0.473788
      7          1           0        0.112857    0.050885    0.562375
      8          1           0        1.571436    1.588885    1.863350
      9          1           0        4.056880    1.514107    1.551808
     10          1           0        3.611473   -1.620888   -1.345550
     11          1           0        1.124575   -1.556336   -1.043458
     12          7           0        5.403659   -0.097370   -0.090560
     13          8           0        5.851960   -0.910000   -0.896347
     14          8           0        6.078400    0.683792    0.576634
     15          6           0       -4.221947   -2.350930    0.449352
     16          6           0       -5.112580   -1.333828    0.808232
     17          6           0       -4.829987   -0.000336    0.497606
     18          6           0       -3.642277    0.281505   -0.175596
     19          6           0       -2.734870   -0.709584   -0.546602
     20          6           0       -3.038021   -2.036117   -0.225730
     21          1           0       -4.449457   -3.384116    0.694632
     22          1           0       -6.032785   -1.575373    1.332565
     23          1           0       -5.501798    0.806725    0.763578
     24          1           0       -1.825494   -0.437794   -1.068696
     25          1           0       -2.344489   -2.823951   -0.505685
     26          7           0       -3.332227    1.689530   -0.509865
     27          8           0       -2.279159    1.911654   -1.103453
     28          8           0       -4.148147    2.544352   -0.171949
 ---------------------------------------------------------------------

 SCF Done:  E(RHF) =  -868.337358994     A.U. after   16 cycles
 E2 =    -0.2600305526D+01 EUMP2 =    -0.87093766452027D+03

 The electronic state is 1-A.
 Alpha  occ. eigenvalues --  -20.61748 -20.61720 -20.60683 -20.60673 -15.86785
 Alpha  occ. eigenvalues --  -15.85737 -11.32236 -11.31097 -11.28862 -11.28710
 Alpha  occ. eigenvalues --  -11.28451 -11.27847 -11.27733 -11.27730 -11.27647
 Alpha  occ. eigenvalues --  -11.27416 -11.26804 -11.26616  -1.60810  -1.59756
 Alpha  occ. eigenvalues --   -1.40362  -1.39310  -1.20386  -1.19281  -1.09746
 Alpha  occ. eigenvalues --   -1.08676  -1.05802  -1.04696  -0.96580  -0.95509
 Alpha  occ. eigenvalues --   -0.87185  -0.86102  -0.83409  -0.82350  -0.78472
 Alpha  occ. eigenvalues --   -0.77397  -0.72991  -0.72146  -0.71957  -0.71490
 Alpha  occ. eigenvalues --   -0.71079  -0.70374  -0.66025  -0.65782  -0.64945
 Alpha  occ. eigenvalues --   -0.64736  -0.63142  -0.62053  -0.56248  -0.55228
 Alpha  occ. eigenvalues --   -0.54084  -0.53851  -0.53000  -0.52806  -0.49762
 Alpha  occ. eigenvalues --   -0.49748  -0.48715  -0.48709  -0.45745  -0.44717
 Alpha  occ. eigenvalues --   -0.38326  -0.37404  -0.37237  -0.36294
 Alpha virt. eigenvalues --    0.04026   0.05156   0.10120   0.11334   0.15567
 Alpha virt. eigenvalues --    0.16630   0.18925   0.21970   0.25099   0.27057
 Alpha virt. eigenvalues --    0.27739   0.29077   0.30182   0.31228   0.31556

 Mulliken charges:
               1
     1  C   -0.167488
     2  C   -0.218300
     3  C   -0.170081
     4  C    0.158138
     5  C   -0.170052
     6  C   -0.219837
     7  H    0.227018
     8  H    0.227050
     9  H    0.276298
    10  H    0.274600
    11  H    0.212719
    12  N    0.488157
    13  O   -0.461338
    14  O   -0.459862
    15  C   -0.170347
    16  C   -0.217122
    17  C   -0.170311
    18  C    0.159416
    19  C   -0.181659
    20  C   -0.217819
    21  H    0.229469
    22  H    0.227531
    23  H    0.278575
    24  H    0.272440
    25  H    0.223148
    26  N    0.487667
    27  O   -0.462308
    28  O   -0.455702
 Sum of Mulliken charges =  -0.00000

 Dipole moment (field-independent basis, Debye):
    X=             -6.5737    Y=             -4.7274    Z=              1.9398  Tot=              8.3261
 Quadrupole moment (field-independent basis, Debye-Ang):
   XX=           -133.0392   YY=           -105.1628   ZZ=           -103.0602
   XY=             18.2618   XZ=             -3.9645   YZ=              4.7207

 Normal termination of Gaussian 16 at Thu May  6 04:56:51 2021.
