 Gaussian 16, Revision A.03,
 Gaussian 16:  EM64L-G16RevA.03 25-Dec-2016

 -------------
 #p 6-31g* mp2
 -------------

 ------------------------------------------------------
 Input file generated by CHIRIPA (05-May-2021 14:53:16)
 ------------------------------------------------------
 Symbolic Z-matrix:
 Charge =  0 Multiplicity = 1

                         Standard orientation:
 ---------------------------------------------------------------------
 Center     Atomic      Atomic             Coordinates (Angstroms)
 Number     Number       Type             X           Y           Z
 ---------------------------------------------------------------------
      1          6           0        4.436175   -0.139862    0.362409
      2          6           0        4.403978   -1.646270    0.102249
      3          6           0        5.521846   -2.395542    0.828030
      4          1           0        5.410589    0.259183    0.048997
      5          1           0        4.357747    0.040232    1.443524
      6          1           0        4.481052   -1.823419   -0.978165
      7          1           0        3.429458   -2.041743    0.416140
      8          1           0        5.444881   -2.248294    1.910155
      9          1           0        6.502450   -2.028730    0.507929
     10          1           0        5.480037   -3.470788    0.628133
     11          6           0        3.324777    0.622945   -0.356373
     12          6           0        3.356974    2.129353   -0.096213
     13          6           0        2.239107    2.878625   -0.821994
     14          1           0        3.403206    0.442851   -1.437489
     15          1           0        2.350364    0.223900   -0.042961
     16          1           0        4.331494    2.524826   -0.410104
     17          1           0        3.279900    2.306502    0.984200
     18          1           0        1.258502    2.511813   -0.501893
     19          1           0        2.316071    2.731377   -1.904119
     20          1           0        2.280915    3.953871   -0.622097
     21          6           0       -2.917488    2.258622    0.600543
     22          6           0       -1.939992    1.695017   -0.226120
     23          6           0       -1.993231    0.340134   -0.566712
     24          6           0       -3.042656   -0.425303   -0.060644
     25          6           0       -4.031555    0.107089    0.765145
     26          6           0       -3.958315    1.464260    1.092670
     27          1           0       -2.868362    3.312017    0.860048
     28          1           0       -1.130524    2.309525   -0.609769
     29          1           0       -1.249718   -0.121903   -1.204777
     30          1           0       -4.826366   -0.530827    1.132236
     31          1           0       -4.718838    1.899267    1.734868
     32          7           0       -3.109605   -1.860868   -0.414297
     33          8           0       -4.044371   -2.513821    0.044510
     34          8           0       -2.226047   -2.305928   -1.143599
 ---------------------------------------------------------------------

 SCF Done:  E(RHF) =  -669.535633689     A.U. after   15 cycles
 E2 =    -0.2090956631D+01 EUMP2 =    -0.67162659032005D+03

 The electronic state is 1-A.
 Alpha  occ. eigenvalues --  -20.60757 -20.60752 -15.85810 -11.31176 -11.27751
 Alpha  occ. eigenvalues --  -11.27739 -11.27487 -11.26763 -11.26726 -11.22156
 Alpha  occ. eigenvalues --  -11.21943 -11.21766 -11.21650 -11.21572 -11.21072
 Alpha  occ. eigenvalues --   -1.59833  -1.39386  -1.19350  -1.08754  -1.08741
 Alpha  occ. eigenvalues --   -1.04753  -1.03877  -0.96355  -0.95578  -0.87382
 Alpha  occ. eigenvalues --   -0.86149  -0.82412  -0.79957  -0.78520  -0.77457
 Alpha  occ. eigenvalues --   -0.72028  -0.71156  -0.70456  -0.65393  -0.65000
 Alpha  occ. eigenvalues --   -0.64765  -0.62136  -0.61250  -0.59738  -0.57937
 Alpha  occ. eigenvalues --   -0.55679  -0.55240  -0.53097  -0.53073  -0.52960
 Alpha  occ. eigenvalues --   -0.52629  -0.50292  -0.48788  -0.48783  -0.48259
 Alpha  occ. eigenvalues --   -0.46971  -0.46074  -0.45964  -0.44791  -0.44114
 Alpha  occ. eigenvalues --   -0.37330  -0.36354
 Alpha virt. eigenvalues --    0.05067   0.11260   0.16498   0.20201   0.22732
 Alpha virt. eigenvalues --    0.23959   0.25405   0.26546   0.27144   0.28401
 Alpha virt. eigenvalues --    0.28943   0.30019   0.31255   0.31702   0.32079

 Mulliken charges:
               1
     1  C   -0.298644
     2  C   -0.300666
     3  C   -0.476069
     4  H    0.149960
     5  H    0.149837
     6  H    0.153040
     7  H    0.155307
     8  H    0.155076
     9  H    0.154580
    10  H    0.162489
    11  C   -0.299260
    12  C   -0.298905
    13  C   -0.481328
    14  H    0.150801
    15  H    0.148828
    16  H    0.154857
    17  H    0.153184
    18  H    0.147036
    19  H    0.158131
    20  H    0.161758
    21  C   -0.171684
    22  C   -0.224850
    23  C   -0.173369
    24  C    0.158574
    25  C   -0.170944
    26  C   -0.218556
    27  H    0.226059
    28  H    0.232468
    29  H    0.276215
    30  H    0.275571
    31  H    0.223354
    32  N    0.488083
    33  O   -0.460575
    34  O   -0.460359
 Sum of Mulliken charges =  -0.00000

 Dipole moment (field-independent basis, Debye):
    X=              0.3646    Y=              5.0167    Z=              1.2571  Tot=              5.1847
 Quadrupole moment (field-independent basis, Debye-Ang):
   XX=            -92.6072   YY=           -100.0673   ZZ=            -93.5874
   XY=            -14.6742   XZ=             -7.4018   YZ=             -0.8780

 Normal termination of Gaussian 16 at Thu May  6 07:30:20 2021.
