 Gaussian 16, Revision A.03,
 Gaussian 16:  EM64L-G16RevA.03 25-Dec-2016

 -------------
 #p 6-31g* mp2
 -------------

 ------------------------------------------------------
 Input file generated by CHIRIPA (05-May-2021 14:57:23)
 ------------------------------------------------------
 Symbolic Z-matrix:
 Charge =  0 Multiplicity = 1

                         Standard orientation:
 ---------------------------------------------------------------------
 Center     Atomic      Atomic             Coordinates (Angstroms)
 Number     Number       Type             X           Y           Z
 ---------------------------------------------------------------------
      1          6           0        3.044381    2.653129    0.245856
      2          6           0        1.810701    2.009376    0.387760
      3          6           0        1.699901    0.632072    0.174909
      4          6           0        2.848302   -0.073812   -0.180328
      5          6           0        4.091518    0.538934   -0.329482
      6          6           0        4.178852    1.917151   -0.111682
      7          1           0        3.121338    3.723407    0.413125
      8          1           0        0.927982    2.578413    0.665337
      9          1           0        0.757243    0.108426    0.277910
     10          1           0        4.953817   -0.055004   -0.607146
     11          1           0        5.138245    2.414450   -0.222606
     12          7           0        2.743424   -1.532386   -0.408283
     13          8           0        3.770058   -2.131734   -0.720437
     14          8           0        1.636572   -2.048649   -0.270485
     15          6           0       -1.412122   -1.892682    1.271443
     16          6           0       -1.571104   -0.627458    1.846295
     17          6           0       -2.374027    0.336742    1.229707
     18          6           0       -3.006103    0.000295    0.033641
     19          6           0       -2.867399   -1.251513   -0.563878
     20          6           0       -2.059635   -2.200129    0.070309
     21          1           0       -0.786512   -2.635642    1.757259
     22          1           0       -1.069444   -0.385904    2.779051
     23          1           0       -2.514483    1.323971    1.652873
     24          1           0       -3.380204   -1.462943   -1.494333
     25          1           0       -1.937989   -3.181908   -0.378421
     26          7           0       -3.858683    1.012801   -0.628428
     27          8           0       -4.404799    0.691601   -1.681626
     28          8           0       -3.964677    2.108432   -0.081625
 ---------------------------------------------------------------------

 SCF Done:  E(RHF) =  -868.339380578     A.U. after   16 cycles
 E2 =    -0.2601717095D+01 EUMP2 =    -0.87094109767340D+03

 The electronic state is 1-A.
 Alpha  occ. eigenvalues --  -20.61338 -20.61278 -20.60873 -20.60844 -15.86350
 Alpha  occ. eigenvalues --  -15.85916 -11.31462 -11.31188 -11.28038 -11.27899
 Alpha  occ. eigenvalues --  -11.27872 -11.27733 -11.27675 -11.27311 -11.26996
 Alpha  occ. eigenvalues --  -11.26961 -11.26757 -11.26521  -1.60385  -1.59942
 Alpha  occ. eigenvalues --   -1.39947  -1.39498  -1.19629  -1.19362  -1.09074
 Alpha  occ. eigenvalues --   -1.08713  -1.05000  -1.04740  -0.95951  -0.95559
 Alpha  occ. eigenvalues --   -0.86410  -0.86097  -0.82801  -0.82395  -0.77869
 Alpha  occ. eigenvalues --   -0.77504  -0.72608  -0.72127  -0.71700  -0.71275
 Alpha  occ. eigenvalues --   -0.70737  -0.70316  -0.65283  -0.65013  -0.64959
 Alpha  occ. eigenvalues --   -0.64680  -0.62370  -0.62076  -0.55526  -0.55078
 Alpha  occ. eigenvalues --   -0.53415  -0.53346  -0.52785  -0.52686  -0.49341
 Alpha  occ. eigenvalues --   -0.49315  -0.48894  -0.48874  -0.45410  -0.44927
 Alpha  occ. eigenvalues --   -0.37612  -0.37208  -0.36612  -0.36345
 Alpha virt. eigenvalues --    0.04605   0.05058   0.10913   0.11411   0.16064
 Alpha virt. eigenvalues --    0.16681   0.21023   0.21855   0.26649   0.27781
 Alpha virt. eigenvalues --    0.28259   0.28619   0.30872   0.31333   0.32220

 Mulliken charges:
               1
     1  C   -0.169497
     2  C   -0.223590
     3  C   -0.179827
     4  C    0.154858
     5  C   -0.169959
     6  C   -0.219418
     7  H    0.227542
     8  H    0.224973
     9  H    0.289047
    10  H    0.275408
    11  H    0.224371
    12  N    0.489811
    13  O   -0.458348
    14  O   -0.470787
    15  C   -0.155936
    16  C   -0.237358
    17  C   -0.179240
    18  C    0.157520
    19  C   -0.172091
    20  C   -0.211926
    21  H    0.236685
    22  H    0.223015
    23  H    0.271422
    24  H    0.276654
    25  H    0.231475
    26  N    0.488320
    27  O   -0.458759
    28  O   -0.464364
 Sum of Mulliken charges =  -0.00000

 Dipole moment (field-independent basis, Debye):
    X=              3.4226    Y=              1.2580    Z=              3.0674  Tot=              4.7651
 Quadrupole moment (field-independent basis, Debye-Ang):
   XX=           -116.7083   YY=           -103.5809   ZZ=           -103.2400
   XY=             26.9498   XZ=             -4.8922   YZ=              1.4565

 Normal termination of Gaussian 16 at Thu May  6 00:14:19 2021.
