 Gaussian 16, Revision A.03,
 Gaussian 16:  EM64L-G16RevA.03 25-Dec-2016

 -------------
 #p 6-31g* mp2
 -------------

 ------------------------------------------------------
 Input file generated by CHIRIPA (05-May-2021 14:57:24)
 ------------------------------------------------------
 Symbolic Z-matrix:
 Charge =  0 Multiplicity = 1

                         Standard orientation:
 ---------------------------------------------------------------------
 Center     Atomic      Atomic             Coordinates (Angstroms)
 Number     Number       Type             X           Y           Z
 ---------------------------------------------------------------------
      1          6           0        1.915655    2.067545    0.147354
      2          6           0        1.715655    0.821707    0.751016
      3          6           0        2.665070   -0.195104    0.612254
      4          6           0        3.808104    0.069537   -0.140559
      5          6           0        4.036033    1.300328   -0.754150
      6          6           0        3.073166    2.302465   -0.601981
      7          1           0        1.172902    2.851728    0.260355
      8          1           0        0.817662    0.636436    1.333537
      9          1           0        2.535527   -1.168828    1.068870
     10          1           0        4.941158    1.455208   -1.328762
     11          1           0        3.231140    3.269031   -1.071917
     12          7           0        4.820328   -0.999147   -0.294557
     13          8           0        5.818932   -0.740833   -0.962914
     14          8           0        4.595939   -2.074861    0.256013
     15          6           0       -5.427230    0.015875   -1.647743
     16          6           0       -4.507197   -1.034204   -1.733749
     17          6           0       -3.513421   -1.188807   -0.762640
     18          6           0       -3.468618   -0.270955    0.285611
     19          6           0       -4.370914    0.785596    0.398976
     20          6           0       -5.356277    0.920827   -0.583531
     21          1           0       -6.195951    0.128451   -2.406551
     22          1           0       -4.559905   -1.738503   -2.559115
     23          1           0       -2.788495   -1.992626   -0.804803
     24          1           0       -4.293141    1.471863    1.233486
     25          1           0       -6.069459    1.737288   -0.514178
     26          7           0       -2.421005   -0.424372    1.319715
     27          8           0       -2.402836    0.397607    2.233310
     28          8           0       -1.637892   -1.363697    1.197069
 ---------------------------------------------------------------------

 SCF Done:  E(RHF) =  -868.340289679     A.U. after   16 cycles
 E2 =    -0.2598695455D+01 EUMP2 =    -0.87093898513402D+03

 The electronic state is 1-A.
 Alpha  occ. eigenvalues --  -20.61826 -20.61811 -20.60113 -20.60098 -15.86828
 Alpha  occ. eigenvalues --  -15.85152 -11.31908 -11.30379 -11.28455 -11.28417
 Alpha  occ. eigenvalues --  -11.28124 -11.27393 -11.27361 -11.26980 -11.26799
 Alpha  occ. eigenvalues --  -11.26638 -11.26010 -11.25694  -1.60890  -1.59187
 Alpha  occ. eigenvalues --   -1.40441  -1.38743  -1.20053  -1.18526  -1.09502
 Alpha  occ. eigenvalues --   -1.07957  -1.05406  -1.03875  -0.96381  -0.94816
 Alpha  occ. eigenvalues --   -0.86817  -0.85290  -0.83217  -0.81627  -0.78301
 Alpha  occ. eigenvalues --   -0.76689  -0.73038  -0.72203  -0.71375  -0.71149
 Alpha  occ. eigenvalues --   -0.70509  -0.69650  -0.65702  -0.65401  -0.64165
 Alpha  occ. eigenvalues --   -0.63841  -0.62752  -0.61196  -0.55915  -0.54422
 Alpha  occ. eigenvalues --   -0.53757  -0.53489  -0.52261  -0.51937  -0.49816
 Alpha  occ. eigenvalues --   -0.49784  -0.48137  -0.48117  -0.45905  -0.44178
 Alpha  occ. eigenvalues --   -0.38017  -0.36997  -0.36539  -0.35479
 Alpha virt. eigenvalues --    0.04163   0.05795   0.10662   0.12155   0.15725
 Alpha virt. eigenvalues --    0.17324   0.20848   0.22379   0.26789   0.27672
 Alpha virt. eigenvalues --    0.28425   0.29128   0.30447   0.31917   0.31976

 Mulliken charges:
               1
     1  C   -0.173366
     2  C   -0.226620
     3  C   -0.172536
     4  C    0.157687
     5  C   -0.173339
     6  C   -0.218883
     7  H    0.223212
     8  H    0.244465
     9  H    0.280295
    10  H    0.272233
    11  H    0.219186
    12  N    0.487936
    13  O   -0.463856
    14  O   -0.460149
    15  C   -0.169668
    16  C   -0.218633
    17  C   -0.170127
    18  C    0.157593
    19  C   -0.171563
    20  C   -0.218749
    21  H    0.228196
    22  H    0.226587
    23  H    0.277928
    24  H    0.275169
    25  H    0.225155
    26  N    0.486931
    27  O   -0.463860
    28  O   -0.461224
 Sum of Mulliken charges =  -0.00000

 Dipole moment (field-independent basis, Debye):
    X=             -7.7360    Y=              4.1595    Z=             -3.0779  Tot=              9.3070
 Quadrupole moment (field-independent basis, Debye-Ang):
   XX=           -105.3981   YY=           -100.3346   ZZ=           -105.3871
   XY=             13.3413   XZ=             12.4158   YZ=              1.0416

 Normal termination of Gaussian 16 at Fri May  7 12:37:45 2021.
