 Gaussian 16, Revision A.03,
 Gaussian 16:  EM64L-G16RevA.03 25-Dec-2016

 -------------
 #p 6-31g* mp2
 -------------

 ------------------------------------------------------
 Input file generated by CHIRIPA (05-May-2021 14:55:24)
 ------------------------------------------------------
 Symbolic Z-matrix:
 Charge =  0 Multiplicity = 1

                         Standard orientation:
 ---------------------------------------------------------------------
 Center     Atomic      Atomic             Coordinates (Angstroms)
 Number     Number       Type             X           Y           Z
 ---------------------------------------------------------------------
      1          6           0        3.386326    2.455567    0.797234
      2          6           0        2.170026    1.818408    1.063997
      3          6           0        1.909091    0.543699    0.552550
      4          6           0        2.891269   -0.067430   -0.225357
      5          6           0        4.112834    0.541452   -0.508784
      6          6           0        4.352146    1.816183    0.013077
      7          1           0        3.580628    3.445801    1.198583
      8          1           0        1.418116    2.312566    1.672672
      9          1           0        0.976063    0.027547    0.743501
     10          1           0        4.842973    0.023604   -1.118823
     11          1           0        5.297641    2.308611   -0.195726
     12          7           0        2.626475   -1.416919   -0.772315
     13          8           0        3.508154   -1.934010   -1.454881
     14          8           0        1.542264   -1.932005   -0.508099
     15          6           0       -3.357390   -0.849485    0.180400
     16          6           0       -2.541693   -1.046205    1.458651
     17          6           0       -1.748321   -2.353245    1.458360
     18          1           0       -4.045029   -1.697448    0.057682
     19          1           0       -2.680349   -0.868339   -0.684846
     20          1           0       -3.219904   -1.025603    2.321334
     21          1           0       -1.856052   -0.197580    1.578442
     22          1           0       -1.049109   -2.379288    0.616324
     23          1           0       -2.420709   -3.212014    1.363437
     24          1           0       -1.172528   -2.473582    2.381312
     25          6           0       -4.155979    0.452731    0.165741
     26          6           0       -4.971676    0.649451   -1.112510
     27          6           0       -5.765048    1.956491   -1.112219
     28          1           0       -4.833021    0.471584    1.030989
     29          1           0       -3.468341    1.300693    0.288460
     30          1           0       -5.657317   -0.199174   -1.232301
     31          1           0       -4.293466    0.628848   -1.975193
     32          1           0       -5.092661    2.815260   -1.017296
     33          1           0       -6.464262    1.982533   -0.270182
     34          1           0       -6.340841    2.076828   -2.035171
 ---------------------------------------------------------------------

 SCF Done:  E(RHF) =  -669.535986444     A.U. after   15 cycles
 E2 =    -0.2091398822D+01 EUMP2 =    -0.67162738526660D+03

 The electronic state is 1-A.
 Alpha  occ. eigenvalues --  -20.60888 -20.60877 -15.85935 -11.31253 -11.27819
 Alpha  occ. eigenvalues --  -11.27812 -11.27559 -11.26829 -11.26818 -11.21529
 Alpha  occ. eigenvalues --  -11.21470 -11.21329 -11.21163 -11.21059 -11.20390
 Alpha  occ. eigenvalues --   -1.59954  -1.39510  -1.19424  -1.08828  -1.08292
 Alpha  occ. eigenvalues --   -1.04821  -1.03342  -0.95762  -0.95658  -0.86755
 Alpha  occ. eigenvalues --   -0.86222  -0.82507  -0.79410  -0.78108  -0.77557
 Alpha  occ. eigenvalues --   -0.72165  -0.71271  -0.70534  -0.65086  -0.64953
 Alpha  occ. eigenvalues --   -0.64802  -0.62179  -0.60728  -0.59146  -0.57374
 Alpha  occ. eigenvalues --   -0.55329  -0.55011  -0.53154  -0.52909  -0.52438
 Alpha  occ. eigenvalues --   -0.52158  -0.49686  -0.48906  -0.48882  -0.47707
 Alpha  occ. eigenvalues --   -0.46445  -0.45661  -0.45548  -0.44924  -0.43602
 Alpha  occ. eigenvalues --   -0.37405  -0.36423
 Alpha virt. eigenvalues --    0.04977   0.11230   0.16478   0.19779   0.22820
 Alpha virt. eigenvalues --    0.23871   0.26228   0.27313   0.27794   0.28040
 Alpha virt. eigenvalues --    0.29064   0.30863   0.31503   0.31943   0.32192

 Mulliken charges:
               1
     1  C   -0.170492
     2  C   -0.219792
     3  C   -0.174749
     4  C    0.157623
     5  C   -0.170475
     6  C   -0.218808
     7  H    0.225891
     8  H    0.223883
     9  H    0.281794
    10  H    0.275704
    11  H    0.223689
    12  N    0.494584
    13  O   -0.459375
    14  O   -0.467717
    15  C   -0.299283
    16  C   -0.298641
    17  C   -0.487747
    18  H    0.151531
    19  H    0.154252
    20  H    0.150505
    21  H    0.137940
    22  H    0.183198
    23  H    0.154427
    24  H    0.156156
    25  C   -0.297188
    26  C   -0.299729
    27  C   -0.475442
    28  H    0.148817
    29  H    0.144626
    30  H    0.153082
    31  H    0.153055
    32  H    0.153298
    33  H    0.154806
    34  H    0.160580
 Sum of Mulliken charges =  -0.00000

 Dipole moment (field-independent basis, Debye):
    X=              1.0359    Y=              4.6340    Z=              1.8114  Tot=              5.0822
 Quadrupole moment (field-independent basis, Debye-Ang):
   XX=            -85.2346   YY=            -96.4134   ZZ=            -95.4762
   XY=             15.1256   XZ=              2.9617   YZ=             -1.0783

 Normal termination of Gaussian 16 at Thu May  6 04:46:09 2021.
