 Gaussian 16, Revision A.03,
 Gaussian 16:  EM64L-G16RevA.03 25-Dec-2016

 -------------
 #p 6-31g* mp2
 -------------

 ------------------------------------------------------
 Input file generated by CHIRIPA (05-May-2021 14:55:19)
 ------------------------------------------------------
 Symbolic Z-matrix:
 Charge =  0 Multiplicity = 1

                         Standard orientation:
 ---------------------------------------------------------------------
 Center     Atomic      Atomic             Coordinates (Angstroms)
 Number     Number       Type             X           Y           Z
 ---------------------------------------------------------------------
      1          6           0       -5.014101   -0.023327   -0.801635
      2          6           0       -4.562227   -1.184232   -0.165530
      3          6           0       -3.273040   -1.243313    0.372108
      4          6           0       -2.458653   -0.117965    0.255255
      5          6           0       -2.879968    1.053147   -0.372663
      6          6           0       -4.173012    1.089695   -0.902993
      7          1           0       -6.017070    0.013817   -1.216447
      8          1           0       -5.213244   -2.050137   -0.085347
      9          1           0       -2.897716   -2.129277    0.869720
     10          1           0       -2.207993    1.900325   -0.437130
     11          1           0       -4.521271    1.992608   -1.396460
     12          7           0       -1.091807   -0.168584    0.820560
     13          8           0       -0.393757    0.836357    0.704557
     14          8           0       -0.744404   -1.212243    1.368944
     15          6           0        2.941046    0.708633   -0.080829
     16          6           0        3.592770    2.091821   -0.086617
     17          6           0        2.590932    3.218418    0.168121
     18          1           0        2.151779    0.678995   -0.844454
     19          1           0        2.445856    0.548348    0.886896
     20          1           0        4.087762    2.248895   -1.053533
     21          1           0        4.380706    2.118108    0.676981
     22          1           0        2.105088    3.089297    1.140687
     23          1           0        1.810478    3.220827   -0.599660
     24          1           0        3.078137    4.198428    0.159712
     25          6           0        3.929803   -0.428001   -0.334111
     26          6           0        3.278079   -1.811188   -0.328323
     27          6           0        4.279918   -2.937786   -0.583061
     28          1           0        4.424993   -0.267716   -1.301835
     29          1           0        4.719070   -0.398363    0.429514
     30          1           0        2.490142   -1.837477   -1.091920
     31          1           0        2.783088   -1.968263    0.638594
     32          1           0        5.060372   -2.940195    0.184719
     33          1           0        4.765762   -2.808665   -1.555627
     34          1           0        3.792712   -3.917797   -0.574653
 ---------------------------------------------------------------------

 SCF Done:  E(RHF) =  -669.535739138     A.U. after   15 cycles
 E2 =    -0.2092244038D+01 EUMP2 =    -0.67162798317624D+03

 The electronic state is 1-A.
 Alpha  occ. eigenvalues --  -20.60985 -20.60976 -15.85996 -11.31318 -11.27879
 Alpha  occ. eigenvalues --  -11.27875 -11.27615 -11.26884 -11.26875 -11.20267
 Alpha  occ. eigenvalues --  -11.20253 -11.20064 -11.20000 -11.19767 -11.19513
 Alpha  occ. eigenvalues --   -1.60036  -1.39593  -1.19485  -1.08892  -1.06974
 Alpha  occ. eigenvalues --   -1.04879  -1.02222  -0.95734  -0.94668  -0.86280
 Alpha  occ. eigenvalues --   -0.85691  -0.82572  -0.78282  -0.77623  -0.76715
 Alpha  occ. eigenvalues --   -0.72205  -0.71342  -0.70593  -0.65139  -0.64882
 Alpha  occ. eigenvalues --   -0.63626  -0.62226  -0.59642  -0.58036  -0.56272
 Alpha  occ. eigenvalues --   -0.55384  -0.53966  -0.53213  -0.52971  -0.51443
 Alpha  occ. eigenvalues --   -0.51105  -0.49045  -0.48980  -0.48605  -0.46593
 Alpha  occ. eigenvalues --   -0.45318  -0.45081  -0.44166  -0.44044  -0.42424
 Alpha  occ. eigenvalues --   -0.37462  -0.36480
 Alpha virt. eigenvalues --    0.04894   0.11175   0.16384   0.21281   0.24193
 Alpha virt. eigenvalues --    0.25433   0.27192   0.27910   0.28184   0.29057
 Alpha virt. eigenvalues --    0.29246   0.30930   0.32198   0.32742   0.32986

 Mulliken charges:
               1
     1  C   -0.170578
     2  C   -0.218581
     3  C   -0.170678
     4  C    0.157901
     5  C   -0.171022
     6  C   -0.218543
     7  H    0.226080
     8  H    0.223892
     9  H    0.275888
    10  H    0.275958
    11  H    0.223961
    12  N    0.489619
    13  O   -0.458379
    14  O   -0.459858
    15  C   -0.295758
    16  C   -0.300098
    17  C   -0.471537
    18  H    0.147777
    19  H    0.170853
    20  H    0.144328
    21  H    0.147071
    22  H    0.162682
    23  H    0.151725
    24  H    0.150888
    25  C   -0.298581
    26  C   -0.298892
    27  C   -0.474875
    28  H    0.142006
    29  H    0.144994
    30  H    0.147631
    31  H    0.163451
    32  H    0.152959
    33  H    0.150882
    34  H    0.156831
 Sum of Mulliken charges =  -0.00000

 Dipole moment (field-independent basis, Debye):
    X=             -5.2360    Y=              0.1400    Z=             -1.7914  Tot=              5.5357
 Quadrupole moment (field-independent basis, Debye-Ang):
   XX=            -73.5564   YY=            -92.2341   ZZ=            -95.1954
   XY=              1.4156   XZ=              4.4916   YZ=             -1.6807

 Normal termination of Gaussian 16 at Wed May  5 15:51:19 2021.
