 Gaussian 16, Revision A.03,
 Gaussian 16:  EM64L-G16RevA.03 25-Dec-2016

 -------------
 #p 6-31g* mp2
 -------------

 ------------------------------------------------------
 Input file generated by CHIRIPA (05-May-2021 14:57:24)
 ------------------------------------------------------
 Symbolic Z-matrix:
 Charge =  0 Multiplicity = 1

                         Standard orientation:
 ---------------------------------------------------------------------
 Center     Atomic      Atomic             Coordinates (Angstroms)
 Number     Number       Type             X           Y           Z
 ---------------------------------------------------------------------
      1          6           0       -4.845111    1.419087   -1.099750
      2          6           0       -4.063017    1.989584   -0.090105
      3          6           0       -3.117191    1.221155    0.595079
      4          6           0       -2.979160   -0.120659    0.243267
      5          6           0       -3.743421   -0.717920   -0.757970
      6          6           0       -4.683103    0.069535   -1.429878
      7          1           0       -5.577465    2.023411   -1.626861
      8          1           0       -4.186672    3.037407    0.168394
      9          1           0       -2.498520    1.637349    1.380857
     10          1           0       -3.597369   -1.765148   -0.993339
     11          1           0       -5.289105   -0.376189   -2.213547
     12          7           0       -1.981108   -0.944232    0.961613
     13          8           0       -1.878742   -2.124087    0.632826
     14          8           0       -1.320101   -0.394299    1.839839
     15          6           0        4.250295    2.248271    0.011236
     16          6           0        3.169089    1.946404    0.845737
     17          6           0        2.548243    0.695549    0.778963
     18          6           0        3.036664   -0.233888   -0.138033
     19          6           0        4.111945    0.036940   -0.982850
     20          6           0        4.717448    1.294257   -0.898790
     21          1           0        4.726624    3.222476    0.069822
     22          1           0        2.804166    2.685355    1.553429
     23          1           0        1.709487    0.435444    1.413198
     24          1           0        4.453317   -0.720218   -1.678260
     25          1           0        5.556945    1.525923   -1.548112
     26          7           0        2.387524   -1.561533   -0.217874
     27          8           0        2.836736   -2.363029   -1.034237
     28          8           0        1.441806   -1.775505    0.537422
 ---------------------------------------------------------------------

 SCF Done:  E(RHF) =  -868.336175505     A.U. after   16 cycles
 E2 =    -0.2601270096D+01 EUMP2 =    -0.87093744560096D+03

 The electronic state is 1-A.
 Alpha  occ. eigenvalues --  -20.60200 -20.60071 -20.59676 -20.59574 -15.85187
 Alpha  occ. eigenvalues --  -15.84677 -11.30856 -11.30356 -11.27502 -11.27412
 Alpha  occ. eigenvalues --  -11.27246 -11.27033 -11.26856 -11.26840 -11.26561
 Alpha  occ. eigenvalues --  -11.26504 -11.26112 -11.26055  -1.59159  -1.58720
 Alpha  occ. eigenvalues --   -1.38725  -1.38253  -1.19049  -1.18584  -1.08383
 Alpha  occ. eigenvalues --   -1.07936  -1.04499  -1.04024  -0.95174  -0.94697
 Alpha  occ. eigenvalues --   -0.85883  -0.85408  -0.82013  -0.81517  -0.77011
 Alpha  occ. eigenvalues --   -0.76503  -0.71406  -0.70990  -0.70410  -0.70159
 Alpha  occ. eigenvalues --   -0.70032  -0.69680  -0.64701  -0.64505  -0.64217
 Alpha  occ. eigenvalues --   -0.64033  -0.61847  -0.61337  -0.54984  -0.54544
 Alpha  occ. eigenvalues --   -0.52808  -0.52597  -0.52362  -0.52110  -0.48205
 Alpha  occ. eigenvalues --   -0.48146  -0.47660  -0.47569  -0.44047  -0.43581
 Alpha  occ. eigenvalues --   -0.37041  -0.36616  -0.36116  -0.35651
 Alpha virt. eigenvalues --    0.05485   0.06028   0.11533   0.11994   0.16916
 Alpha virt. eigenvalues --    0.17423   0.21594   0.22142   0.27494   0.27943
 Alpha virt. eigenvalues --    0.28467   0.29172   0.31086   0.31670   0.32690

 Mulliken charges:
               1
     1  C   -0.171813
     2  C   -0.218341
     3  C   -0.172216
     4  C    0.160033
     5  C   -0.170654
     6  C   -0.218423
     7  H    0.224048
     8  H    0.220714
     9  H    0.270590
    10  H    0.278241
    11  H    0.223135
    12  N    0.490714
    13  O   -0.444323
    14  O   -0.468405
    15  C   -0.171845
    16  C   -0.220704
    17  C   -0.178300
    18  C    0.155645
    19  C   -0.171789
    20  C   -0.219456
    21  H    0.221761
    22  H    0.220578
    23  H    0.293227
    24  H    0.273607
    25  H    0.220053
    26  N    0.485016
    27  O   -0.467901
    28  O   -0.443191
 Sum of Mulliken charges =  -0.00000

 Dipole moment (field-independent basis, Debye):
    X=             -1.4832    Y=              7.1971    Z=             -2.1266  Tot=              7.6498
 Quadrupole moment (field-independent basis, Debye-Ang):
   XX=            -70.4275   YY=           -105.1427   ZZ=           -103.1761
   XY=              5.9337   XZ=              5.9939   YZ=              3.7068

 Normal termination of Gaussian 16 at Wed May  5 17:52:27 2021.
