 Gaussian 16, Revision A.03,
 Gaussian 16:  EM64L-G16RevA.03 25-Dec-2016

 -------------
 #p 6-31g* mp2
 -------------

 ------------------------------------------------------
 Input file generated by CHIRIPA (05-May-2021 14:57:22)
 ------------------------------------------------------
 Symbolic Z-matrix:
 Charge =  0 Multiplicity = 1

                         Standard orientation:
 ---------------------------------------------------------------------
 Center     Atomic      Atomic             Coordinates (Angstroms)
 Number     Number       Type             X           Y           Z
 ---------------------------------------------------------------------
      1          6           0       -3.587025   -1.588195    1.162374
      2          6           0       -3.921728   -0.230521    1.127507
      3          6           0       -3.237058    0.648066    0.282604
      4          6           0       -2.218534    0.132663   -0.517557
      5          6           0       -1.861752   -1.214871   -0.505377
      6          6           0       -2.559916   -2.075178    0.347258
      7          1           0       -4.124135   -2.263602    1.821718
      8          1           0       -4.718950    0.150471    1.759431
      9          1           0       -3.475606    1.703676    0.235706
     10          1           0       -1.062354   -1.565222   -1.146966
     11          1           0       -2.297825   -3.129090    0.372249
     12          7           0       -1.486561    1.053107   -1.416111
     13          8           0       -0.593197    0.574181   -2.111214
     14          8           0       -1.820065    2.236049   -1.408281
     15          6           0        1.692314    1.892220    1.931094
     16          6           0        1.898077    2.153141    0.572380
     17          6           0        2.256752    1.122973   -0.302066
     18          6           0        2.401707   -0.162055    0.218493
     19          6           0        2.203631   -0.453725    1.567189
     20          6           0        1.845477    0.591912    2.423295
     21          1           0        1.413889    2.698489    2.603260
     22          1           0        1.779835    3.162005    0.187340
     23          1           0        2.422163    1.296989   -1.358369
     24          1           0        2.328951   -1.469646    1.921617
     25          1           0        1.686320    0.386345    3.478024
     26          7           0        2.781144   -1.260836   -0.697536
     27          8           0        2.902560   -2.384307   -0.214102
     28          8           0        2.949948   -0.977784   -1.881607
 ---------------------------------------------------------------------

 SCF Done:  E(RHF) =  -868.339234670     A.U. after   16 cycles
 E2 =    -0.2601324980D+01 EUMP2 =    -0.87094055964951D+03

 The electronic state is 1-A.
 Alpha  occ. eigenvalues --  -20.61056 -20.61018 -20.60350 -20.60267 -15.86049
 Alpha  occ. eigenvalues --  -15.85357 -11.31305 -11.30615 -11.27899 -11.27804
 Alpha  occ. eigenvalues --  -11.27599 -11.27318 -11.27070 -11.27000 -11.26895
 Alpha  occ. eigenvalues --  -11.26808 -11.26294 -11.26085  -1.60100  -1.59393
 Alpha  occ. eigenvalues --   -1.39658  -1.38942  -1.19470  -1.18822  -1.08893
 Alpha  occ. eigenvalues --   -1.08242  -1.04852  -1.04192  -0.95746  -0.95081
 Alpha  occ. eigenvalues --   -0.86259  -0.85594  -0.82576  -0.81903  -0.77636
 Alpha  occ. eigenvalues --   -0.76946  -0.72294  -0.71582  -0.71425  -0.70709
 Alpha  occ. eigenvalues --   -0.70580  -0.69926  -0.65126  -0.64853  -0.64466
 Alpha  occ. eigenvalues --   -0.64184  -0.62193  -0.61513  -0.55373  -0.54738
 Alpha  occ. eigenvalues --   -0.53200  -0.52939  -0.52561  -0.52267  -0.49059
 Alpha  occ. eigenvalues --   -0.49046  -0.48353  -0.48313  -0.45107  -0.44353
 Alpha  occ. eigenvalues --   -0.37462  -0.36852  -0.36440  -0.35744
 Alpha virt. eigenvalues --    0.04848   0.05578   0.11185   0.11881   0.16407
 Alpha virt. eigenvalues --    0.17043   0.21344   0.21989   0.27269   0.27942
 Alpha virt. eigenvalues --    0.28176   0.28897   0.30859   0.31460   0.32382

 Mulliken charges:
               1
     1  C   -0.171205
     2  C   -0.219260
     3  C   -0.172011
     4  C    0.159550
     5  C   -0.172032
     6  C   -0.219497
     7  H    0.225762
     8  H    0.222422
     9  H    0.273437
    10  H    0.281332
    11  H    0.227457
    12  N    0.488732
    13  O   -0.458017
    14  O   -0.464925
    15  C   -0.171951
    16  C   -0.222964
    17  C   -0.158672
    18  C    0.152372
    19  C   -0.173621
    20  C   -0.220173
    21  H    0.223538
    22  H    0.229371
    23  H    0.285628
    24  H    0.270885
    25  H    0.218987
    26  N    0.486899
    27  O   -0.469283
    28  O   -0.452763
 Sum of Mulliken charges =  -0.00000

 Dipole moment (field-independent basis, Debye):
    X=             -3.9354    Y=              0.7143    Z=              6.0861  Tot=              7.2828
 Quadrupole moment (field-independent basis, Debye-Ang):
   XX=            -99.7938   YY=           -102.5744   ZZ=           -104.3519
   XY=             14.8795   XZ=             -0.0806   YZ=              0.9538

 Normal termination of Gaussian 16 at Thu May  6 01:49:16 2021.
