 Gaussian 16, Revision A.03,
 Gaussian 16:  EM64L-G16RevA.03 25-Dec-2016

 -------------
 #p 6-31g* mp2
 -------------

 ------------------------------------------------------
 Input file generated by CHIRIPA (05-May-2021 14:53:16)
 ------------------------------------------------------
 Symbolic Z-matrix:
 Charge =  0 Multiplicity = 1

                         Standard orientation:
 ---------------------------------------------------------------------
 Center     Atomic      Atomic             Coordinates (Angstroms)
 Number     Number       Type             X           Y           Z
 ---------------------------------------------------------------------
      1          6           0        3.833899    0.788957   -0.239827
      2          6           0        4.731704    1.674917    0.624468
      3          6           0        4.494843    3.166687    0.387170
      4          1           0        4.006518    1.025190   -1.298761
      5          1           0        2.782418    1.031697   -0.032799
      6          1           0        5.781156    1.429612    0.416882
      7          1           0        4.557067    1.436412    1.681461
      8          1           0        3.457121    3.432682    0.612958
      9          1           0        4.688165    3.425844   -0.658805
     10          1           0        5.147027    3.781616    1.015166
     11          6           0        4.058969   -0.705046   -0.013931
     12          6           0        3.161164   -1.591005   -0.878226
     13          6           0        3.398025   -3.082776   -0.640928
     14          1           0        5.110450   -0.947786   -0.220959
     15          1           0        3.886350   -0.941279    1.045003
     16          1           0        3.335801   -1.352501   -1.935219
     17          1           0        2.111712   -1.345701   -0.670640
     18          1           0        3.204703   -3.341933    0.405047
     19          1           0        4.435747   -3.348771   -0.866716
     20          1           0        2.745841   -3.697705   -1.268924
     21          6           0       -0.949189   -1.103084    0.915563
     22          6           0       -2.107906   -1.167534    1.696422
     23          6           0       -3.295918   -0.578074    1.254028
     24          6           0       -3.289455    0.070695    0.020194
     25          6           0       -2.151342    0.151878   -0.780679
     26          6           0       -0.974560   -0.444744   -0.318320
     27          1           0       -0.030674   -1.563771    1.266980
     28          1           0       -2.091138   -1.678148    2.655087
     29          1           0       -4.207381   -0.612997    1.838351
     30          1           0       -2.198991    0.667850   -1.731951
     31          1           0       -0.076197   -0.393122   -0.926862
     32          7           0       -4.541206    0.698521   -0.458717
     33          8           0       -4.509396    1.264205   -1.549417
     34          8           0       -5.530436    0.613038    0.265682
 ---------------------------------------------------------------------

 SCF Done:  E(RHF) =  -669.535436206     A.U. after   15 cycles
 E2 =    -0.2091525592D+01 EUMP2 =    -0.67162696179884D+03

 The electronic state is 1-A.
 Alpha  occ. eigenvalues --  -20.60746 -20.60740 -15.85799 -11.31165 -11.27736
 Alpha  occ. eigenvalues --  -11.27726 -11.27476 -11.26754 -11.26715 -11.22815
 Alpha  occ. eigenvalues --  -11.22354 -11.22275 -11.22210 -11.22086 -11.21589
 Alpha  occ. eigenvalues --   -1.59821  -1.39374  -1.19337  -1.09349  -1.08734
 Alpha  occ. eigenvalues --   -1.04741  -1.04396  -0.96812  -0.95569  -0.87829
 Alpha  occ. eigenvalues --   -0.86145  -0.82399  -0.80495  -0.79147  -0.77445
 Alpha  occ. eigenvalues --   -0.72018  -0.71144  -0.70456  -0.66027  -0.64988
 Alpha  occ. eigenvalues --   -0.64740  -0.62142  -0.61744  -0.60193  -0.58423
 Alpha  occ. eigenvalues --   -0.56095  -0.55243  -0.53508  -0.53228  -0.53070
 Alpha  occ. eigenvalues --   -0.52844  -0.50761  -0.48832  -0.48772  -0.48728
 Alpha  occ. eigenvalues --   -0.47538  -0.46666  -0.46589  -0.44780  -0.44647
 Alpha  occ. eigenvalues --   -0.37321  -0.36342
 Alpha virt. eigenvalues --    0.05088   0.11280   0.16580   0.18718   0.22689
 Alpha virt. eigenvalues --    0.23558   0.24657   0.25884   0.27175   0.28135
 Alpha virt. eigenvalues --    0.29047   0.30217   0.30946   0.31460   0.31909

 Mulliken charges:
               1
     1  C   -0.299540
     2  C   -0.300060
     3  C   -0.476480
     4  H    0.151750
     5  H    0.145836
     6  H    0.153881
     7  H    0.152240
     8  H    0.156214
     9  H    0.156399
    10  H    0.162599
    11  C   -0.298107
    12  C   -0.306081
    13  C   -0.475917
    14  H    0.154198
    15  H    0.148316
    16  H    0.156617
    17  H    0.142830
    18  H    0.153070
    19  H    0.160467
    20  H    0.162864
    21  C   -0.172969
    22  C   -0.218558
    23  C   -0.171173
    24  C    0.158788
    25  C   -0.170959
    26  C   -0.224564
    27  H    0.225928
    28  H    0.223284
    29  H    0.275540
    30  H    0.275938
    31  H    0.230576
    32  N    0.487917
    33  O   -0.460372
    34  O   -0.460472
 Sum of Mulliken charges =  -0.00000

 Dipole moment (field-independent basis, Debye):
    X=              4.6456    Y=             -2.1985    Z=              1.6596  Tot=              5.4008
 Quadrupole moment (field-independent basis, Debye-Ang):
   XX=           -121.6978   YY=            -96.2716   ZZ=            -90.8459
   XY=              8.4581   XZ=             -8.4276   YZ=             -1.2369

 Normal termination of Gaussian 16 at Thu May  6 22:02:16 2021.
