 Gaussian 16, Revision A.03,
 Gaussian 16:  EM64L-G16RevA.03 25-Dec-2016

 -------------
 #p 6-31g* mp2
 -------------

 ------------------------------------------------------
 Input file generated by CHIRIPA (05-May-2021 14:51:10)
 ------------------------------------------------------
 Symbolic Z-matrix:
 Charge =  0 Multiplicity = 1

                         Standard orientation:
 ---------------------------------------------------------------------
 Center     Atomic      Atomic             Coordinates (Angstroms)
 Number     Number       Type             X           Y           Z
 ---------------------------------------------------------------------
      1          6           0        2.803114    0.439577    0.350854
      2          6           0        3.169636    1.919014    0.228742
      3          6           0        3.380907    2.589711    1.586433
      4          1           0        1.890645    0.343093    0.955036
      5          1           0        3.598201   -0.083886    0.899688
      6          1           0        2.374751    2.439268   -0.320903
      7          1           0        4.081232    2.012001   -0.375380
      8          1           0        4.187859    2.096786    2.138206
      9          1           0        2.471683    2.526481    2.192993
     10          1           0        3.642043    3.646788    1.475720
     11          6           0        2.588709   -0.244767   -0.998009
     12          6           0        2.222187   -1.724204   -0.875897
     13          6           0        2.010916   -2.394901   -2.233588
     14          1           0        1.793622    0.278696   -1.546843
     15          1           0        3.501178   -0.148283   -1.602191
     16          1           0        1.310591   -1.817191   -0.271775
     17          1           0        3.017072   -2.244458   -0.326252
     18          1           0        2.920140   -2.331671   -2.840148
     19          1           0        1.203964   -1.901976   -2.785361
     20          1           0        1.749780   -3.451978   -2.122875
     21          6           0       -2.639621    0.444270   -0.212008
     22          6           0       -3.976517    1.105834   -0.548201
     23          6           0       -3.847597    2.187343   -1.621287
     24          1           0       -1.931251    1.213778    0.124170
     25          1           0       -2.215004    0.006448   -1.126014
     26          1           0       -4.399147    1.541078    0.366437
     27          1           0       -4.681845    0.334637   -0.883435
     28          1           0       -3.449150    1.764001   -2.548985
     29          1           0       -3.164845    2.977297   -1.292011
     30          1           0       -4.815030    2.647060   -1.846215
     31          6           0       -2.752203   -0.639080    0.859162
     32          6           0       -1.415306   -1.300644    1.195356
     33          6           0       -1.544226   -2.382152    2.268442
     34          1           0       -3.176819   -0.201258    1.773168
     35          1           0       -3.460573   -1.408587    0.522984
     36          1           0       -0.709977   -0.529447    1.530590
     37          1           0       -0.992677   -1.735887    0.280717
     38          1           0       -2.226978   -3.172106    1.939165
     39          1           0       -1.942673   -1.958811    3.196139
     40          1           0       -0.576793   -2.841870    2.493369
 ---------------------------------------------------------------------

 SCF Done:  E(RHF) =  -470.733147736     A.U. after   11 cycles
 E2 =    -0.1583586516D+01 EUMP2 =    -0.47231673425184D+03

 The electronic state is 1-A.
 Alpha  occ. eigenvalues --  -11.21690 -11.21659 -11.21582 -11.21495 -11.21483
 Alpha  occ. eigenvalues --  -11.21423 -11.21359 -11.21297 -11.21133 -11.21119
 Alpha  occ. eigenvalues --  -11.21070 -11.21049  -1.08514  -1.08382  -1.03609
 Alpha  occ. eigenvalues --   -1.03490  -0.96044  -0.95951  -0.87061  -0.86966
 Alpha  occ. eigenvalues --   -0.79724  -0.79525  -0.78385  -0.78136  -0.65148
 Alpha  occ. eigenvalues --   -0.65020  -0.61089  -0.60828  -0.59434  -0.59293
 Alpha  occ. eigenvalues --   -0.57661  -0.57556  -0.55339  -0.55232  -0.52738
 Alpha  occ. eigenvalues --   -0.52645  -0.52468  -0.52377  -0.50020  -0.49873
 Alpha  occ. eigenvalues --   -0.48127  -0.47839  -0.46862  -0.46444  -0.46098
 Alpha  occ. eigenvalues --   -0.45744  -0.45699  -0.45341  -0.43849  -0.43745
 Alpha virt. eigenvalues --    0.20616   0.23310   0.23410   0.24096   0.25533
 Alpha virt. eigenvalues --    0.26525   0.26910   0.28025   0.28156   0.29532
 Alpha virt. eigenvalues --    0.30257   0.31525   0.31662   0.31788   0.32257

 Mulliken charges:
               1
     1  C   -0.302039
     2  C   -0.299604
     3  C   -0.475554
     4  H    0.152963
     5  H    0.149302
     6  H    0.151889
     7  H    0.151995
     8  H    0.155248
     9  H    0.154504
    10  H    0.160212
    11  C   -0.297401
    12  C   -0.308695
    13  C   -0.475609
    14  H    0.149668
    15  H    0.149301
    16  H    0.161940
    17  H    0.151263
    18  H    0.155285
    19  H    0.154356
    20  H    0.159730
    21  C   -0.298442
    22  C   -0.299677
    23  C   -0.475789
    24  H    0.149159
    25  H    0.149188
    26  H    0.152164
    27  H    0.152224
    28  H    0.155211
    29  H    0.155168
    30  H    0.160555
    31  C   -0.297501
    32  C   -0.307652
    33  C   -0.476320
    34  H    0.149796
    35  H    0.150081
    36  H    0.154473
    37  H    0.156222
    38  H    0.155511
    39  H    0.155568
    40  H    0.161308
 Sum of Mulliken charges =  -0.00000

 Dipole moment (field-independent basis, Debye):
    X=             -0.0490    Y=             -0.0107    Z=              0.0210  Tot=              0.0544
 Quadrupole moment (field-independent basis, Debye-Ang):
   XX=            -83.8151   YY=            -85.2832   ZZ=            -85.6822
   XY=             -0.1555   XZ=             -0.1150   YZ=              0.5079

 Normal termination of Gaussian 16 at Wed May  5 18:14:36 2021.
