 Gaussian 16, Revision A.03,
 Gaussian 16:  EM64L-G16RevA.03 25-Dec-2016

 -------------
 #p 6-31g* mp2
 -------------

 ------------------------------------------------------
 Input file generated by CHIRIPA (05-May-2021 14:57:27)
 ------------------------------------------------------
 Symbolic Z-matrix:
 Charge =  0 Multiplicity = 1

                         Standard orientation:
 ---------------------------------------------------------------------
 Center     Atomic      Atomic             Coordinates (Angstroms)
 Number     Number       Type             X           Y           Z
 ---------------------------------------------------------------------
      1          6           0        1.522328   -1.499383    1.006987
      2          6           0        1.797010   -1.482428   -0.364429
      3          6           0        2.868458   -0.736638   -0.864773
      4          6           0        3.648159   -0.016247    0.038772
      5          6           0        3.399901   -0.013036    1.410503
      6          6           0        2.323239   -0.765926    1.888522
      7          1           0        0.687976   -2.081488    1.386995
      8          1           0        1.176702   -2.051081   -1.051377
      9          1           0        3.103533   -0.705773   -1.921753
     10          1           0        4.036057    0.563933    2.070679
     11          1           0        2.112268   -0.777234    2.954078
     12          7           0        4.785214    0.777045   -0.479103
     13          8           0        5.457102    1.403177    0.337697
     14          8           0        4.983018    0.757675   -1.692006
     15          6           0       -3.969789    2.601107    0.165924
     16          6           0       -2.655052    2.180947   -0.060908
     17          6           0       -2.361378    0.823741   -0.223070
     18          6           0       -3.411548   -0.090263   -0.152164
     19          6           0       -4.731659    0.297161    0.072554
     20          6           0       -5.002076    1.659533    0.231815
     21          1           0       -4.188888    3.657424    0.290769
     22          1           0       -1.851359    2.909956   -0.112566
     23          1           0       -1.352557    0.470945   -0.399805
     24          1           0       -5.511695   -0.453047    0.118928
     25          1           0       -6.024063    1.982950    0.407858
     26          7           0       -3.112958   -1.529811   -0.322303
     27          8           0       -4.055995   -2.315214   -0.255510
     28          8           0       -1.941541   -1.845468   -0.519227
 ---------------------------------------------------------------------

 SCF Done:  E(RHF) =  -868.340787750     A.U. after   16 cycles
 E2 =    -0.2599022578D+01 EUMP2 =    -0.87093981032787D+03

 The electronic state is 1-A.
 Alpha  occ. eigenvalues --  -20.61764 -20.61678 -20.60581 -20.60573 -15.86761
 Alpha  occ. eigenvalues --  -15.85627 -11.31812 -11.30863 -11.28342 -11.28326
 Alpha  occ. eigenvalues --  -11.28021 -11.27440 -11.27360 -11.27289 -11.27266
 Alpha  occ. eigenvalues --  -11.26952 -11.26387 -11.26188  -1.60786  -1.59660
 Alpha  occ. eigenvalues --   -1.40352  -1.39217  -1.19956  -1.19002  -1.09407
 Alpha  occ. eigenvalues --   -1.08380  -1.05307  -1.04371  -0.96294  -0.95243
 Alpha  occ. eigenvalues --   -0.86721  -0.85737  -0.83141  -0.82079  -0.78224
 Alpha  occ. eigenvalues --   -0.77174  -0.73008  -0.72093  -0.71840  -0.71054
 Alpha  occ. eigenvalues --   -0.70988  -0.69991  -0.65614  -0.65299  -0.64614
 Alpha  occ. eigenvalues --   -0.64287  -0.62654  -0.61694  -0.55814  -0.54737
 Alpha  occ. eigenvalues --   -0.53661  -0.53397  -0.52726  -0.52402  -0.49752
 Alpha  occ. eigenvalues --   -0.49703  -0.48610  -0.48584  -0.45823  -0.44651
 Alpha  occ. eigenvalues --   -0.37921  -0.36952  -0.36885  -0.36006
 Alpha virt. eigenvalues --    0.04260   0.05339   0.10754   0.11596   0.15815
 Alpha virt. eigenvalues --    0.16892   0.20887   0.22073   0.26823   0.27387
 Alpha virt. eigenvalues --    0.28163   0.28965   0.30582   0.31763   0.31868

 Mulliken charges:
               1
     1  C   -0.175022
     2  C   -0.224535
     3  C   -0.175360
     4  C    0.157026
     5  C   -0.173335
     6  C   -0.221159
     7  H    0.238347
     8  H    0.240621
     9  H    0.274547
    10  H    0.273235
    11  H    0.221676
    12  N    0.488015
    13  O   -0.462348
    14  O   -0.461379
    15  C   -0.169806
    16  C   -0.219228
    17  C   -0.173159
    18  C    0.156814
    19  C   -0.170622
    20  C   -0.218706
    21  H    0.228310
    22  H    0.227386
    23  H    0.275807
    24  H    0.276169
    25  H    0.225402
    26  N    0.491613
    27  O   -0.455247
    28  O   -0.475061
 Sum of Mulliken charges =  -0.00000

 Dipole moment (field-independent basis, Debye):
    X=             -5.4420    Y=              2.2264    Z=              2.4054  Tot=              6.3528
 Quadrupole moment (field-independent basis, Debye-Ang):
   XX=           -122.7766   YY=           -105.6055   ZZ=           -101.5008
   XY=            -26.5604   XZ=              4.9490   YZ=              0.4663

 Normal termination of Gaussian 16 at Thu May  6 19:47:08 2021.
