 Gaussian 16, Revision A.03,
 Gaussian 16:  EM64L-G16RevA.03 25-Dec-2016

 -------------
 #p 6-31g* mp2
 -------------

 ------------------------------------------------------
 Input file generated by CHIRIPA (05-May-2021 14:55:19)
 ------------------------------------------------------
 Symbolic Z-matrix:
 Charge =  0 Multiplicity = 1

                         Standard orientation:
 ---------------------------------------------------------------------
 Center     Atomic      Atomic             Coordinates (Angstroms)
 Number     Number       Type             X           Y           Z
 ---------------------------------------------------------------------
      1          6           0       -1.582216    1.900665   -1.231287
      2          6           0       -0.843931    0.988734   -0.469816
      3          6           0       -1.472693   -0.102464    0.137220
      4          6           0       -2.847455   -0.251891   -0.038825
      5          6           0       -3.610403    0.639565   -0.791492
      6          6           0       -2.960666    1.723482   -1.389416
      7          1           0       -1.085632    2.745506   -1.699308
      8          1           0        0.226718    1.123829   -0.345300
      9          1           0       -0.925293   -0.823561    0.732024
     10          1           0       -4.676336    0.478479   -0.897589
     11          1           0       -3.536560    2.430116   -1.980229
     12          7           0       -3.524200   -1.403240    0.598993
     13          8           0       -4.736501   -1.512582    0.428678
     14          8           0       -2.829517   -2.174523    1.257153
     15          6           0        3.087837    0.441318    0.714374
     16          6           0        3.007782    1.952328    0.494315
     17          6           0        2.175906    2.662097    1.562961
     18          1           0        2.071397    0.024609    0.726555
     19          1           0        3.518236    0.244529    1.706052
     20          1           0        2.578942    2.146193   -0.497213
     21          1           0        4.024540    2.365460    0.482465
     22          1           0        2.604696    2.498086    2.556863
     23          1           0        1.150885    2.277574    1.571620
     24          1           0        2.131915    3.741321    1.386326
     25          6           0        3.916116   -0.282254   -0.345874
     26          6           0        3.996171   -1.793263   -0.125816
     27          6           0        4.828047   -2.503032   -1.194462
     28          1           0        3.485716   -0.085466   -1.337553
     29          1           0        4.932556    0.134455   -0.358057
     30          1           0        2.979413   -2.206396   -0.113965
     31          1           0        4.425011   -1.987129    0.865713
     32          1           0        5.853069   -2.118510   -1.203120
     33          1           0        4.399257   -2.339023   -2.188363
     34          1           0        4.872038   -3.582256   -1.017827
 ---------------------------------------------------------------------

 SCF Done:  E(RHF) =  -669.534692916     A.U. after   15 cycles
 E2 =    -0.2092909549D+01 EUMP2 =    -0.67162760246535D+03

 The electronic state is 1-A.
 Alpha  occ. eigenvalues --  -20.60755 -20.60750 -15.85808 -11.31179 -11.27752
 Alpha  occ. eigenvalues --  -11.27746 -11.27483 -11.26761 -11.26692 -11.22681
 Alpha  occ. eigenvalues --  -11.22398 -11.22149 -11.22090 -11.21993 -11.21463
 Alpha  occ. eigenvalues --   -1.59830  -1.39383  -1.19351  -1.09298  -1.08740
 Alpha  occ. eigenvalues --   -1.04768  -1.04299  -0.96738  -0.95577  -0.87749
 Alpha  occ. eigenvalues --   -0.86157  -0.82420  -0.80382  -0.79064  -0.77468
 Alpha  occ. eigenvalues --   -0.72026  -0.71153  -0.70459  -0.66202  -0.65001
 Alpha  occ. eigenvalues --   -0.64657  -0.62310  -0.61418  -0.60114  -0.58333
 Alpha  occ. eigenvalues --   -0.56058  -0.55242  -0.53404  -0.53183  -0.53045
 Alpha  occ. eigenvalues --   -0.52810  -0.50699  -0.48802  -0.48781  -0.48641
 Alpha  occ. eigenvalues --   -0.47463  -0.46576  -0.46514  -0.44788  -0.44564
 Alpha  occ. eigenvalues --   -0.37324  -0.36347
 Alpha virt. eigenvalues --    0.05070   0.11218   0.16493   0.18829   0.23034
 Alpha virt. eigenvalues --    0.23766   0.24573   0.25862   0.27242   0.28502
 Alpha virt. eigenvalues --    0.29796   0.30477   0.30929   0.31135   0.31730

 Mulliken charges:
               1
     1  C   -0.173686
     2  C   -0.226057
     3  C   -0.175926
     4  C    0.159190
     5  C   -0.170860
     6  C   -0.218497
     7  H    0.226007
     8  H    0.239119
     9  H    0.275831
    10  H    0.275635
    11  H    0.223416
    12  N    0.488152
    13  O   -0.460567
    14  O   -0.460369
    15  C   -0.301897
    16  C   -0.306578
    17  C   -0.480059
    18  H    0.141176
    19  H    0.156891
    20  H    0.143532
    21  H    0.160118
    22  H    0.161544
    23  H    0.153637
    24  H    0.162461
    25  C   -0.298440
    26  C   -0.300479
    27  C   -0.476299
    28  H    0.148047
    29  H    0.152783
    30  H    0.152894
    31  H    0.154398
    32  H    0.155769
    33  H    0.155551
    34  H    0.163563
 Sum of Mulliken charges =  -0.00000

 Dipole moment (field-independent basis, Debye):
    X=              2.5980    Y=              4.0275    Z=             -2.1936  Tot=              5.2709
 Quadrupole moment (field-independent basis, Debye-Ang):
   XX=           -103.2465   YY=            -97.1491   ZZ=            -94.5719
   XY=            -13.4072   XZ=              9.4382   YZ=             -0.5547

 Normal termination of Gaussian 16 at Thu May  6 10:47:14 2021.
