 Gaussian 16, Revision A.03,
 Gaussian 16:  EM64L-G16RevA.03 25-Dec-2016

 -------------
 #p 6-31g* mp2
 -------------

 ------------------------------------------------------
 Input file generated by CHIRIPA (05-May-2021 14:51:11)
 ------------------------------------------------------
 Symbolic Z-matrix:
 Charge =  0 Multiplicity = 1

                         Standard orientation:
 ---------------------------------------------------------------------
 Center     Atomic      Atomic             Coordinates (Angstroms)
 Number     Number       Type             X           Y           Z
 ---------------------------------------------------------------------
      1          6           0        3.135969    0.312467   -0.242246
      2          6           0        2.863341   -0.955712   -1.051802
      3          6           0        4.119863   -1.798998   -1.270471
      4          1           0        3.897067    0.913100   -0.758883
      5          1           0        3.565095    0.033277    0.730019
      6          1           0        2.433571   -0.674285   -2.021705
      7          1           0        2.102664   -1.553304   -0.533275
      8          1           0        4.547964   -2.108270   -0.311471
      9          1           0        4.880751   -1.224256   -1.808358
     10          1           0        3.902152   -2.700671   -1.851372
     11          6           0        1.889483    1.165988   -0.015301
     12          6           0        2.162111    2.434167    0.794256
     13          6           0        0.905589    3.277452    1.012924
     14          1           0        1.460356    1.445177   -0.987566
     15          1           0        1.128385    0.565354    0.501336
     16          1           0        2.922788    3.031759    0.275729
     17          1           0        2.591881    2.152739    1.764159
     18          1           0        0.144701    2.702711    1.550811
     19          1           0        0.477488    3.586725    0.053924
     20          1           0        1.123300    4.179126    1.593826
     21          6           0       -1.793085   -0.923718    0.306292
     22          6           0       -1.682241   -2.202892    1.136599
     23          6           0       -0.236375   -2.558853    1.483817
     24          1           0       -1.211128   -1.042476   -0.617920
     25          1           0       -1.333242   -0.093966    0.860775
     26          1           0       -2.143389   -3.029702    0.581310
     27          1           0       -2.264687   -2.081146    2.058852
     28          1           0        0.231147   -1.753292    2.059226
     29          1           0        0.353134   -2.707238    0.573289
     30          1           0       -0.180349   -3.476557    2.077567
     31          6           0       -3.232366   -0.554736   -0.048744
     32          6           0       -3.343211    0.724438   -0.879052
     33          6           0       -4.789076    1.080398   -1.226270
     34          1           0       -3.692210   -1.384488   -0.603229
     35          1           0       -3.814324   -0.435979    0.875467
     36          1           0       -2.760765    0.602692   -1.801305
     37          1           0       -2.882064    1.551247   -0.323764
     38          1           0       -5.378587    1.228783   -0.315743
     39          1           0       -5.256599    0.274837   -1.801679
     40          1           0       -4.845103    1.998103   -1.820020
 ---------------------------------------------------------------------

 SCF Done:  E(RHF) =  -470.732809196     A.U. after   11 cycles
 E2 =    -0.1584499536D+01 EUMP2 =    -0.47231730873161D+03

 The electronic state is 1-A.
 Alpha  occ. eigenvalues --  -11.21653 -11.21585 -11.21568 -11.21517 -11.21413
 Alpha  occ. eigenvalues --  -11.21354 -11.21323 -11.21249 -11.21158 -11.21082
 Alpha  occ. eigenvalues --  -11.21061 -11.21027  -1.08466  -1.08357  -1.03564
 Alpha  occ. eigenvalues --   -1.03488  -0.96015  -0.95936  -0.87045  -0.86944
 Alpha  occ. eigenvalues --   -0.79654  -0.79540  -0.78435  -0.78005  -0.65099
 Alpha  occ. eigenvalues --   -0.65000  -0.61055  -0.60815  -0.59390  -0.59302
 Alpha  occ. eigenvalues --   -0.57645  -0.57524  -0.55343  -0.55194  -0.52708
 Alpha  occ. eigenvalues --   -0.52641  -0.52510  -0.52309  -0.50024  -0.49832
 Alpha  occ. eigenvalues --   -0.48081  -0.47849  -0.46815  -0.46445  -0.46274
 Alpha  occ. eigenvalues --   -0.45703  -0.45631  -0.45046  -0.43807  -0.43729
 Alpha virt. eigenvalues --    0.20512   0.22417   0.23500   0.24111   0.25962
 Alpha virt. eigenvalues --    0.26142   0.26813   0.27622   0.28097   0.30154
 Alpha virt. eigenvalues --    0.30706   0.31479   0.31722   0.32017   0.32254

 Mulliken charges:
               1
     1  C   -0.297113
     2  C   -0.308244
     3  C   -0.475147
     4  H    0.149194
     5  H    0.149107
     6  H    0.150944
     7  H    0.160270
     8  H    0.155297
     9  H    0.155020
    10  H    0.159558
    11  C   -0.305839
    12  C   -0.299541
    13  C   -0.476331
    14  H    0.149067
    15  H    0.158840
    16  H    0.151873
    17  H    0.151415
    18  H    0.154259
    19  H    0.155689
    20  H    0.160262
    21  C   -0.302360
    22  C   -0.299482
    23  C   -0.482201
    24  H    0.151677
    25  H    0.152256
    26  H    0.152198
    27  H    0.151937
    28  H    0.155020
    29  H    0.160865
    30  H    0.161002
    31  C   -0.298089
    32  C   -0.300002
    33  C   -0.475711
    34  H    0.149499
    35  H    0.149472
    36  H    0.151945
    37  H    0.152903
    38  H    0.155148
    39  H    0.155057
    40  H    0.160284
 Sum of Mulliken charges =  -0.00000

 Dipole moment (field-independent basis, Debye):
    X=             -0.0378    Y=             -0.0258    Z=              0.0059  Tot=              0.0462
 Quadrupole moment (field-independent basis, Debye-Ang):
   XX=            -86.5506   YY=            -84.8801   ZZ=            -83.4989
   XY=              1.0268   XZ=             -0.3101   YZ=             -0.0507

 Normal termination of Gaussian 16 at Wed May  5 15:13:33 2021.
