 Gaussian 16, Revision A.03,
 Gaussian 16:  EM64L-G16RevA.03 25-Dec-2016

 -------------
 #p 6-31g* mp2
 -------------

 ------------------------------------------------------
 Input file generated by CHIRIPA (05-May-2021 14:57:25)
 ------------------------------------------------------
 Symbolic Z-matrix:
 Charge =  0 Multiplicity = 1

                         Standard orientation:
 ---------------------------------------------------------------------
 Center     Atomic      Atomic             Coordinates (Angstroms)
 Number     Number       Type             X           Y           Z
 ---------------------------------------------------------------------
      1          6           0       -2.307627    1.469560   -0.597001
      2          6           0       -3.612151    1.953097   -0.741667
      3          6           0       -4.708350    1.141043   -0.435947
      4          6           0       -4.462390   -0.155248    0.013966
      5          6           0       -3.174482   -0.665854    0.168443
      6          6           0       -2.093333    0.163929   -0.143208
      7          1           0       -1.461919    2.107269   -0.836795
      8          1           0       -3.781576    2.966647   -1.093884
      9          1           0       -5.728700    1.489930   -0.538818
     10          1           0       -3.037219   -1.680636    0.521706
     11          1           0       -1.081316   -0.214260   -0.029901
     12          7           0       -5.614920   -1.024318    0.340757
     13          8           0       -5.371527   -2.162617    0.735311
     14          8           0       -6.739843   -0.550741    0.196154
     15          6           0        2.832136    2.043990    0.443042
     16          6           0        4.185981    2.064803    0.794028
     17          6           0        4.993488    0.944709    0.575236
     18          6           0        4.411682   -0.184428    0.000918
     19          6           0        3.066078   -0.236001   -0.359608
     20          6           0        2.277483    0.895678   -0.131643
     21          1           0        2.212191    2.918605    0.616567
     22          1           0        4.619431    2.955214    1.240498
     23          1           0        6.044470    0.933615    0.837402
     24          1           0        2.662442   -1.138180   -0.802969
     25          1           0        1.226372    0.876662   -0.405225
     26          7           0        5.256543   -1.376354   -0.235563
     27          8           0        4.719954   -2.358823   -0.742973
     28          8           0        6.439336   -1.305548    0.090971
 ---------------------------------------------------------------------

 SCF Done:  E(RHF) =  -868.336079887     A.U. after   16 cycles
 E2 =    -0.2599871710D+01 EUMP2 =    -0.87093595159642D+03

 The electronic state is 1-A.
 Alpha  occ. eigenvalues --  -20.61338 -20.61331 -20.61219 -20.61214 -15.86400
 Alpha  occ. eigenvalues --  -15.86279 -11.31925 -11.31805 -11.28591 -11.28494
 Alpha  occ. eigenvalues --  -11.28411 -11.28379 -11.28356 -11.28295 -11.27738
 Alpha  occ. eigenvalues --  -11.27564 -11.27523 -11.27456  -1.60410  -1.60291
 Alpha  occ. eigenvalues --   -1.39959  -1.39840  -1.20137  -1.20015  -1.09508
 Alpha  occ. eigenvalues --   -1.09406  -1.05583  -1.05440  -0.96306  -0.96205
 Alpha  occ. eigenvalues --   -0.87001  -0.86837  -0.83150  -0.83027  -0.78178
 Alpha  occ. eigenvalues --   -0.78013  -0.72615  -0.72497  -0.71736  -0.71616
 Alpha  occ. eigenvalues --   -0.71258  -0.71180  -0.65837  -0.65800  -0.65662
 Alpha  occ. eigenvalues --   -0.65326  -0.63002  -0.62700  -0.56089  -0.56028
 Alpha  occ. eigenvalues --   -0.53882  -0.53782  -0.53760  -0.53462  -0.49389
 Alpha  occ. eigenvalues --   -0.49359  -0.49269  -0.49238  -0.45329  -0.45208
 Alpha  occ. eigenvalues --   -0.38126  -0.38038  -0.37180  -0.37030
 Alpha virt. eigenvalues --    0.04402   0.04516   0.10435   0.10620   0.15797
 Alpha virt. eigenvalues --    0.15953   0.17175   0.22117   0.24556   0.25913
 Alpha virt. eigenvalues --    0.27835   0.28910   0.29852   0.30762   0.31933

 Mulliken charges:
               1
     1  C   -0.171488
     2  C   -0.217851
     3  C   -0.169909
     4  C    0.159388
     5  C   -0.169289
     6  C   -0.220407
     7  H    0.217836
     8  H    0.224907
     9  H    0.277912
    10  H    0.278833
    11  H    0.218634
    12  N    0.487828
    13  O   -0.458165
    14  O   -0.458691
    15  C   -0.170337
    16  C   -0.218129
    17  C   -0.169239
    18  C    0.159310
    19  C   -0.170937
    20  C   -0.222211
    21  H    0.224361
    22  H    0.226168
    23  H    0.278452
    24  H    0.276009
    25  H    0.216053
    26  N    0.488052
    27  O   -0.459056
    28  O   -0.458037
 Sum of Mulliken charges =  -0.00000

 Dipole moment (field-independent basis, Debye):
    X=              1.1130    Y=              7.2107    Z=             -0.2576  Tot=              7.3007
 Quadrupole moment (field-independent basis, Debye-Ang):
   XX=           -160.3711   YY=           -104.0110   ZZ=           -105.3777
   XY=              4.4830   XZ=             11.6976   YZ=              0.1473

 Normal termination of Gaussian 16 at Thu May  6 05:06:13 2021.
