 Gaussian 16, Revision A.03,
 Gaussian 16:  EM64L-G16RevA.03 25-Dec-2016

 -------------
 #p 6-31g* mp2
 -------------

 ------------------------------------------------------
 Input file generated by CHIRIPA (05-May-2021 14:57:27)
 ------------------------------------------------------
 Symbolic Z-matrix:
 Charge =  0 Multiplicity = 1

                         Standard orientation:
 ---------------------------------------------------------------------
 Center     Atomic      Atomic             Coordinates (Angstroms)
 Number     Number       Type             X           Y           Z
 ---------------------------------------------------------------------
      1          6           0        2.267754   -1.809107    1.082877
      2          6           0        1.772013   -0.786274    0.267664
      3          6           0        2.639611    0.147776   -0.306245
      4          6           0        4.003287    0.028675   -0.042632
      5          6           0        4.527736   -0.979097    0.765229
      6          6           0        3.641611   -1.902091    1.328625
      7          1           0        1.586587   -2.530405    1.524620
      8          1           0        0.705532   -0.711614    0.075077
      9          1           0        2.282763    0.949593   -0.941201
     10          1           0        5.595858   -1.027735    0.938917
     11          1           0        4.029434   -2.695391    1.961327
     12          7           0        4.931581    1.011659   -0.644639
     13          8           0        6.128759    0.884960   -0.396951
     14          8           0        4.444423    1.890209   -1.352780
     15          6           0       -3.931812   -2.207449   -0.994680
     16          6           0       -5.119484   -1.526849   -0.707035
     17          6           0       -5.086309   -0.229549   -0.186980
     18          6           0       -3.842412    0.359631    0.034105
     19          6           0       -2.641745   -0.292517   -0.242285
     20          6           0       -2.698906   -1.589201   -0.761797
     21          1           0       -3.966900   -3.214983   -1.398460
     22          1           0       -6.078411   -2.004511   -0.886883
     23          1           0       -5.990448    0.320247    0.044702
     24          1           0       -1.700967    0.209755   -0.052341
     25          1           0       -1.774939   -2.115363   -0.984242
     26          7           0       -3.794595    1.732698    0.584376
     27          8           0       -2.685948    2.229717    0.770151
     28          8           0       -4.866667    2.285890    0.819487
 ---------------------------------------------------------------------

 SCF Done:  E(RHF) =  -868.336410177     A.U. after   16 cycles
 E2 =    -0.2599838587D+01 EUMP2 =    -0.87093624876464D+03

 The electronic state is 1-A.
 Alpha  occ. eigenvalues --  -20.61328 -20.61319 -20.60897 -20.60889 -15.86385
 Alpha  occ. eigenvalues --  -15.85957 -11.31893 -11.31440 -11.28584 -11.28413
 Alpha  occ. eigenvalues --  -11.28204 -11.28066 -11.28033 -11.27871 -11.27586
 Alpha  occ. eigenvalues --  -11.27439 -11.27220 -11.27061  -1.60397  -1.59970
 Alpha  occ. eigenvalues --   -1.39949  -1.39519  -1.20070  -1.19651  -1.09425
 Alpha  occ. eigenvalues --   -1.09033  -1.05516  -1.05084  -0.96246  -0.95836
 Alpha  occ. eigenvalues --   -0.86893  -0.86490  -0.83093  -0.82675  -0.78136
 Alpha  occ. eigenvalues --   -0.77686  -0.72598  -0.72174  -0.71722  -0.71294
 Alpha  occ. eigenvalues --   -0.71179  -0.70767  -0.65736  -0.65525  -0.65314
 Alpha  occ. eigenvalues --   -0.65147  -0.62935  -0.62361  -0.55974  -0.55600
 Alpha  occ. eigenvalues --   -0.53805  -0.53630  -0.53387  -0.53185  -0.49367
 Alpha  occ. eigenvalues --   -0.49348  -0.48945  -0.48918  -0.45324  -0.44898
 Alpha  occ. eigenvalues --   -0.38024  -0.37647  -0.37116  -0.36680
 Alpha virt. eigenvalues --    0.04438   0.04869   0.10546   0.10943   0.15900
 Alpha virt. eigenvalues --    0.16303   0.17716   0.22036   0.24365   0.27012
 Alpha virt. eigenvalues --    0.27969   0.29145   0.30013   0.30968   0.32212

 Mulliken charges:
               1
     1  C   -0.171617
     2  C   -0.221142
     3  C   -0.169974
     4  C    0.158804
     5  C   -0.169710
     6  C   -0.218405
     7  H    0.224500
     8  H    0.217186
     9  H    0.278837
    10  H    0.277040
    11  H    0.224423
    12  N    0.488076
    13  O   -0.459839
    14  O   -0.458265
    15  C   -0.170321
    16  C   -0.218107
    17  C   -0.169536
    18  C    0.161973
    19  C   -0.177856
    20  C   -0.219749
    21  H    0.227591
    22  H    0.226307
    23  H    0.278208
    24  H    0.272367
    25  H    0.218743
    26  N    0.488125
    27  O   -0.460287
    28  O   -0.457372
 Sum of Mulliken charges =  -0.00000

 Dipole moment (field-independent basis, Debye):
    X=             -3.5219    Y=             -8.2461    Z=              0.1887  Tot=              8.9687
 Quadrupole moment (field-independent basis, Debye-Ang):
   XX=           -119.8624   YY=           -108.4836   ZZ=           -105.6127
   XY=              2.5815   XZ=             18.1557   YZ=             -1.8231

 Normal termination of Gaussian 16 at Wed May  5 19:36:18 2021.
