 Gaussian 16, Revision A.03,
 Gaussian 16:  EM64L-G16RevA.03 25-Dec-2016

 -------------
 #p 6-31g* mp2
 -------------

 ------------------------------------------------------
 Input file generated by CHIRIPA (05-May-2021 14:57:22)
 ------------------------------------------------------
 Symbolic Z-matrix:
 Charge =  0 Multiplicity = 1

                         Standard orientation:
 ---------------------------------------------------------------------
 Center     Atomic      Atomic             Coordinates (Angstroms)
 Number     Number       Type             X           Y           Z
 ---------------------------------------------------------------------
      1          6           0        6.350729    0.116060    0.596323
      2          6           0        5.672347   -1.100904    0.720084
      3          6           0        4.310872   -1.189079    0.414867
      4          6           0        3.655955   -0.035343   -0.013232
      5          6           0        4.304113    1.191604   -0.146576
      6          6           0        5.665655    1.256420    0.164150
      7          1           0        7.408382    0.175483    0.835562
      8          1           0        6.201829   -1.988148    1.055485
      9          1           0        3.761222   -2.118456    0.501821
     10          1           0        3.749363    2.058932   -0.483344
     11          1           0        6.189931    2.202867    0.067107
     12          7           0        2.214587   -0.116325   -0.339267
     13          8           0        1.660346    0.914571   -0.714377
     14          8           0        1.666375   -1.209162   -0.213531
     15          6           0       -6.268356    0.107143    0.807305
     16          6           0       -5.721607   -1.106477    0.377522
     17          6           0       -4.406851   -1.165447   -0.094164
     18          6           0       -3.663918    0.013765   -0.122465
     19          6           0       -4.180378    1.238130    0.298828
     20          6           0       -5.497357    1.273517    0.766658
     21          1           0       -7.290554    0.143792    1.172223
     22          1           0       -6.318042   -2.013882    0.407960
     23          1           0       -3.958622   -2.091574   -0.432984
     24          1           0       -3.561230    2.125987    0.256601
     25          1           0       -5.919354    2.217435    1.099794
     26          7           0       -2.270869   -0.036180   -0.619777
     27          8           0       -1.637107    1.016797   -0.634677
     28          8           0       -1.839136   -1.127360   -0.985253
 ---------------------------------------------------------------------

 SCF Done:  E(RHF) =  -868.332981954     A.U. after   16 cycles
 E2 =    -0.2601583016D+01 EUMP2 =    -0.87093456497002D+03

 The electronic state is 1-A.
 Alpha  occ. eigenvalues --  -20.59212 -20.59180 -20.59096 -20.59090 -15.84293
 Alpha  occ. eigenvalues --  -15.84189 -11.30211 -11.30138 -11.26851 -11.26843
 Alpha  occ. eigenvalues --  -11.26780 -11.26774 -11.26696 -11.26633 -11.25991
 Alpha  occ. eigenvalues --  -11.25981 -11.25930 -11.25919  -1.58273  -1.58159
 Alpha  occ. eigenvalues --   -1.37821  -1.37705  -1.18439  -1.18367  -1.07731
 Alpha  occ. eigenvalues --   -1.07645  -1.03923  -1.03858  -0.94484  -0.94356
 Alpha  occ. eigenvalues --   -0.85296  -0.85228  -0.81316  -0.81205  -0.76254
 Alpha  occ. eigenvalues --   -0.76164  -0.70627  -0.70206  -0.69670  -0.69546
 Alpha  occ. eigenvalues --   -0.69526  -0.69472  -0.64076  -0.63997  -0.63936
 Alpha  occ. eigenvalues --   -0.63860  -0.61266  -0.61201  -0.54418  -0.54335
 Alpha  occ. eigenvalues --   -0.52225  -0.52156  -0.52024  -0.51959  -0.47710
 Alpha  occ. eigenvalues --   -0.47327  -0.46960  -0.46570  -0.43156  -0.42945
 Alpha  occ. eigenvalues --   -0.36453  -0.36382  -0.35554  -0.35490
 Alpha virt. eigenvalues --    0.06263   0.06397   0.12091   0.12155   0.17669
 Alpha virt. eigenvalues --    0.17786   0.22155   0.22214   0.28029   0.28082
 Alpha virt. eigenvalues --    0.29092   0.29157   0.31663   0.31721   0.33362

 Mulliken charges:
               1
     1  C   -0.172725
     2  C   -0.218506
     3  C   -0.172169
     4  C    0.159476
     5  C   -0.172134
     6  C   -0.218522
     7  H    0.221926
     8  H    0.220159
     9  H    0.274791
    10  H    0.275446
    11  H    0.220270
    12  N    0.484753
    13  O   -0.447429
    14  O   -0.455292
    15  C   -0.172851
    16  C   -0.218532
    17  C   -0.171960
    18  C    0.159789
    19  C   -0.172258
    20  C   -0.218526
    21  H    0.221628
    22  H    0.220033
    23  H    0.275195
    24  H    0.274889
    25  H    0.219850
    26  N    0.485596
    27  O   -0.449803
    28  O   -0.453093
 Sum of Mulliken charges =  -0.00000

 Dipole moment (field-independent basis, Debye):
    X=              0.1909    Y=              0.4838    Z=              2.7338  Tot=              2.7828
 Quadrupole moment (field-independent basis, Debye-Ang):
   XX=            -37.3947   YY=            -95.4304   ZZ=           -106.6579
   XY=              0.7572   XZ=             -1.6143   YZ=             -0.4527

 Normal termination of Gaussian 16 at Thu May  6 19:29:49 2021.
