 Gaussian 16, Revision A.03,
 Gaussian 16:  EM64L-G16RevA.03 25-Dec-2016

 -------------
 #p 6-31g* mp2
 -------------

 ------------------------------------------------------
 Input file generated by CHIRIPA (05-May-2021 14:51:11)
 ------------------------------------------------------
 Symbolic Z-matrix:
 Charge =  0 Multiplicity = 1

                         Standard orientation:
 ---------------------------------------------------------------------
 Center     Atomic      Atomic             Coordinates (Angstroms)
 Number     Number       Type             X           Y           Z
 ---------------------------------------------------------------------
      1          6           0        3.290068   -0.529911    0.013880
      2          6           0        3.703860   -1.608087   -0.988267
      3          6           0        3.565567   -3.022877   -0.425205
      4          1           0        3.902636   -0.626686    0.920710
      5          1           0        2.249108   -0.703653    0.319840
      6          1           0        4.743287   -1.431554   -1.293296
      7          1           0        3.090366   -1.508613   -1.892892
      8          1           0        2.528357   -3.223469   -0.137873
      9          1           0        4.190669   -3.145973    0.465129
     10          1           0        3.866637   -3.777872   -1.158144
     11          6           0        3.422767    0.889778   -0.534392
     12          6           0        3.008975    1.967954    0.467754
     13          6           0        3.147268    3.382745   -0.095307
     14          1           0        4.463727    1.063520   -0.840352
     15          1           0        2.810199    0.986553   -1.441222
     16          1           0        3.622469    1.868481    1.372379
     17          1           0        1.969548    1.791422    0.772784
     18          1           0        2.522165    3.505840   -0.985641
     19          1           0        4.184478    3.583337   -0.382639
     20          1           0        2.846198    4.137739    0.637632
     21          6           0       -3.826425    0.278542   -0.130033
     22          6           0       -5.213079   -0.324957   -0.355788
     23          6           0       -6.141939    0.604115   -1.137988
     24          1           0       -3.931174    1.231412    0.406633
     25          1           0       -3.374636    0.515897   -1.103144
     26          1           0       -5.661552   -0.562380    0.617411
     27          1           0       -5.105002   -1.276596   -0.891810
     28          1           0       -5.719621    0.831815   -2.122063
     29          1           0       -6.279334    1.550088   -0.604267
     30          1           0       -7.127736    0.152939   -1.288005
     31          6           0       -2.886410   -0.638409    0.650545
     32          6           0       -1.499756   -0.034910    0.876300
     33          6           0       -0.570896   -0.963983    1.658501
     34          1           0       -3.338198   -0.875765    1.623655
     35          1           0       -2.781661   -1.591280    0.113880
     36          1           0       -1.607833    0.916728    1.412322
     37          1           0       -1.051283    0.202514   -0.096900
     38          1           0       -0.433501   -1.909955    1.124778
     39          1           0       -0.993213   -1.191683    2.642575
     40          1           0        0.414901   -0.512806    1.808517
 ---------------------------------------------------------------------

 SCF Done:  E(RHF) =  -470.733164109     A.U. after   11 cycles
 E2 =    -0.1583112576D+01 EUMP2 =    -0.47231627668556D+03

 The electronic state is 1-A.
 Alpha  occ. eigenvalues --  -11.21679 -11.21632 -11.21600 -11.21573 -11.21453
 Alpha  occ. eigenvalues --  -11.21392 -11.21367 -11.21285 -11.21117 -11.21095
 Alpha  occ. eigenvalues --  -11.21066 -11.21046  -1.08483  -1.08403  -1.03582
 Alpha  occ. eigenvalues --   -1.03509  -0.96040  -0.95948  -0.87057  -0.86965
 Alpha  occ. eigenvalues --   -0.79658  -0.79563  -0.78290  -0.78225  -0.65148
 Alpha  occ. eigenvalues --   -0.65020  -0.60996  -0.60889  -0.59417  -0.59325
 Alpha  occ. eigenvalues --   -0.57702  -0.57518  -0.55343  -0.55218  -0.52793
 Alpha  occ. eigenvalues --   -0.52638  -0.52475  -0.52332  -0.49989  -0.49883
 Alpha  occ. eigenvalues --   -0.47972  -0.47888  -0.46705  -0.46584  -0.45834
 Alpha  occ. eigenvalues --   -0.45759  -0.45750  -0.45644  -0.43797  -0.43736
 Alpha virt. eigenvalues --    0.20562   0.23155   0.23803   0.24074   0.26254
 Alpha virt. eigenvalues --    0.26553   0.27039   0.27074   0.27945   0.29536
 Alpha virt. eigenvalues --    0.30450   0.31530   0.31598   0.31915   0.32087

 Mulliken charges:
               1
     1  C   -0.307455
     2  C   -0.298988
     3  C   -0.476014
     4  H    0.148975
     5  H    0.160070
     6  H    0.151742
     7  H    0.151342
     8  H    0.155439
     9  H    0.155279
    10  H    0.159980
    11  C   -0.297502
    12  C   -0.302500
    13  C   -0.475549
    14  H    0.149429
    15  H    0.149102
    16  H    0.151829
    17  H    0.154057
    18  H    0.155236
    19  H    0.155265
    20  H    0.160210
    21  C   -0.298338
    22  C   -0.299710
    23  C   -0.475737
    24  H    0.149798
    25  H    0.149444
    26  H    0.152041
    27  H    0.151996
    28  H    0.155194
    29  H    0.155251
    30  H    0.160375
    31  C   -0.298323
    32  C   -0.300811
    33  C   -0.482064
    34  H    0.149952
    35  H    0.149772
    36  H    0.152378
    37  H    0.151689
    38  H    0.154681
    39  H    0.156100
    40  H    0.166363
 Sum of Mulliken charges =  -0.00000

 Dipole moment (field-independent basis, Debye):
    X=             -0.0297    Y=              0.0002    Z=              0.0212  Tot=              0.0365
 Quadrupole moment (field-independent basis, Debye-Ang):
   XX=            -84.4292   YY=            -86.1274   ZZ=            -84.2478
   XY=              0.3020   XZ=             -0.3474   YZ=              0.9696

 Normal termination of Gaussian 16 at Thu May  6 03:52:04 2021.
