 Gaussian 16, Revision A.03,
 Gaussian 16:  EM64L-G16RevA.03 25-Dec-2016

 -------------
 #p 6-31g* mp2
 -------------

 ------------------------------------------------------
 Input file generated by CHIRIPA (05-May-2021 14:55:24)
 ------------------------------------------------------
 Symbolic Z-matrix:
 Charge =  0 Multiplicity = 1

                         Standard orientation:
 ---------------------------------------------------------------------
 Center     Atomic      Atomic             Coordinates (Angstroms)
 Number     Number       Type             X           Y           Z
 ---------------------------------------------------------------------
      1          6           0        3.147471   -2.241572    1.040022
      2          6           0        4.108301   -1.328498    0.593233
      3          6           0        3.725954   -0.183772   -0.112431
      4          6           0        2.367995    0.017434   -0.354825
      5          6           0        1.386957   -0.873717    0.077267
      6          6           0        1.792254   -2.011673    0.781070
      7          1           0        3.453401   -3.128193    1.587476
      8          1           0        5.161494   -1.504465    0.792896
      9          1           0        4.448850    0.539484   -0.469839
     10          1           0        0.344608   -0.671164   -0.136975
     11          1           0        1.043865   -2.719062    1.126845
     12          7           0        1.951073    1.225720   -1.100895
     13          8           0        0.748356    1.380069   -1.301604
     14          8           0        2.834902    1.995547   -1.470828
     15          6           0       -2.757667    0.905387    0.282063
     16          6           0       -2.219865    1.334847    1.647462
     17          6           0       -1.499588    2.682775    1.601798
     18          1           0       -1.925308    0.853913   -0.433111
     19          1           0       -3.444614    1.676729   -0.092811
     20          1           0       -1.535204    0.562275    2.020273
     21          1           0       -3.053572    1.385119    2.359516
     22          1           0       -2.176621    3.469757    1.254111
     23          1           0       -0.649627    2.642237    0.912941
     24          1           0       -1.123232    2.970481    2.588430
     25          6           0       -3.480308   -0.440218    0.311510
     26          6           0       -4.018111   -0.869678   -1.053890
     27          6           0       -4.738387   -2.217606   -1.008227
     28          1           0       -2.793361   -1.211560    0.686382
     29          1           0       -4.312667   -0.388744    1.026683
     30          1           0       -3.184403   -0.919951   -1.765944
     31          1           0       -4.702771   -0.097106   -1.426702
     32          1           0       -5.588349   -2.177068   -0.319370
     33          1           0       -4.061355   -3.004588   -0.660540
     34          1           0       -5.114744   -2.505312   -1.994858
 ---------------------------------------------------------------------

 SCF Done:  E(RHF) =  -669.536287905     A.U. after   15 cycles
 E2 =    -0.2092872927D+01 EUMP2 =    -0.67162916083181D+03

 The electronic state is 1-A.
 Alpha  occ. eigenvalues --  -20.61068 -20.61055 -15.86076 -11.31340 -11.27898
 Alpha  occ. eigenvalues --  -11.27894 -11.27624 -11.26896 -11.26886 -11.21459
 Alpha  occ. eigenvalues --  -11.21264 -11.21204 -11.21049 -11.20812 -11.20279
 Alpha  occ. eigenvalues --   -1.60113  -1.39673  -1.19505  -1.08919  -1.08136
 Alpha  occ. eigenvalues --   -1.04894  -1.03200  -0.95772  -0.95635  -0.86643
 Alpha  occ. eigenvalues --   -0.86297  -0.82614  -0.79289  -0.77949  -0.77632
 Alpha  occ. eigenvalues --   -0.72311  -0.71417  -0.70617  -0.65176  -0.64989
 Alpha  occ. eigenvalues --   -0.64698  -0.62237  -0.60597  -0.59020  -0.57236
 Alpha  occ. eigenvalues --   -0.55401  -0.54929  -0.53226  -0.52983  -0.52338
 Alpha  occ. eigenvalues --   -0.52033  -0.49581  -0.49082  -0.49042  -0.47591
 Alpha  occ. eigenvalues --   -0.46369  -0.45483  -0.45436  -0.44864  -0.43458
 Alpha  occ. eigenvalues --   -0.37478  -0.36488
 Alpha virt. eigenvalues --    0.04815   0.11135   0.16299   0.19489   0.22817
 Alpha virt. eigenvalues --    0.24575   0.26009   0.27196   0.27874   0.28230
 Alpha virt. eigenvalues --    0.29750   0.31139   0.31681   0.32024   0.32258

 Mulliken charges:
               1
     1  C   -0.170134
     2  C   -0.218730
     3  C   -0.170197
     4  C    0.156945
     5  C   -0.172745
     6  C   -0.220294
     7  H    0.226326
     8  H    0.224059
     9  H    0.275913
    10  H    0.281825
    11  H    0.224486
    12  N    0.492269
    13  O   -0.465584
    14  O   -0.457367
    15  C   -0.313499
    16  C   -0.297080
    17  C   -0.483061
    18  H    0.173277
    19  H    0.151625
    20  H    0.140728
    21  H    0.149120
    22  H    0.155048
    23  H    0.173108
    24  H    0.154398
    25  C   -0.296832
    26  C   -0.299682
    27  C   -0.474877
    28  H    0.137015
    29  H    0.149414
    30  H    0.153245
    31  H    0.154684
    32  H    0.155167
    33  H    0.150582
    34  H    0.160849
 Sum of Mulliken charges =  -0.00000

 Dipole moment (field-independent basis, Debye):
    X=              1.6706    Y=             -4.1277    Z=              2.4312  Tot=              5.0734
 Quadrupole moment (field-independent basis, Debye-Ang):
   XX=            -82.6666   YY=            -95.7798   ZZ=            -97.7230
   XY=             -9.9168   XZ=              5.5486   YZ=              1.0136

 Normal termination of Gaussian 16 at Thu May  6 01:34:28 2021.
