 Gaussian 16, Revision A.03,
 Gaussian 16:  EM64L-G16RevA.03 25-Dec-2016

 -------------
 #p 6-31g* mp2
 -------------

 ------------------------------------------------------
 Input file generated by CHIRIPA (05-May-2021 14:53:17)
 ------------------------------------------------------
 Symbolic Z-matrix:
 Charge =  0 Multiplicity = 1

                         Standard orientation:
 ---------------------------------------------------------------------
 Center     Atomic      Atomic             Coordinates (Angstroms)
 Number     Number       Type             X           Y           Z
 ---------------------------------------------------------------------
      1          6           0        3.224042    0.302662   -0.245923
      2          6           0        2.915729    1.733290   -0.688904
      3          6           0        1.423082    2.060197   -0.634760
      4          1           0        2.670082   -0.399417   -0.884013
      5          1           0        2.852278    0.154964    0.777489
      6          1           0        3.289196    1.878667   -1.710669
      7          1           0        3.470636    2.432039   -0.049808
      8          1           0        1.039741    1.942936    0.384014
      9          1           0        0.857270    1.386420   -1.286283
     10          1           0        1.225252    3.087739   -0.955508
     11          6           0        4.712159   -0.039195   -0.294591
     12          6           0        5.020472   -1.469823    0.148390
     13          6           0        6.513119   -1.796729    0.094246
     14          1           0        5.083923    0.108503   -1.318003
     15          1           0        5.266119    0.662885    0.343499
     16          1           0        4.465565   -2.168572   -0.490706
     17          1           0        4.647005   -1.615200    1.170155
     18          1           0        7.078931   -1.122953    0.745769
     19          1           0        6.896460   -1.679469   -0.924528
     20          1           0        6.710949   -2.824272    0.414994
     21          6           0       -1.524757    1.380936    1.508237
     22          6           0       -1.847638    0.109368    1.993401
     23          6           0       -2.719369   -0.721333    1.283072
     24          6           0       -3.252375   -0.246370    0.085740
     25          6           0       -2.949980    1.015487   -0.423735
     26          6           0       -2.075987    1.829147    0.303341
     27          1           0       -0.846695    2.019625    2.066543
     28          1           0       -1.421043   -0.241344    2.928849
     29          1           0       -2.986362   -1.710183    1.635646
     30          1           0       -3.391017    1.337417   -1.359291
     31          1           0       -1.827018    2.816196   -0.075858
     32          7           0       -4.176435   -1.116776   -0.675119
     33          8           0       -4.632687   -0.674966   -1.727391
     34          8           0       -4.426965   -2.224329   -0.204801
 ---------------------------------------------------------------------

 SCF Done:  E(RHF) =  -669.534402822     A.U. after   15 cycles
 E2 =    -0.2092418937D+01 EUMP2 =    -0.67162682175954D+03

 The electronic state is 1-A.
 Alpha  occ. eigenvalues --  -20.60741 -20.60735 -15.85794 -11.31151 -11.27722
 Alpha  occ. eigenvalues --  -11.27703 -11.27451 -11.26742 -11.26704 -11.22151
 Alpha  occ. eigenvalues --  -11.21926 -11.21861 -11.21765 -11.21749 -11.21339
 Alpha  occ. eigenvalues --   -1.59817  -1.39370  -1.19327  -1.08880  -1.08724
 Alpha  occ. eigenvalues --   -1.04728  -1.03989  -0.96463  -0.95561  -0.87492
 Alpha  occ. eigenvalues --   -0.86117  -0.82395  -0.80066  -0.78671  -0.77433
 Alpha  occ. eigenvalues --   -0.72013  -0.71140  -0.70467  -0.65506  -0.64980
 Alpha  occ. eigenvalues --   -0.64728  -0.62074  -0.61392  -0.59833  -0.58071
 Alpha  occ. eigenvalues --   -0.55819  -0.55190  -0.53405  -0.53142  -0.52793
 Alpha  occ. eigenvalues --   -0.52583  -0.50388  -0.48771  -0.48768  -0.48360
 Alpha  occ. eigenvalues --   -0.47085  -0.46217  -0.46133  -0.44778  -0.44249
 Alpha  occ. eigenvalues --   -0.37229  -0.36306
 Alpha virt. eigenvalues --    0.05059   0.11286   0.16444   0.20761   0.22560
 Alpha virt. eigenvalues --    0.24003   0.26054   0.26530   0.26856   0.27592
 Alpha virt. eigenvalues --    0.28809   0.29755   0.31180   0.31677   0.32283

 Mulliken charges:
               1
     1  C   -0.297706
     2  C   -0.300805
     3  C   -0.476569
     4  H    0.152688
     5  H    0.146041
     6  H    0.154402
     7  H    0.150937
     8  H    0.148847
     9  H    0.161112
    10  H    0.155496
    11  C   -0.298621
    12  C   -0.299860
    13  C   -0.475937
    14  H    0.151013
    15  H    0.149216
    16  H    0.153594
    17  H    0.150702
    18  H    0.154965
    19  H    0.156127
    20  H    0.161304
    21  C   -0.170069
    22  C   -0.219745
    23  C   -0.171015
    24  C    0.158558
    25  C   -0.173439
    26  C   -0.211936
    27  H    0.224928
    28  H    0.223057
    29  H    0.275414
    30  H    0.275396
    31  H    0.225038
    32  N    0.488066
    33  O   -0.460592
    34  O   -0.460605
 Sum of Mulliken charges =  -0.00000

 Dipole moment (field-independent basis, Debye):
    X=              3.3231    Y=              3.0266    Z=              2.6339  Tot=              5.2097
 Quadrupole moment (field-independent basis, Debye-Ang):
   XX=           -117.6764   YY=            -94.3036   ZZ=            -91.2891
   XY=            -11.0226   XZ=             -8.1456   YZ=             -2.9343

 Normal termination of Gaussian 16 at Thu May  6 05:57:49 2021.
