 Gaussian 16, Revision A.03,
 Gaussian 16:  EM64L-G16RevA.03 25-Dec-2016

 -------------
 #p 6-31g* mp2
 -------------

 ------------------------------------------------------
 Input file generated by CHIRIPA (05-May-2021 14:55:21)
 ------------------------------------------------------
 Symbolic Z-matrix:
 Charge =  0 Multiplicity = 1

                         Standard orientation:
 ---------------------------------------------------------------------
 Center     Atomic      Atomic             Coordinates (Angstroms)
 Number     Number       Type             X           Y           Z
 ---------------------------------------------------------------------
      1          6           0        4.168129    2.367605   -0.247335
      2          6           0        4.099630    1.466464   -1.314937
      3          6           0        3.546511    0.194951   -1.136436
      4          6           0        3.069256   -0.143831    0.128769
      5          6           0        3.123367    0.731807    1.212106
      6          6           0        3.680638    1.998052    1.010561
      7          1           0        4.599418    3.353301   -0.394950
      8          1           0        4.477441    1.750743   -2.292940
      9          1           0        3.481009   -0.522263   -1.945591
     10          1           0        2.738518    0.419759    2.175400
     11          1           0        3.732528    2.695838    1.841493
     12          7           0        2.481495   -1.487136    0.329938
     13          8           0        2.067980   -1.761404    1.454402
     14          8           0        2.445454   -2.240316   -0.640659
     15          6           0       -3.666562   -0.755947   -0.066152
     16          6           0       -2.195173   -0.630129   -0.462596
     17          6           0       -1.436086   -1.952142   -0.344850
     18          1           0       -3.731215   -1.126863    0.965927
     19          1           0       -4.146707   -1.513337   -0.701144
     20          1           0       -1.718282    0.127790    0.172028
     21          1           0       -2.134013   -0.259287   -1.493786
     22          1           0       -1.885469   -2.713260   -0.990879
     23          1           0       -1.467376   -2.323985    0.684400
     24          1           0       -0.386289   -1.839345   -0.633054
     25          6           0       -4.438719    0.557389   -0.178620
     26          6           0       -5.910109    0.431571    0.217825
     27          6           0       -6.669196    1.753584    0.100078
     28          1           0       -3.958575    1.314780    0.456372
     29          1           0       -4.374067    0.928305   -1.210698
     30          1           0       -5.971268    0.060729    1.249015
     31          1           0       -6.387000   -0.326348   -0.416800
     32          1           0       -6.637907    2.125426   -0.929171
     33          1           0       -6.219812    2.514703    0.746108
     34          1           0       -7.718993    1.640788    0.388283
 ---------------------------------------------------------------------

 SCF Done:  E(RHF) =  -669.535966871     A.U. after   15 cycles
 E2 =    -0.2091370922D+01 EUMP2 =    -0.67162733779297D+03

 The electronic state is 1-A.
 Alpha  occ. eigenvalues --  -20.60921 -20.60910 -15.85930 -11.31270 -11.27835
 Alpha  occ. eigenvalues --  -11.27832 -11.27574 -11.26843 -11.26833 -11.21292
 Alpha  occ. eigenvalues --  -11.21000 -11.20898 -11.20851 -11.20805 -11.19861
 Alpha  occ. eigenvalues --   -1.59973  -1.39528  -1.19439  -1.08842  -1.07933
 Alpha  occ. eigenvalues --   -1.04837  -1.02958  -0.95683  -0.95372  -0.86379
 Alpha  occ. eigenvalues --   -0.86237  -0.82516  -0.79039  -0.77739  -0.77569
 Alpha  occ. eigenvalues --   -0.72155  -0.71310  -0.70548  -0.65094  -0.64840
 Alpha  occ. eigenvalues --   -0.64571  -0.62184  -0.60359  -0.58778  -0.56991
 Alpha  occ. eigenvalues --   -0.55341  -0.54662  -0.53174  -0.52929  -0.52021
 Alpha  occ. eigenvalues --   -0.51802  -0.49325  -0.48921  -0.48897  -0.47346
 Alpha  occ. eigenvalues --   -0.46098  -0.45276  -0.45207  -0.44919  -0.43172
 Alpha  occ. eigenvalues --   -0.37417  -0.36437
 Alpha virt. eigenvalues --    0.04931   0.11216   0.16412   0.21349   0.23318
 Alpha virt. eigenvalues --    0.24900   0.27105   0.27267   0.27933   0.28175
 Alpha virt. eigenvalues --    0.28691   0.30860   0.31967   0.32254   0.32371

 Mulliken charges:
               1
     1  C   -0.170524
     2  C   -0.218519
     3  C   -0.170863
     4  C    0.158606
     5  C   -0.170833
     6  C   -0.218568
     7  H    0.225948
     8  H    0.223794
     9  H    0.275869
    10  H    0.275718
    11  H    0.223726
    12  N    0.486815
    13  O   -0.457679
    14  O   -0.459078
    15  C   -0.297588
    16  C   -0.300395
    17  C   -0.478537
    18  H    0.150176
    19  H    0.149148
    20  H    0.147218
    21  H    0.147566
    22  H    0.151916
    23  H    0.160464
    24  H    0.170604
    25  C   -0.297390
    26  C   -0.299273
    27  C   -0.475307
    28  H    0.147398
    29  H    0.147967
    30  H    0.151967
    31  H    0.151914
    32  H    0.154298
    33  H    0.153973
    34  H    0.159470
 Sum of Mulliken charges =  -0.00000

 Dipole moment (field-independent basis, Debye):
    X=              2.2893    Y=              4.6531    Z=             -0.6628  Tot=              5.2279
 Quadrupole moment (field-independent basis, Debye-Ang):
   XX=            -83.6378   YY=            -97.0846   ZZ=            -89.4312
   XY=             15.1509   XZ=             -2.8051   YZ=              2.1190

 Normal termination of Gaussian 16 at Wed May  5 23:50:10 2021.
