 Gaussian 16, Revision A.03,
 Gaussian 16:  EM64L-G16RevA.03 25-Dec-2016

 -------------
 #p 6-31g* mp2
 -------------

 ------------------------------------------------------
 Input file generated by CHIRIPA (05-May-2021 14:51:12)
 ------------------------------------------------------
 Symbolic Z-matrix:
 Charge =  0 Multiplicity = 1

                         Standard orientation:
 ---------------------------------------------------------------------
 Center     Atomic      Atomic             Coordinates (Angstroms)
 Number     Number       Type             X           Y           Z
 ---------------------------------------------------------------------
      1          6           0       -3.564402   -0.352516    0.360244
      2          6           0       -4.270828   -1.401819   -0.498773
      3          6           0       -4.395781   -2.754152    0.203634
      4          1           0       -2.565163   -0.720941    0.629927
      5          1           0       -4.116319   -0.227880    1.302183
      6          1           0       -3.718517   -1.523434   -1.439400
      7          1           0       -5.268428   -1.030771   -0.766602
      8          1           0       -4.965483   -2.654260    1.133183
      9          1           0       -3.406765   -3.149722    0.456563
     10          1           0       -4.903774   -3.489337   -0.428273
     11          6           0       -3.431868    1.004719   -0.328288
     12          6           0       -2.725442    2.054022    0.530728
     13          6           0       -2.600488    3.406356   -0.171679
     14          1           0       -2.879951    0.880084   -1.270227
     15          1           0       -4.431107    1.373145   -0.597971
     16          1           0       -1.727841    1.682974    0.798557
     17          1           0       -3.277753    2.175637    1.471355
     18          1           0       -3.589504    3.801925   -0.424607
     19          1           0       -2.030786    3.306463   -1.101228
     20          1           0       -2.092495    4.141540    0.460229
     21          6           0        2.777999   -0.071971   -0.031914
     22          6           0        1.738736   -1.193425   -0.015877
     23          6           0        0.302793   -0.669190   -0.048111
     24          1           0        2.608078    0.589098    0.828935
     25          1           0        2.630908    0.541943   -0.931285
     26          1           0        1.888624   -1.805865    0.882492
     27          1           0        1.911271   -1.852010   -0.876757
     28          1           0        0.129753   -0.075127   -0.951298
     29          1           0        0.106977   -0.028720    0.817947
     30          1           0       -0.423753   -1.487630   -0.035997
     31          6           0        4.218271   -0.580232   -0.000042
     32          6           0        5.257533    0.541222   -0.016078
     33          6           0        6.693476    0.016986    0.016155
     34          1           0        4.365362   -1.194146    0.899330
     35          1           0        4.388192   -1.241301   -0.860891
     36          1           0        5.084999    1.199806    0.844801
     37          1           0        5.107645    1.153662   -0.914447
     38          1           0        6.889292   -0.623483   -0.849902
     39          1           0        6.866517   -0.577077    0.919342
     40          1           0        7.420023    0.835427    0.004041
 ---------------------------------------------------------------------

 SCF Done:  E(RHF) =  -470.732405078     A.U. after   11 cycles
 E2 =    -0.1583870724D+01 EUMP2 =    -0.47231627580125D+03

 The electronic state is 1-A.
 Alpha  occ. eigenvalues --  -11.21695 -11.21641 -11.21514 -11.21471 -11.21466
 Alpha  occ. eigenvalues --  -11.21408 -11.21262 -11.21218 -11.21167 -11.21102
 Alpha  occ. eigenvalues --  -11.21033 -11.20994  -1.08505  -1.08309  -1.03613
 Alpha  occ. eigenvalues --   -1.03439  -0.96085  -0.95877  -0.87102  -0.86906
 Alpha  occ. eigenvalues --   -0.79702  -0.79502  -0.78326  -0.78100  -0.65133
 Alpha  occ. eigenvalues --   -0.64958  -0.61015  -0.60876  -0.59449  -0.59250
 Alpha  occ. eigenvalues --   -0.57680  -0.57490  -0.55362  -0.55196  -0.52809
 Alpha  occ. eigenvalues --   -0.52614  -0.52486  -0.52284  -0.50030  -0.49828
 Alpha  occ. eigenvalues --   -0.48077  -0.47750  -0.46768  -0.46492  -0.45933
 Alpha  occ. eigenvalues --   -0.45786  -0.45634  -0.45450  -0.43774  -0.43667
 Alpha virt. eigenvalues --    0.20936   0.22950   0.23603   0.24501   0.25718
 Alpha virt. eigenvalues --    0.26312   0.27380   0.27403   0.27842   0.29383
 Alpha virt. eigenvalues --    0.29884   0.31022   0.31827   0.32085   0.32305

 Mulliken charges:
               1
     1  C   -0.306133
     2  C   -0.299647
     3  C   -0.475618
     4  H    0.159900
     5  H    0.148298
     6  H    0.151502
     7  H    0.151613
     8  H    0.155245
     9  H    0.154034
    10  H    0.160027
    11  C   -0.297068
    12  C   -0.305102
    13  C   -0.475230
    14  H    0.149395
    15  H    0.148869
    16  H    0.157861
    17  H    0.151022
    18  H    0.154837
    19  H    0.154635
    20  H    0.159627
    21  C   -0.298755
    22  C   -0.300168
    23  C   -0.480486
    24  H    0.149801
    25  H    0.149612
    26  H    0.152421
    27  H    0.152245
    28  H    0.156225
    29  H    0.158284
    30  H    0.162082
    31  C   -0.298363
    32  C   -0.299688
    33  C   -0.475749
    34  H    0.149691
    35  H    0.149782
    36  H    0.152069
    37  H    0.152020
    38  H    0.155233
    39  H    0.155257
    40  H    0.160420
 Sum of Mulliken charges =  -0.00000

 Dipole moment (field-independent basis, Debye):
    X=              0.0858    Y=             -0.0202    Z=              0.0066  Tot=              0.0884
 Quadrupole moment (field-independent basis, Debye-Ang):
   XX=            -85.4574   YY=            -85.9783   ZZ=            -83.7240
   XY=             -0.1571   XZ=             -0.3233   YZ=              0.5297

 Normal termination of Gaussian 16 at Wed May  5 18:19:59 2021.
