 Gaussian 16, Revision A.03,
 Gaussian 16:  EM64L-G16RevA.03 25-Dec-2016

 -------------
 #p 6-31g* mp2
 -------------

 ------------------------------------------------------
 Input file generated by CHIRIPA (05-May-2021 14:57:25)
 ------------------------------------------------------
 Symbolic Z-matrix:
 Charge =  0 Multiplicity = 1

                         Standard orientation:
 ---------------------------------------------------------------------
 Center     Atomic      Atomic             Coordinates (Angstroms)
 Number     Number       Type             X           Y           Z
 ---------------------------------------------------------------------
      1          6           0        4.106916    2.397052    0.556684
      2          6           0        4.184754    1.349921    1.480794
      3          6           0        3.750515    0.066153    1.137392
      4          6           0        3.241626   -0.135883   -0.144600
      5          6           0        3.151153    0.886897   -1.087481
      6          6           0        3.591273    2.162611   -0.722249
      7          1           0        4.446528    3.391186    0.831927
      8          1           0        4.584760    1.529073    2.474748
      9          1           0        3.799374   -0.762592    1.833246
     10          1           0        2.747673    0.677568   -2.070743
     11          1           0        3.529628    2.973931   -1.441975
     12          7           0        2.778804   -1.490688   -0.519700
     13          8           0        2.334470   -1.642730   -1.655520
     14          8           0        2.869142   -2.374889    0.329220
     15          6           0       -1.212938   -1.450101    0.362233
     16          6           0       -1.499040   -0.848169   -0.867540
     17          6           0       -2.662420   -0.090900   -1.033799
     18          6           0       -3.521405    0.044336    0.055762
     19          6           0       -3.264118   -0.543073    1.293520
     20          6           0       -2.094835   -1.295904    1.436943
     21          1           0       -0.306904   -2.036643    0.482517
     22          1           0       -0.815967   -0.966219   -1.703913
     23          1           0       -2.908408    0.385960   -1.974816
     24          1           0       -3.964208   -0.407469    2.108935
     25          1           0       -1.875212   -1.762236    2.393158
     26          7           0       -4.756148    0.843673   -0.108162
     27          8           0       -5.496731    0.947681    0.867214
     28          8           0       -4.959975    1.351051   -1.208915
 ---------------------------------------------------------------------

 SCF Done:  E(RHF) =  -868.340679725     A.U. after   16 cycles
 E2 =    -0.2599182826D+01 EUMP2 =    -0.87093986255136D+03

 The electronic state is 1-A.
 Alpha  occ. eigenvalues --  -20.62103 -20.62079 -20.60403 -20.60397 -15.87090
 Alpha  occ. eigenvalues --  -15.85449 -11.32065 -11.30662 -11.28590 -11.28586
 Alpha  occ. eigenvalues --  -11.28234 -11.27501 -11.27488 -11.27227 -11.27184
 Alpha  occ. eigenvalues --  -11.26752 -11.26173 -11.26030  -1.61159  -1.59482
 Alpha  occ. eigenvalues --   -1.40716  -1.39040  -1.20199  -1.18797  -1.09664
 Alpha  occ. eigenvalues --   -1.08190  -1.05540  -1.04175  -0.96561  -0.95060
 Alpha  occ. eigenvalues --   -0.86957  -0.85555  -0.83407  -0.81903  -0.78506
 Alpha  occ. eigenvalues --   -0.76997  -0.73305  -0.72501  -0.71667  -0.71295
 Alpha  occ. eigenvalues --   -0.70805  -0.69797  -0.65851  -0.65532  -0.64426
 Alpha  occ. eigenvalues --   -0.64126  -0.62895  -0.61519  -0.56043  -0.54564
 Alpha  occ. eigenvalues --   -0.53883  -0.53624  -0.52524  -0.52233  -0.50092
 Alpha  occ. eigenvalues --   -0.50033  -0.48436  -0.48412  -0.46185  -0.44481
 Alpha  occ. eigenvalues --   -0.38147  -0.37122  -0.36737  -0.35800
 Alpha virt. eigenvalues --    0.03932   0.05523   0.10530   0.11865   0.15499
 Alpha virt. eigenvalues --    0.17070   0.20663   0.22221   0.26602   0.27296
 Alpha virt. eigenvalues --    0.28187   0.28904   0.30531   0.31153   0.32296

 Mulliken charges:
               1
     1  C   -0.168940
     2  C   -0.218174
     3  C   -0.170910
     4  C    0.157291
     5  C   -0.170272
     6  C   -0.217865
     7  H    0.229399
     8  H    0.226216
     9  H    0.275356
    10  H    0.274537
    11  H    0.226940
    12  N    0.486320
    13  O   -0.463682
    14  O   -0.460975
    15  C   -0.180821
    16  C   -0.225149
    17  C   -0.172789
    18  C    0.157844
    19  C   -0.172506
    20  C   -0.219723
    21  H    0.240926
    22  H    0.235246
    23  H    0.272908
    24  H    0.273014
    25  H    0.222361
    26  N    0.488141
    27  O   -0.462323
    28  O   -0.462370
 Sum of Mulliken charges =  -0.00000

 Dipole moment (field-independent basis, Debye):
    X=              6.4387    Y=              2.0397    Z=              1.9063  Tot=              7.0179
 Quadrupole moment (field-independent basis, Debye-Ang):
   XX=           -125.8039   YY=           -106.4789   ZZ=            -96.6058
   XY=             26.1392   XZ=              2.5234   YZ=             -3.7318

 Normal termination of Gaussian 16 at Fri May  7 11:12:17 2021.
