 Gaussian 16, Revision A.03,
 Gaussian 16:  EM64L-G16RevA.03 25-Dec-2016

 -------------
 #p 6-31g* mp2
 -------------

 ------------------------------------------------------
 Input file generated by CHIRIPA (05-May-2021 14:57:21)
 ------------------------------------------------------
 Symbolic Z-matrix:
 Charge =  0 Multiplicity = 1

                         Standard orientation:
 ---------------------------------------------------------------------
 Center     Atomic      Atomic             Coordinates (Angstroms)
 Number     Number       Type             X           Y           Z
 ---------------------------------------------------------------------
      1          6           0       -3.001116   -2.429980   -0.085105
      2          6           0       -3.906069   -1.860104   -0.986672
      3          6           0       -4.129516   -0.480034   -0.991612
      4          6           0       -3.427744    0.303921   -0.077160
      5          6           0       -2.519673   -0.234120    0.833449
      6          6           0       -2.312021   -1.616603    0.820481
      7          1           0       -2.833672   -3.502989   -0.088223
      8          1           0       -4.442636   -2.489339   -1.691090
      9          1           0       -4.824415   -0.012612   -1.678672
     10          1           0       -1.999620    0.418894    1.523765
     11          1           0       -1.608627   -2.056426    1.521793
     12          7           0       -3.655937    1.766217   -0.072911
     13          8           0       -3.025159    2.435132    0.742754
     14          8           0       -4.461251    2.215760   -0.885326
     15          6           0        1.452950   -0.685297    1.569799
     16          6           0        1.442446   -1.051100    0.219762
     17          6           0        2.510381   -0.711585   -0.616174
     18          6           0        3.577415   -0.002747   -0.066374
     19          6           0        3.617150    0.376038    1.274608
     20          6           0        2.538356    0.025851    2.091993
     21          1           0        0.619134   -0.953186    2.211970
     22          1           0        0.600836   -1.603414   -0.188510
     23          1           0        2.528077   -0.982134   -1.664939
     24          1           0        4.470125    0.926318    1.652819
     25          1           0        2.549220    0.311263    3.140070
     26          7           0        4.713739    0.362332   -0.941523
     27          8           0        5.641963    0.987067   -0.432855
     28          8           0        4.654649    0.016833   -2.119562
 ---------------------------------------------------------------------

 SCF Done:  E(RHF) =  -868.336281584     A.U. after   16 cycles
 E2 =    -0.2601404856D+01 EUMP2 =    -0.87093768644007D+03

 The electronic state is 1-A.
 Alpha  occ. eigenvalues --  -20.61425 -20.61416 -20.60953 -20.60947 -15.86488
 Alpha  occ. eigenvalues --  -15.86007 -11.32064 -11.31482 -11.28762 -11.28633
 Alpha  occ. eigenvalues --  -11.28490 -11.28036 -11.28022 -11.27948 -11.27865
 Alpha  occ. eigenvalues --  -11.27650 -11.27127 -11.27109  -1.60494  -1.60023
 Alpha  occ. eigenvalues --   -1.40042  -1.39574  -1.20289  -1.19664  -1.09638
 Alpha  occ. eigenvalues --   -1.09076  -1.05745  -1.05067  -0.96426  -0.95893
 Alpha  occ. eigenvalues --   -0.87127  -0.86481  -0.83278  -0.82705  -0.78290
 Alpha  occ. eigenvalues --   -0.77702  -0.72702  -0.72228  -0.71820  -0.71386
 Alpha  occ. eigenvalues --   -0.71344  -0.70879  -0.65943  -0.65822  -0.65323
 Alpha  occ. eigenvalues --   -0.65060  -0.63072  -0.62397  -0.56220  -0.55686
 Alpha  occ. eigenvalues --   -0.54074  -0.53838  -0.53387  -0.53129  -0.49478
 Alpha  occ. eigenvalues --   -0.49442  -0.48995  -0.48973  -0.45401  -0.44955
 Alpha  occ. eigenvalues --   -0.38270  -0.37787  -0.37272  -0.36617
 Alpha virt. eigenvalues --    0.04265   0.04803   0.10183   0.10982   0.15644
 Alpha virt. eigenvalues --    0.16198   0.18400   0.22107   0.24724   0.26674
 Alpha virt. eigenvalues --    0.27658   0.29111   0.29927   0.31341   0.32119

 Mulliken charges:
               1
     1  C   -0.172635
     2  C   -0.218334
     3  C   -0.168484
     4  C    0.158940
     5  C   -0.168029
     6  C   -0.227975
     7  H    0.228408
     8  H    0.227407
     9  H    0.279446
    10  H    0.274827
    11  H    0.217986
    12  N    0.488281
    13  O   -0.458821
    14  O   -0.457189
    15  C   -0.175504
    16  C   -0.218283
    17  C   -0.170655
    18  C    0.160117
    19  C   -0.170243
    20  C   -0.216342
    21  H    0.214995
    22  H    0.223445
    23  H    0.276498
    24  H    0.277405
    25  H    0.225169
    26  N    0.487979
    27  O   -0.458842
    28  O   -0.459568
 Sum of Mulliken charges =  -0.00000

 Dipole moment (field-independent basis, Debye):
    X=             -3.3338    Y=             -6.2841    Z=              2.8835  Tot=              7.6758
 Quadrupole moment (field-independent basis, Debye-Ang):
   XX=           -135.1037   YY=           -108.1560   ZZ=           -100.0925
   XY=             15.1013   XZ=             16.6160   YZ=              3.1970

 Normal termination of Gaussian 16 at Thu May  6 08:05:50 2021.
