 Gaussian 16, Revision A.03,
 Gaussian 16:  EM64L-G16RevA.03 25-Dec-2016

 -------------
 #p 6-31g* mp2
 -------------

 ------------------------------------------------------
 Input file generated by CHIRIPA (05-May-2021 14:53:18)
 ------------------------------------------------------
 Symbolic Z-matrix:
 Charge =  0 Multiplicity = 1

                         Standard orientation:
 ---------------------------------------------------------------------
 Center     Atomic      Atomic             Coordinates (Angstroms)
 Number     Number       Type             X           Y           Z
 ---------------------------------------------------------------------
      1          6           0        2.557901   -0.414068    0.778401
      2          6           0        1.690848    0.339412    1.787595
      3          6           0        0.497524   -0.484151    2.272894
      4          1           0        1.938939   -0.706843   -0.080734
      5          1           0        2.916574   -1.345858    1.237223
      6          1           0        1.335050    1.270173    1.327477
      7          1           0        2.311990    0.630593    2.644340
      8          1           0        0.836742   -1.406017    2.756314
      9          1           0       -0.145749   -0.762804    1.431969
     10          1           0       -0.108709    0.073566    2.993514
     11          6           0        3.754862    0.396193    0.283944
     12          6           0        4.621915   -0.357287   -0.725250
     13          6           0        5.815240    0.466276   -1.210550
     14          1           0        3.396190    1.327983   -0.174878
     15          1           0        4.373825    0.688968    1.143079
     16          1           0        4.000773   -0.648468   -1.581995
     17          1           0        4.977713   -1.288047   -0.265133
     18          1           0        6.458512    0.744929   -0.369625
     19          1           0        5.476021    1.388142   -1.693969
     20          1           0        6.421473   -0.091441   -1.931170
     21          6           0       -2.783775    2.503434   -0.234360
     22          6           0       -3.743832    1.635362    0.295982
     23          6           0       -3.578102    0.250377    0.201656
     24          6           0       -2.435195   -0.234366   -0.432440
     25          6           0       -1.460846    0.604772   -0.970754
     26          6           0       -1.647349    1.986280   -0.864924
     27          1           0       -2.920586    3.577973   -0.156618
     28          1           0       -4.627380    2.034169    0.786227
     29          1           0       -4.305621   -0.444371    0.603477
     30          1           0       -0.590468    0.177487   -1.453753
     31          1           0       -0.900109    2.658056   -1.277713
     32          7           0       -2.248747   -1.698746   -0.538387
     33          8           0       -1.233075   -2.100702   -1.101840
     34          8           0       -3.121813   -2.416846   -0.055970
 ---------------------------------------------------------------------

 SCF Done:  E(RHF) =  -669.535322527     A.U. after   15 cycles
 E2 =    -0.2093498627D+01 EUMP2 =    -0.67162882115397D+03

 The electronic state is 1-A.
 Alpha  occ. eigenvalues --  -20.60896 -20.60887 -15.85917 -11.31249 -11.27841
 Alpha  occ. eigenvalues --  -11.27824 -11.27571 -11.26853 -11.26832 -11.21546
 Alpha  occ. eigenvalues --  -11.21545 -11.21386 -11.21225 -11.21071 -11.20830
 Alpha  occ. eigenvalues --   -1.59953  -1.39509  -1.19441  -1.08841  -1.08367
 Alpha  occ. eigenvalues --   -1.04841  -1.03451  -0.95895  -0.95675  -0.86911
 Alpha  occ. eigenvalues --   -0.86241  -0.82509  -0.79519  -0.78168  -0.77559
 Alpha  occ. eigenvalues --   -0.72143  -0.71293  -0.70550  -0.65096  -0.65036
 Alpha  occ. eigenvalues --   -0.64824  -0.62194  -0.60866  -0.59259  -0.57499
 Alpha  occ. eigenvalues --   -0.55345  -0.55240  -0.53140  -0.52933  -0.52581
 Alpha  occ. eigenvalues --   -0.52292  -0.49835  -0.48912  -0.48898  -0.47830
 Alpha  occ. eigenvalues --   -0.46579  -0.45719  -0.45666  -0.44832  -0.43710
 Alpha  occ. eigenvalues --   -0.37379  -0.36420
 Alpha virt. eigenvalues --    0.04936   0.11141   0.16421   0.20595   0.22854
 Alpha virt. eigenvalues --    0.24249   0.25877   0.26995   0.27570   0.27984
 Alpha virt. eigenvalues --    0.29066   0.30647   0.31385   0.31833   0.32004

 Mulliken charges:
               1
     1  C   -0.301742
     2  C   -0.299698
     3  C   -0.475818
     4  H    0.154611
     5  H    0.153564
     6  H    0.144522
     7  H    0.151327
     8  H    0.158800
     9  H    0.156388
    10  H    0.156916
    11  C   -0.297413
    12  C   -0.299679
    13  C   -0.475459
    14  H    0.143033
    15  H    0.149610
    16  H    0.152896
    17  H    0.154362
    18  H    0.155041
    19  H    0.152677
    20  H    0.161127
    21  C   -0.170573
    22  C   -0.218395
    23  C   -0.170490
    24  C    0.156511
    25  C   -0.172740
    26  C   -0.218017
    27  H    0.226008
    28  H    0.223809
    29  H    0.276011
    30  H    0.276749
    31  H    0.223771
    32  N    0.490908
    33  O   -0.460336
    34  O   -0.458282
 Sum of Mulliken charges =  -0.00000

 Dipole moment (field-independent basis, Debye):
    X=             -0.7482    Y=              5.0486    Z=              0.3678  Tot=              5.1169
 Quadrupole moment (field-independent basis, Debye-Ang):
   XX=            -88.2859   YY=            -97.6915   ZZ=            -94.2976
   XY=            -12.8420   XZ=             -2.2058   YZ=             -2.9143

 Normal termination of Gaussian 16 at Thu May  6 15:40:50 2021.
