 Gaussian 16, Revision A.03,
 Gaussian 16:  EM64L-G16RevA.03 25-Dec-2016

 -------------
 #p 6-31g* mp2
 -------------

 ------------------------------------------------------
 Input file generated by CHIRIPA (05-May-2021 14:55:21)
 ------------------------------------------------------
 Symbolic Z-matrix:
 Charge =  0 Multiplicity = 1

                         Standard orientation:
 ---------------------------------------------------------------------
 Center     Atomic      Atomic             Coordinates (Angstroms)
 Number     Number       Type             X           Y           Z
 ---------------------------------------------------------------------
      1          6           0        4.525869   -0.019790   -1.135105
      2          6           0        3.806817   -1.209494   -1.290314
      3          6           0        2.661806   -1.451984   -0.525660
      4          6           0        2.262470   -0.478682    0.388947
      5          6           0        2.957615    0.716519    0.566588
      6          6           0        4.099724    0.937732   -0.208783
      7          1           0        5.414214    0.160318   -1.733270
      8          1           0        4.135432   -1.954903   -2.008939
      9          1           0        2.086378   -2.364304   -0.625519
     10          1           0        2.605434    1.440772    1.291050
     11          1           0        4.656182    1.862585   -0.086118
     12          7           0        1.051835   -0.724133    1.204125
     13          8           0        0.720789    0.149226    2.003055
     14          8           0        0.456907   -1.785228    1.028695
     15          6           0       -3.344534   -0.135069   -0.574268
     16          6           0       -4.675331   -0.632795   -0.009262
     17          6           0       -5.048152   -2.026575   -0.515399
     18          1           0       -3.399874   -0.125634   -1.671443
     19          1           0       -2.551533   -0.847343   -0.307413
     20          1           0       -5.465349    0.080915   -0.275922
     21          1           0       -4.616882   -0.640864    1.086700
     22          1           0       -4.280642   -2.755773   -0.236470
     23          1           0       -5.133930   -2.029893   -1.606835
     24          1           0       -6.002852   -2.362811   -0.099039
     25          6           0       -2.958181    1.256936   -0.077497
     26          6           0       -1.627384    1.754662   -0.642502
     27          6           0       -1.254562    3.148442   -0.136366
     28          1           0       -3.751182    1.969210   -0.344351
     29          1           0       -2.902841    1.247501    1.019678
     30          1           0       -1.685832    1.762731   -1.738465
     31          1           0       -0.837366    1.040952   -0.375842
     32          1           0       -1.168785    3.151760    0.955071
     33          1           0       -2.022073    3.877639   -0.415294
     34          1           0       -0.299863    3.484677   -0.552725
 ---------------------------------------------------------------------

 SCF Done:  E(RHF) =  -669.536398293     A.U. after   15 cycles
 E2 =    -0.2092083375D+01 EUMP2 =    -0.67162848166773D+03

 The electronic state is 1-A.
 Alpha  occ. eigenvalues --  -20.61003 -20.60996 -15.86015 -11.31301 -11.27860
 Alpha  occ. eigenvalues --  -11.27856 -11.27594 -11.26858 -11.26848 -11.20869
 Alpha  occ. eigenvalues --  -11.20718 -11.20453 -11.20448 -11.20354 -11.20281
 Alpha  occ. eigenvalues --   -1.60061  -1.39614  -1.19466  -1.08881  -1.07532
 Alpha  occ. eigenvalues --   -1.04855  -1.02728  -0.95729  -0.95175  -0.86259
 Alpha  occ. eigenvalues --   -0.86202  -0.82562  -0.78809  -0.77621  -0.77347
 Alpha  occ. eigenvalues --   -0.72243  -0.71395  -0.70575  -0.65122  -0.64859
 Alpha  occ. eigenvalues --   -0.64119  -0.62203  -0.60104  -0.58569  -0.56804
 Alpha  occ. eigenvalues --   -0.55364  -0.54435  -0.53187  -0.52947  -0.51928
 Alpha  occ. eigenvalues --   -0.51618  -0.49117  -0.49007  -0.48988  -0.47143
 Alpha  occ. eigenvalues --   -0.45857  -0.44966  -0.44891  -0.44757  -0.42961
 Alpha  occ. eigenvalues --   -0.37443  -0.36452
 Alpha virt. eigenvalues --    0.04881   0.11190   0.16354   0.21293   0.23689
 Alpha virt. eigenvalues --    0.24936   0.27241   0.27281   0.28201   0.28291
 Alpha virt. eigenvalues --    0.28782   0.30928   0.32016   0.32446   0.32555

 Mulliken charges:
               1
     1  C   -0.170337
     2  C   -0.218617
     3  C   -0.170541
     4  C    0.156307
     5  C   -0.170779
     6  C   -0.218679
     7  H    0.226082
     8  H    0.223900
     9  H    0.275888
    10  H    0.276414
    11  H    0.223975
    12  N    0.488400
    13  O   -0.458410
    14  O   -0.459618
    15  C   -0.303274
    16  C   -0.298990
    17  C   -0.476123
    18  H    0.143292
    19  H    0.163480
    20  H    0.147807
    21  H    0.155333
    22  H    0.159156
    23  H    0.151514
    24  H    0.157455
    25  C   -0.298129
    26  C   -0.296624
    27  C   -0.476128
    28  H    0.144482
    29  H    0.158753
    30  H    0.146196
    31  H    0.150957
    32  H    0.162813
    33  H    0.152395
    34  H    0.151649
 Sum of Mulliken charges =  -0.00000

 Dipole moment (field-independent basis, Debye):
    X=              4.4447    Y=              0.7524    Z=             -2.6971  Tot=              5.2532
 Quadrupole moment (field-independent basis, Debye-Ang):
   XX=            -76.4281   YY=            -93.0013   ZZ=            -96.1887
   XY=              0.0635   XZ=             -4.9875   YZ=              3.6700

 Normal termination of Gaussian 16 at Wed May  5 22:13:27 2021.
