 Gaussian 16, Revision A.03,
 Gaussian 16:  EM64L-G16RevA.03 25-Dec-2016

 -------------
 #p 6-31g* mp2
 -------------

 ------------------------------------------------------
 Input file generated by CHIRIPA (05-May-2021 14:51:08)
 ------------------------------------------------------
 Symbolic Z-matrix:
 Charge =  0 Multiplicity = 1

                         Standard orientation:
 ---------------------------------------------------------------------
 Center     Atomic      Atomic             Coordinates (Angstroms)
 Number     Number       Type             X           Y           Z
 ---------------------------------------------------------------------
      1          6           0        2.294512   -0.073192   -0.310102
      2          6           0        3.508326   -0.639656   -1.047501
      3          6           0        3.315305   -2.095633   -1.472551
      4          1           0        2.089982   -0.691015    0.575001
      5          1           0        1.410590   -0.152899   -0.957963
      6          1           0        4.389967   -0.557637   -0.398966
      7          1           0        3.710106   -0.020299   -1.930846
      8          1           0        2.452710   -2.190991   -2.139962
      9          1           0        3.136434   -2.731382   -0.599378
     10          1           0        4.194932   -2.480468   -1.997925
     11          6           0        2.472285    1.381475    0.121255
     12          6           0        1.258470    1.947940    0.858655
     13          6           0        1.451491    3.403917    1.283704
     14          1           0        3.356206    1.461182    0.769116
     15          1           0        2.676814    1.999299   -0.763848
     16          1           0        1.056690    1.328583    1.741999
     17          1           0        0.376829    1.865921    0.210119
     18          1           0        1.630362    4.039665    0.410532
     19          1           0        2.314086    3.499274    1.951116
     20          1           0        0.571864    3.788751    1.809078
     21          6           0       -2.318611   -1.374390    0.340345
     22          6           0       -1.022871   -1.638820    1.107886
     23          6           0       -0.907822   -3.084100    1.593399
     24          1           0       -3.174895   -1.615384    0.985050
     25          1           0       -2.372984   -2.056431   -0.519456
     26          1           0       -0.970298   -0.955538    1.965193
     27          1           0       -0.169572   -1.396986    0.461344
     28          1           0       -0.934673   -3.778089    0.747079
     29          1           0       -1.739947   -3.334132    2.259473
     30          1           0        0.025843   -3.251032    2.139533
     31          6           0       -2.448185    0.066106   -0.151499
     32          6           0       -3.743926    0.330537   -0.919039
     33          6           0       -3.858974    1.775817   -1.404552
     34          1           0       -2.393812    0.748147    0.708303
     35          1           0       -1.591901    0.307100   -0.796203
     36          1           0       -4.597224    0.088703   -0.272498
     37          1           0       -3.796499   -0.352746   -1.776346
     38          1           0       -3.026849    2.025848   -2.070625
     39          1           0       -3.832123    2.469807   -0.558232
     40          1           0       -4.792640    1.942749   -1.950686
 ---------------------------------------------------------------------

 SCF Done:  E(RHF) =  -470.732091716     A.U. after   11 cycles
 E2 =    -0.1585068270D+01 EUMP2 =    -0.47231715998627D+03

 The electronic state is 1-A.
 Alpha  occ. eigenvalues --  -11.21636 -11.21596 -11.21526 -11.21422 -11.21397
 Alpha  occ. eigenvalues --  -11.21366 -11.21358 -11.21291 -11.21119 -11.21084
 Alpha  occ. eigenvalues --  -11.21040 -11.21002  -1.08487  -1.08349  -1.03537
 Alpha  occ. eigenvalues --   -1.03477  -0.96001  -0.95939  -0.87022  -0.86947
 Alpha  occ. eigenvalues --   -0.79663  -0.79523  -0.78590  -0.77875  -0.65123
 Alpha  occ. eigenvalues --   -0.64983  -0.60936  -0.60890  -0.59368  -0.59314
 Alpha  occ. eigenvalues --   -0.57679  -0.57482  -0.55295  -0.55224  -0.52710
 Alpha  occ. eigenvalues --   -0.52610  -0.52471  -0.52338  -0.49940  -0.49886
 Alpha  occ. eigenvalues --   -0.48080  -0.47819  -0.46813  -0.46599  -0.46333
 Alpha  occ. eigenvalues --   -0.45723  -0.45594  -0.44838  -0.43791  -0.43717
 Alpha virt. eigenvalues --    0.21112   0.22995   0.23525   0.24059   0.24697
 Alpha virt. eigenvalues --    0.26111   0.26869   0.27837   0.28595   0.30534
 Alpha virt. eigenvalues --    0.30626   0.31028   0.31645   0.31757   0.31970

 Mulliken charges:
               1
     1  C   -0.304222
     2  C   -0.298550
     3  C   -0.476452
     4  H    0.154323
     5  H    0.150419
     6  H    0.152136
     7  H    0.151830
     8  H    0.154584
     9  H    0.155568
    10  H    0.160783
    11  C   -0.297653
    12  C   -0.305182
    13  C   -0.475557
    14  H    0.149319
    15  H    0.149199
    16  H    0.153215
    17  H    0.157885
    18  H    0.154924
    19  H    0.154795
    20  H    0.159951
    21  C   -0.297661
    22  C   -0.310017
    23  C   -0.475452
    24  H    0.148988
    25  H    0.148675
    26  H    0.151022
    27  H    0.165537
    28  H    0.154940
    29  H    0.154684
    30  H    0.158697
    31  C   -0.301618
    32  C   -0.299404
    33  C   -0.475747
    34  H    0.150842
    35  H    0.151203
    36  H    0.152149
    37  H    0.151706
    38  H    0.154464
    39  H    0.155270
    40  H    0.160405
 Sum of Mulliken charges =  -0.00000

 Dipole moment (field-independent basis, Debye):
    X=              0.0372    Y=              0.0135    Z=             -0.0114  Tot=              0.0412
 Quadrupole moment (field-independent basis, Debye-Ang):
   XX=            -84.5163   YY=            -86.9074   ZZ=            -83.6046
   XY=             -0.1096   XZ=             -0.1299   YZ=              0.0292

 Normal termination of Gaussian 16 at Wed May  5 21:19:26 2021.
