 Gaussian 16, Revision A.03,
 Gaussian 16:  EM64L-G16RevA.03 25-Dec-2016

 -------------
 #p 6-31g* mp2
 -------------

 ------------------------------------------------------
 Input file generated by CHIRIPA (05-May-2021 14:51:11)
 ------------------------------------------------------
 Symbolic Z-matrix:
 Charge =  0 Multiplicity = 1

                         Standard orientation:
 ---------------------------------------------------------------------
 Center     Atomic      Atomic             Coordinates (Angstroms)
 Number     Number       Type             X           Y           Z
 ---------------------------------------------------------------------
      1          6           0       -2.896435    1.329082   -0.336885
      2          6           0       -2.052868    2.292937    0.498198
      3          6           0       -1.821404    3.633254   -0.200208
      4          1           0       -2.400587    1.160162   -1.302569
      5          1           0       -3.864188    1.799066   -0.560413
      6          1           0       -1.087528    1.820728    0.721254
      7          1           0       -2.550686    2.459433    1.462082
      8          1           0       -2.775122    4.128838   -0.408583
      9          1           0       -1.303651    3.486504   -1.153621
     10          1           0       -1.216158    4.306940    0.414352
     11          6           0       -3.136503   -0.015202    0.347948
     12          6           0       -3.980070   -0.979057   -0.487135
     13          6           0       -4.211534   -2.319373    0.211270
     14          1           0       -2.168750   -0.485185    0.571475
     15          1           0       -3.632351    0.153719    1.313632
     16          1           0       -3.482253   -1.145552   -1.451019
     17          1           0       -4.945410   -0.506847   -0.710191
     18          1           0       -4.729287   -2.172624    1.164684
     19          1           0       -3.257817   -2.814958    0.419646
     20          1           0       -4.816780   -2.993060   -0.403289
     21          6           0        2.622084   -1.303181   -0.106852
     22          6           0        1.122314   -1.144069    0.144859
     23          6           0        0.346858   -2.445503   -0.061853
     24          1           0        2.778907   -1.666276   -1.131798
     25          1           0        3.019117   -2.078078    0.563442
     26          1           0        0.728495   -0.368727   -0.524745
     27          1           0        0.969053   -0.781128    1.169261
     28          1           0        0.712113   -3.223455    0.616366
     29          1           0        0.470188   -2.808711   -1.087265
     30          1           0       -0.723160   -2.309008    0.123324
     31          6           0        3.410854   -0.010700    0.095789
     32          6           0        4.910624   -0.169812   -0.155921
     33          6           0        5.686080    1.131623    0.050790
     34          1           0        3.013822    0.764197   -0.574506
     35          1           0        3.254032    0.352395    1.120735
     36          1           0        5.063885   -0.532753   -1.180325
     37          1           0        5.304443   -0.945153    0.513682
     38          1           0        5.562750    1.494830    1.076202
     39          1           0        5.320826    1.909575   -0.627428
     40          1           0        6.756098    0.995128   -0.134387
 ---------------------------------------------------------------------

 SCF Done:  E(RHF) =  -470.733037979     A.U. after   11 cycles
 E2 =    -0.1583811410D+01 EUMP2 =    -0.47231684938945D+03

 The electronic state is 1-A.
 Alpha  occ. eigenvalues --  -11.21708 -11.21639 -11.21586 -11.21557 -11.21470
 Alpha  occ. eigenvalues --  -11.21406 -11.21372 -11.21309 -11.21147 -11.21097
 Alpha  occ. eigenvalues --  -11.21064 -11.21049  -1.08503  -1.08401  -1.03603
 Alpha  occ. eigenvalues --   -1.03507  -0.96047  -0.95958  -0.87065  -0.86975
 Alpha  occ. eigenvalues --   -0.79674  -0.79557  -0.78331  -0.78203  -0.65152
 Alpha  occ. eigenvalues --   -0.65057  -0.60990  -0.60955  -0.59455  -0.59270
 Alpha  occ. eigenvalues --   -0.57667  -0.57559  -0.55325  -0.55250  -0.52764
 Alpha  occ. eigenvalues --   -0.52647  -0.52497  -0.52368  -0.49984  -0.49901
 Alpha  occ. eigenvalues --   -0.48071  -0.47808  -0.46691  -0.46585  -0.45895
 Alpha  occ. eigenvalues --   -0.45776  -0.45735  -0.45598  -0.43821  -0.43759
 Alpha virt. eigenvalues --    0.20065   0.22928   0.23287   0.24691   0.26059
 Alpha virt. eigenvalues --    0.26499   0.27133   0.27321   0.27823   0.29484
 Alpha virt. eigenvalues --    0.30169   0.31283   0.31722   0.31910   0.32549

 Mulliken charges:
               1
     1  C   -0.297296
     2  C   -0.302314
     3  C   -0.475508
     4  H    0.149078
     5  H    0.149403
     6  H    0.154907
     7  H    0.151678
     8  H    0.155059
     9  H    0.154688
    10  H    0.160242
    11  C   -0.306518
    12  C   -0.299514
    13  C   -0.479555
    14  H    0.157543
    15  H    0.149533
    16  H    0.152089
    17  H    0.152136
    18  H    0.155302
    19  H    0.157957
    20  H    0.160577
    21  C   -0.298677
    22  C   -0.301272
    23  C   -0.485415
    24  H    0.149924
    25  H    0.150001
    26  H    0.152813
    27  H    0.152737
    28  H    0.156032
    29  H    0.155723
    30  H    0.168085
    31  C   -0.298392
    32  C   -0.299702
    33  C   -0.475761
    34  H    0.149534
    35  H    0.149837
    36  H    0.152012
    37  H    0.152056
    38  H    0.155289
    39  H    0.155295
    40  H    0.160394
 Sum of Mulliken charges =  -0.00000

 Dipole moment (field-independent basis, Debye):
    X=              0.0357    Y=             -0.0168    Z=              0.0088  Tot=              0.0404
 Quadrupole moment (field-independent basis, Debye-Ang):
   XX=            -84.5929   YY=            -86.3965   ZZ=            -83.7593
   XY=             -1.1916   XZ=             -0.2156   YZ=              0.2126

 Normal termination of Gaussian 16 at Wed May  5 19:51:29 2021.
