 Gaussian 16, Revision A.03,
 Gaussian 16:  EM64L-G16RevA.03 25-Dec-2016

 -------------
 #p 6-31g* mp2
 -------------

 ------------------------------------------------------
 Input file generated by CHIRIPA (05-May-2021 14:53:16)
 ------------------------------------------------------
 Symbolic Z-matrix:
 Charge =  0 Multiplicity = 1

                         Standard orientation:
 ---------------------------------------------------------------------
 Center     Atomic      Atomic             Coordinates (Angstroms)
 Number     Number       Type             X           Y           Z
 ---------------------------------------------------------------------
      1          6           0        3.298031   -0.391509   -0.593589
      2          6           0        4.470020   -0.807598    0.295960
      3          6           0        4.972118   -2.219084   -0.009653
      4          1           0        2.476595   -1.109909   -0.466742
      5          1           0        3.606404   -0.452028   -1.646508
      6          1           0        4.159959   -0.744985    1.346940
      7          1           0        5.288690   -0.088017    0.167126
      8          1           0        5.307900   -2.291873   -1.049149
      9          1           0        4.172756   -2.952573    0.137368
     10          1           0        5.810004   -2.496080    0.637712
     11          6           0        2.784962    1.017150   -0.300045
     12          6           0        1.612974    1.433238   -1.189594
     13          6           0        1.110875    2.844724   -0.883980
     14          1           0        2.476590    1.077668    0.752875
     15          1           0        3.606398    1.735549   -0.426891
     16          1           0        0.794303    0.713657   -1.060759
     17          1           0        1.923034    1.370625   -2.240573
     18          1           0        1.910237    3.578214   -1.031001
     19          1           0        0.775093    2.917513    0.155516
     20          1           0        0.272990    3.121720   -1.531345
     21          6           0       -3.775832   -1.383611   -1.414172
     22          6           0       -3.740837    0.012873   -1.342560
     23          6           0       -2.968807    0.654804   -0.369709
     24          6           0       -2.240855   -0.134255    0.519540
     25          6           0       -2.255151   -1.527448    0.473730
     26          6           0       -3.034184   -2.147967   -0.507399
     27          1           0       -4.378284   -1.873963   -2.173122
     28          1           0       -4.315796    0.609025   -2.045461
     29          1           0       -2.923565    1.734290   -0.291733
     30          1           0       -1.671313   -2.094911    1.188248
     31          1           0       -3.059458   -3.232666   -0.560651
     32          7           0       -1.419834    0.533995    1.553835
     33          8           0       -0.787534   -0.183804    2.325585
     34          8           0       -1.424164    1.762915    1.573180
 ---------------------------------------------------------------------

 SCF Done:  E(RHF) =  -669.536404745     A.U. after   15 cycles
 E2 =    -0.2092290494D+01 EUMP2 =    -0.67162869523929D+03

 The electronic state is 1-A.
 Alpha  occ. eigenvalues --  -20.60992 -20.60978 -15.86010 -11.31315 -11.27869
 Alpha  occ. eigenvalues --  -11.27860 -11.27595 -11.26864 -11.26853 -11.21094
 Alpha  occ. eigenvalues --  -11.21020 -11.20861 -11.20707 -11.20661 -11.20162
 Alpha  occ. eigenvalues --   -1.60045  -1.39600  -1.19473  -1.08882  -1.07837
 Alpha  occ. eigenvalues --   -1.04861  -1.02945  -0.95730  -0.95372  -0.86390
 Alpha  occ. eigenvalues --   -0.86264  -0.82560  -0.79019  -0.77651  -0.77615
 Alpha  occ. eigenvalues --   -0.72235  -0.71373  -0.70576  -0.65128  -0.64863
 Alpha  occ. eigenvalues --   -0.64451  -0.62208  -0.60326  -0.58773  -0.57003
 Alpha  occ. eigenvalues --   -0.55367  -0.54638  -0.53196  -0.52953  -0.52095
 Alpha  occ. eigenvalues --   -0.51801  -0.49308  -0.48998  -0.48983  -0.47335
 Alpha  occ. eigenvalues --   -0.46073  -0.45214  -0.45122  -0.44878  -0.43203
 Alpha  occ. eigenvalues --   -0.37437  -0.36457
 Alpha virt. eigenvalues --    0.04880   0.11180   0.16345   0.21274   0.23281
 Alpha virt. eigenvalues --    0.24654   0.27030   0.27192   0.28020   0.28109
 Alpha virt. eigenvalues --    0.28838   0.30966   0.31822   0.32019   0.32417

 Mulliken charges:
               1
     1  C   -0.296722
     2  C   -0.300219
     3  C   -0.475152
     4  H    0.147567
     5  H    0.145943
     6  H    0.156751
     7  H    0.150956
     8  H    0.153100
     9  H    0.153507
    10  H    0.159528
    11  C   -0.301345
    12  C   -0.298263
    13  C   -0.483134
    14  H    0.161802
    15  H    0.147832
    16  H    0.143711
    17  H    0.147309
    18  H    0.150980
    19  H    0.179671
    20  H    0.150617
    21  C   -0.170319
    22  C   -0.218434
    23  C   -0.170686
    24  C    0.158445
    25  C   -0.171493
    26  C   -0.218421
    27  H    0.226154
    28  H    0.224035
    29  H    0.276741
    30  H    0.275696
    31  H    0.223931
    32  N    0.488919
    33  O   -0.460053
    34  O   -0.458953
 Sum of Mulliken charges =  -0.00000

 Dipole moment (field-independent basis, Debye):
    X=             -3.0456    Y=             -2.3227    Z=             -3.4389  Tot=              5.1475
 Quadrupole moment (field-independent basis, Debye-Ang):
   XX=            -81.9769   YY=            -91.1856   ZZ=            -98.3612
   XY=              5.1756   XZ=              7.5191   YZ=             -2.4932

 Normal termination of Gaussian 16 at Thu May  6 13:53:49 2021.
