 Gaussian 16, Revision A.03,
 Gaussian 16:  EM64L-G16RevA.03 25-Dec-2016

 -------------
 #p 6-31g* mp2
 -------------

 ------------------------------------------------------
 Input file generated by CHIRIPA (05-May-2021 14:51:13)
 ------------------------------------------------------
 Symbolic Z-matrix:
 Charge =  0 Multiplicity = 1

                         Standard orientation:
 ---------------------------------------------------------------------
 Center     Atomic      Atomic             Coordinates (Angstroms)
 Number     Number       Type             X           Y           Z
 ---------------------------------------------------------------------
      1          6           0        3.465253   -0.505624   -0.068216
      2          6           0        2.383538    0.215666    0.736530
      3          6           0        0.974070   -0.276286    0.406110
      4          1           0        3.269083   -0.367531   -1.140313
      5          1           0        3.397908   -1.585156    0.125354
      6          1           0        2.453792    1.293655    0.542569
      7          1           0        2.582414    0.076001    1.806837
      8          1           0        0.880294   -1.346506    0.616906
      9          1           0        0.750941   -0.121933   -0.654546
     10          1           0        0.216431    0.252683    0.992655
     11          6           0        4.879690   -0.024789    0.250991
     12          6           0        5.961406   -0.746079   -0.553755
     13          6           0        7.370874   -0.254127   -0.223335
     14          1           0        4.947036    1.054744    0.057421
     15          1           0        5.075861   -0.162882    1.323088
     16          1           0        5.762530   -0.606413   -1.624062
     17          1           0        5.891151   -1.824068   -0.359794
     18          1           0        7.594002   -0.408480    0.837321
     19          1           0        7.464650    0.816093   -0.434131
     20          1           0        8.128513   -0.783096   -0.809880
     21          6           0       -4.330315   -0.481803   -0.069129
     22          6           0       -5.828986   -0.785052   -0.065810
     23          6           0       -6.128778   -2.283691   -0.021089
     24          1           0       -3.864539   -0.976286   -0.932543
     25          1           0       -3.872303   -0.921699    0.827593
     26          1           0       -6.284270   -0.343528   -0.961572
     27          1           0       -6.291280   -0.289631    0.797589
     28          1           0       -5.701179   -2.735379    0.879877
     29          1           0       -5.694130   -2.789583   -0.889279
     30          1           0       -7.205900   -2.477765   -0.019434
     31          6           0       -4.014629    1.012215   -0.113645
     32          6           0       -2.515958    1.315465   -0.116965
     33          6           0       -2.216166    2.814104   -0.161687
     34          1           0       -4.472640    1.452112   -1.010369
     35          1           0       -4.480405    1.506699    0.749768
     36          1           0       -2.053663    0.820044   -0.980364
     37          1           0       -2.060673    0.873942    0.778796
     38          1           0       -2.650814    3.319996    0.706504
     39          1           0       -2.643764    3.265792   -1.062651
     40          1           0       -1.139044    3.008177   -0.163340
 ---------------------------------------------------------------------

 SCF Done:  E(RHF) =  -470.732852139     A.U. after   11 cycles
 E2 =    -0.1582724390D+01 EUMP2 =    -0.47231557652883D+03

 The electronic state is 1-A.
 Alpha  occ. eigenvalues --  -11.21593 -11.21572 -11.21571 -11.21522 -11.21389
 Alpha  occ. eigenvalues --  -11.21360 -11.21330 -11.21300 -11.21065 -11.21047
 Alpha  occ. eigenvalues --  -11.21046 -11.20985  -1.08418  -1.08384  -1.03539
 Alpha  occ. eigenvalues --   -1.03464  -0.95989  -0.95914  -0.87002  -0.86936
 Alpha  occ. eigenvalues --   -0.79683  -0.79455  -0.78248  -0.78173  -0.65047
 Alpha  occ. eigenvalues --   -0.65024  -0.60931  -0.60893  -0.59522  -0.59148
 Alpha  occ. eigenvalues --   -0.57668  -0.57445  -0.55248  -0.55223  -0.52724
 Alpha  occ. eigenvalues --   -0.52586  -0.52388  -0.52358  -0.49917  -0.49869
 Alpha  occ. eigenvalues --   -0.47932  -0.47833  -0.46636  -0.46548  -0.45797
 Alpha  occ. eigenvalues --   -0.45733  -0.45689  -0.45643  -0.43795  -0.43641
 Alpha virt. eigenvalues --    0.21856   0.23047   0.23505   0.25101   0.25999
 Alpha virt. eigenvalues --    0.26534   0.26839   0.27484   0.27915   0.29044
 Alpha virt. eigenvalues --    0.29842   0.31024   0.31418   0.31979   0.32125

 Mulliken charges:
               1
     1  C   -0.298529
     2  C   -0.299680
     3  C   -0.479116
     4  H    0.149485
     5  H    0.149473
     6  H    0.151410
     7  H    0.151550
     8  H    0.154524
     9  H    0.155418
    10  H    0.165675
    11  C   -0.298195
    12  C   -0.299605
    13  C   -0.475686
    14  H    0.149456
    15  H    0.149588
    16  H    0.151890
    17  H    0.151900
    18  H    0.155157
    19  H    0.155166
    20  H    0.160213
    21  C   -0.298155
    22  C   -0.299598
    23  C   -0.475661
    24  H    0.149762
    25  H    0.149540
    26  H    0.151820
    27  H    0.151805
    28  H    0.155143
    29  H    0.155168
    30  H    0.160117
    31  C   -0.298003
    32  C   -0.301589
    33  C   -0.476947
    34  H    0.149115
    35  H    0.149191
    36  H    0.153475
    37  H    0.154181
    38  H    0.154841
    39  H    0.155115
    40  H    0.160589
 Sum of Mulliken charges =  -0.00000

 Dipole moment (field-independent basis, Debye):
    X=             -0.0050    Y=             -0.0074    Z=             -0.0003  Tot=              0.0089
 Quadrupole moment (field-independent basis, Debye-Ang):
   XX=            -86.3178   YY=            -85.5066   ZZ=            -83.1825
   XY=             -0.6900   XZ=             -0.0816   YZ=             -0.5037

 Normal termination of Gaussian 16 at Thu May  6 05:33:08 2021.
