 Gaussian 16, Revision A.03,
 Gaussian 16:  EM64L-G16RevA.03 25-Dec-2016

 -------------
 #p 6-31g* mp2
 -------------

 ------------------------------------------------------
 Input file generated by CHIRIPA (05-May-2021 14:51:13)
 ------------------------------------------------------
 Symbolic Z-matrix:
 Charge =  0 Multiplicity = 1

                         Standard orientation:
 ---------------------------------------------------------------------
 Center     Atomic      Atomic             Coordinates (Angstroms)
 Number     Number       Type             X           Y           Z
 ---------------------------------------------------------------------
      1          6           0       -5.478026    0.067855    0.099763
      2          6           0       -6.128826   -1.285209   -0.189480
      3          6           0       -7.559868   -1.378309    0.340844
      4          1           0       -5.480993    0.244690    1.184044
      5          1           0       -6.088656    0.863876   -0.348430
      6          1           0       -5.516411   -2.078542    0.257942
      7          1           0       -6.124136   -1.458930   -1.273185
      8          1           0       -8.190294   -0.607612   -0.114337
      9          1           0       -7.579116   -1.230745    1.425489
     10          1           0       -8.006010   -2.353730    0.123193
     11          6           0       -4.047172    0.176273   -0.424288
     12          6           0       -3.396373    1.529337   -0.135045
     13          6           0       -1.965330    1.622437   -0.665369
     14          1           0       -3.436542   -0.619748    0.023905
     15          1           0       -4.044205   -0.000563   -1.508569
     16          1           0       -3.401062    1.703058    0.948660
     17          1           0       -4.008787    2.322670   -0.582467
     18          1           0       -1.946083    1.474873   -1.750014
     19          1           0       -1.334905    0.851740   -0.210188
     20          1           0       -1.519189    2.597858   -0.447718
     21          6           0        5.291726   -0.589421   -0.129344
     22          6           0        6.716653   -0.051583    0.005927
     23          6           0        7.763948   -0.997745   -0.582073
     24          1           0        5.226457   -1.566265    0.369114
     25          1           0        5.072979   -0.765364   -1.191695
     26          1           0        6.932164    0.124600    1.067592
     27          1           0        6.778487    0.924182   -0.492746
     28          1           0        7.576809   -1.165186   -1.647692
     29          1           0        7.731358   -1.969312   -0.078489
     30          1           0        8.775413   -0.593694   -0.474638
     31          6           0        4.233473    0.345293    0.453870
     32          6           0        2.808545   -0.192544    0.318598
     33          6           0        1.761250    0.753617    0.906598
     34          1           0        4.452219    0.521236    1.516220
     35          1           0        4.298741    1.322138   -0.044589
     36          1           0        2.746711   -1.168309    0.817271
     37          1           0        2.593035   -0.368727   -0.743066
     38          1           0        1.793841    1.725184    0.403014
     39          1           0        1.948389    0.921058    1.972217
     40          1           0        0.749785    0.349566    0.799163
 ---------------------------------------------------------------------

 SCF Done:  E(RHF) =  -470.733124810     A.U. after   11 cycles
 E2 =    -0.1582196703D+01 EUMP2 =    -0.47231532151334D+03

 The electronic state is 1-A.
 Alpha  occ. eigenvalues --  -11.21594 -11.21589 -11.21573 -11.21569 -11.21393
 Alpha  occ. eigenvalues --  -11.21386 -11.21333 -11.21327 -11.21065 -11.21061
 Alpha  occ. eigenvalues --  -11.21018 -11.21007  -1.08417  -1.08407  -1.03527
 Alpha  occ. eigenvalues --   -1.03490  -0.96002  -0.95915  -0.87046  -0.86905
 Alpha  occ. eigenvalues --   -0.79625  -0.79518  -0.78232  -0.78219  -0.65053
 Alpha  occ. eigenvalues --   -0.65035  -0.60953  -0.60884  -0.59346  -0.59324
 Alpha  occ. eigenvalues --   -0.57657  -0.57495  -0.55308  -0.55194  -0.52798
 Alpha  occ. eigenvalues --   -0.52602  -0.52424  -0.52255  -0.49946  -0.49822
 Alpha  occ. eigenvalues --   -0.47962  -0.47811  -0.46633  -0.46568  -0.45771
 Alpha  occ. eigenvalues --   -0.45763  -0.45699  -0.45685  -0.43785  -0.43706
 Alpha virt. eigenvalues --    0.22216   0.22984   0.23542   0.24797   0.26376
 Alpha virt. eigenvalues --    0.26647   0.27050   0.27430   0.27653   0.28936
 Alpha virt. eigenvalues --    0.29736   0.31236   0.31744   0.31873   0.32195

 Mulliken charges:
               1
     1  C   -0.298267
     2  C   -0.299644
     3  C   -0.475699
     4  H    0.149667
     5  H    0.149540
     6  H    0.151884
     7  H    0.151910
     8  H    0.155177
     9  H    0.155179
    10  H    0.160217
    11  C   -0.298280
    12  C   -0.299620
    13  C   -0.479684
    14  H    0.149142
    15  H    0.149598
    16  H    0.151999
    17  H    0.151716
    18  H    0.154622
    19  H    0.159745
    20  H    0.160573
    21  C   -0.298240
    22  C   -0.299629
    23  C   -0.475690
    24  H    0.149551
    25  H    0.149561
    26  H    0.151877
    27  H    0.151950
    28  H    0.155184
    29  H    0.155137
    30  H    0.160208
    31  C   -0.298529
    32  C   -0.299492
    33  C   -0.479400
    34  H    0.149411
    35  H    0.149721
    36  H    0.151465
    37  H    0.152277
    38  H    0.156011
    39  H    0.154580
    40  H    0.164274
 Sum of Mulliken charges =  -0.00000

 Dipole moment (field-independent basis, Debye):
    X=              0.0033    Y=              0.0079    Z=             -0.0012  Tot=              0.0086
 Quadrupole moment (field-independent basis, Debye-Ang):
   XX=            -86.6388   YY=            -84.8319   ZZ=            -83.4108
   XY=              0.1196   XZ=              1.0456   YZ=             -0.9107

 Normal termination of Gaussian 16 at Thu May  6 05:34:22 2021.
