 Gaussian 16, Revision A.03,
 Gaussian 16:  EM64L-G16RevA.03 25-Dec-2016

 -------------
 #p 6-31g* mp2
 -------------

 ------------------------------------------------------
 Input file generated by CHIRIPA (05-May-2021 14:55:21)
 ------------------------------------------------------
 Symbolic Z-matrix:
 Charge =  0 Multiplicity = 1

                         Standard orientation:
 ---------------------------------------------------------------------
 Center     Atomic      Atomic             Coordinates (Angstroms)
 Number     Number       Type             X           Y           Z
 ---------------------------------------------------------------------
      1          6           0        4.488085    1.433718    0.003764
      2          6           0        3.166567    1.808096   -0.260720
      3          6           0        2.149017    0.849764   -0.287940
      4          6           0        2.490099   -0.479903   -0.045167
      5          6           0        3.797319   -0.884226    0.221268
      6          6           0        4.798696    0.091119    0.243491
      7          1           0        5.272261    2.184782    0.022969
      8          1           0        2.922419    2.850037   -0.447259
      9          1           0        1.117612    1.111957   -0.490117
     10          1           0        4.009890   -1.930679    0.403391
     11          1           0        5.824131   -0.202524    0.449164
     12          7           0        1.421425   -1.503451   -0.071339
     13          8           0        1.747929   -2.668309    0.145776
     14          8           0        0.277531   -1.121470   -0.308472
     15          6           0       -2.908543    0.967041    0.128266
     16          6           0       -3.539315    2.355519    0.017616
     17          6           0       -2.517911    3.482811    0.171699
     18          1           0       -2.404442    0.876696    1.100205
     19          1           0       -2.128792    0.863986   -0.639042
     20          1           0       -4.318594    2.455422    0.784010
     21          1           0       -4.042136    2.442502   -0.954093
     22          1           0       -1.745724    3.411294   -0.601098
     23          1           0       -2.023752    3.424287    1.146881
     24          1           0       -2.990312    4.466629    0.089246
     25          6           0       -3.917003   -0.170345   -0.023682
     26          6           0       -3.286232   -1.558823    0.086968
     27          6           0       -4.307636   -2.686115   -0.067114
     28          1           0       -4.696756   -0.067289    0.743625
     29          1           0       -4.421105   -0.080000   -0.995620
     30          1           0       -2.783411   -1.645806    1.058678
     31          1           0       -2.506953   -1.658726   -0.679426
     32          1           0       -4.801795   -2.627590   -1.042298
     33          1           0       -5.079823   -2.614598    0.705682
     34          1           0       -3.835235   -3.669933    0.015338
 ---------------------------------------------------------------------

 SCF Done:  E(RHF) =  -669.535916729     A.U. after   15 cycles
 E2 =    -0.2091896275D+01 EUMP2 =    -0.67162781300338D+03

 The electronic state is 1-A.
 Alpha  occ. eigenvalues --  -20.60914 -20.60907 -15.85947 -11.31263 -11.27829
 Alpha  occ. eigenvalues --  -11.27818 -11.27566 -11.26835 -11.26822 -11.21154
 Alpha  occ. eigenvalues --  -11.20985 -11.20558 -11.20377 -11.20028 -11.19876
 Alpha  occ. eigenvalues --   -1.59977  -1.39533  -1.19433  -1.08839  -1.07549
 Alpha  occ. eigenvalues --   -1.04827  -1.02679  -0.95682  -0.95204  -0.86242
 Alpha  occ. eigenvalues --   -0.86223  -0.82520  -0.78769  -0.77620  -0.77172
 Alpha  occ. eigenvalues --   -0.72162  -0.71291  -0.70541  -0.65090  -0.64830
 Alpha  occ. eigenvalues --   -0.64192  -0.62174  -0.60086  -0.58620  -0.56752
 Alpha  occ. eigenvalues --   -0.55333  -0.54528  -0.53162  -0.52919  -0.51932
 Alpha  occ. eigenvalues --   -0.51620  -0.49223  -0.48948  -0.48925  -0.47034
 Alpha  occ. eigenvalues --   -0.45796  -0.45040  -0.44691  -0.44606  -0.42916
 Alpha  occ. eigenvalues --   -0.37414  -0.36429
 Alpha virt. eigenvalues --    0.04954   0.11225   0.16450   0.20728   0.23224
 Alpha virt. eigenvalues --    0.24747   0.26280   0.27535   0.27796   0.28664
 Alpha virt. eigenvalues --    0.29361   0.31122   0.31799   0.32334   0.32585

 Mulliken charges:
               1
     1  C   -0.170517
     2  C   -0.219089
     3  C   -0.171833
     4  C    0.157132
     5  C   -0.170459
     6  C   -0.218735
     7  H    0.225922
     8  H    0.224291
     9  H    0.277716
    10  H    0.275677
    11  H    0.223661
    12  N    0.493175
    13  O   -0.459459
    14  O   -0.464342
    15  C   -0.298466
    16  C   -0.298930
    17  C   -0.474604
    18  H    0.149135
    19  H    0.155929
    20  H    0.151156
    21  H    0.150814
    22  H    0.147461
    23  H    0.153340
    24  H    0.159196
    25  C   -0.299212
    26  C   -0.300536
    27  C   -0.476343
    28  H    0.144358
    29  H    0.145284
    30  H    0.153245
    31  H    0.173816
    32  H    0.150244
    33  H    0.149029
    34  H    0.161946
 Sum of Mulliken charges =  -0.00000

 Dipole moment (field-independent basis, Debye):
    X=              4.0242    Y=              3.4485    Z=              0.0670  Tot=              5.3001
 Quadrupole moment (field-independent basis, Debye-Ang):
   XX=            -75.5541   YY=            -97.3697   ZZ=            -94.4733
   XY=              4.1214   XZ=              0.7686   YZ=             -1.1053

 Normal termination of Gaussian 16 at Wed May  5 18:59:17 2021.
