 Gaussian 16, Revision A.03,
 Gaussian 16:  EM64L-G16RevA.03 25-Dec-2016

 -------------
 #p 6-31g* mp2
 -------------

 ------------------------------------------------------
 Input file generated by CHIRIPA (05-May-2021 14:57:24)
 ------------------------------------------------------
 Symbolic Z-matrix:
 Charge =  0 Multiplicity = 1

                         Standard orientation:
 ---------------------------------------------------------------------
 Center     Atomic      Atomic             Coordinates (Angstroms)
 Number     Number       Type             X           Y           Z
 ---------------------------------------------------------------------
      1          6           0        4.541545   -1.014251   -1.495791
      2          6           0        4.558116    0.327207   -1.099889
      3          6           0        3.661654    0.793473   -0.133711
      4          6           0        2.758042   -0.113230    0.418254
      5          6           0        2.716854   -1.455626    0.044671
      6          6           0        3.622586   -1.899825   -0.923257
      7          1           0        5.241539   -1.367886   -2.247021
      8          1           0        5.270685    1.017210   -1.542819
      9          1           0        3.652709    1.826805    0.191193
     10          1           0        1.994866   -2.119693    0.504200
     11          1           0        3.607434   -2.942161   -1.228790
     12          7           0        1.804091    0.368704    1.442030
     13          8           0        1.017855   -0.450164    1.913119
     14          8           0        1.860682    1.556187    1.753990
     15          6           0       -4.216427   -1.903150    0.280091
     16          6           0       -3.408501   -1.314752    1.258643
     17          6           0       -2.683118   -0.153427    0.976345
     18          6           0       -2.789473    0.395273   -0.300724
     19          6           0       -3.585841   -0.167443   -1.296937
     20          6           0       -4.302366   -1.328630   -0.992333
     21          1           0       -4.776481   -2.805241    0.508051
     22          1           0       -3.339841   -1.758739    2.247687
     23          1           0       -2.050071    0.322843    1.715152
     24          1           0       -3.634080    0.298250   -2.273780
     25          1           0       -4.929018   -1.783412   -1.754256
     26          7           0       -2.026232    1.624642   -0.611388
     27          8           0       -2.136988    2.088542   -1.744158
     28          8           0       -1.331698    2.101045    0.283765
 ---------------------------------------------------------------------

 SCF Done:  E(RHF) =  -868.338476233     A.U. after   16 cycles
 E2 =    -0.2599988922D+01 EUMP2 =    -0.87093846515459D+03

 The electronic state is 1-A.
 Alpha  occ. eigenvalues --  -20.60474 -20.60345 -20.59984 -20.59919 -15.85445
 Alpha  occ. eigenvalues --  -15.84995 -11.30850 -11.30353 -11.27471 -11.27382
 Alpha  occ. eigenvalues --  -11.27197 -11.27048 -11.26790 -11.26783 -11.26492
 Alpha  occ. eigenvalues --  -11.26430 -11.26065 -11.25913  -1.59448  -1.59043
 Alpha  occ. eigenvalues --   -1.39011  -1.38585  -1.19028  -1.18566  -1.08419
 Alpha  occ. eigenvalues --   -1.07983  -1.04443  -1.03952  -0.95251  -0.94795
 Alpha  occ. eigenvalues --   -0.85841  -0.85359  -0.82090  -0.81613  -0.77122
 Alpha  occ. eigenvalues --   -0.76640  -0.71691  -0.71243  -0.70748  -0.70330
 Alpha  occ. eigenvalues --   -0.70150  -0.69675  -0.64691  -0.64458  -0.64214
 Alpha  occ. eigenvalues --   -0.63963  -0.61794  -0.61266  -0.54957  -0.54510
 Alpha  occ. eigenvalues --   -0.52763  -0.52544  -0.52318  -0.52038  -0.48463
 Alpha  occ. eigenvalues --   -0.48408  -0.48003  -0.47939  -0.44406  -0.43980
 Alpha  occ. eigenvalues --   -0.37012  -0.36604  -0.36044  -0.35550
 Alpha virt. eigenvalues --    0.05386   0.05889   0.11610   0.12088   0.16893
 Alpha virt. eigenvalues --    0.17319   0.21694   0.22208   0.27601   0.28115
 Alpha virt. eigenvalues --    0.28594   0.29189   0.31221   0.31705   0.32848

 Mulliken charges:
               1
     1  C   -0.170833
     2  C   -0.218398
     3  C   -0.168120
     4  C    0.159726
     5  C   -0.171601
     6  C   -0.218541
     7  H    0.224448
     8  H    0.223672
     9  H    0.278719
    10  H    0.272002
    11  H    0.221096
    12  N    0.491653
    13  O   -0.474124
    14  O   -0.447595
    15  C   -0.171754
    16  C   -0.221281
    17  C   -0.167464
    18  C    0.152959
    19  C   -0.172416
    20  C   -0.220313
    21  H    0.222094
    22  H    0.224514
    23  H    0.293065
    24  H    0.272130
    25  H    0.219271
    26  N    0.485936
    27  O   -0.467673
    28  O   -0.451170
 Sum of Mulliken charges =  -0.00000

 Dipole moment (field-independent basis, Debye):
    X=              0.9331    Y=             -5.7418    Z=             -2.2649  Tot=              6.2425
 Quadrupole moment (field-independent basis, Debye-Ang):
   XX=            -72.0166   YY=           -104.5279   ZZ=           -105.1853
   XY=              8.4209   XZ=             -9.8058   YZ=              1.4507

 Normal termination of Gaussian 16 at Fri May  7 03:26:58 2021.
