 Gaussian 16, Revision A.03,
 Gaussian 16:  EM64L-G16RevA.03 25-Dec-2016

 -------------
 #p 6-31g* mp2
 -------------

 ------------------------------------------------------
 Input file generated by CHIRIPA (05-May-2021 14:53:13)
 ------------------------------------------------------
 Symbolic Z-matrix:
 Charge =  0 Multiplicity = 1

                         Standard orientation:
 ---------------------------------------------------------------------
 Center     Atomic      Atomic             Coordinates (Angstroms)
 Number     Number       Type             X           Y           Z
 ---------------------------------------------------------------------
      1          6           0        3.706967    0.371006    0.523445
      2          6           0        2.408388   -0.398565    0.767244
      3          6           0        1.283191    0.492501    1.294241
      4          1           0        4.024039    0.848777    1.460539
      5          1           0        3.515196    1.182694   -0.191943
      6          1           0        2.602863   -1.209420    1.480903
      7          1           0        2.094472   -0.874717   -0.170494
      8          1           0        1.060457    1.293530    0.581961
      9          1           0        1.571736    0.956926    2.242741
     10          1           0        0.364248   -0.077955    1.461523
     11          6           0        4.841218   -0.506204   -0.003531
     12          6           0        6.139797    0.263368   -0.247330
     13          6           0        7.264994   -0.627699   -0.774327
     14          1           0        5.032989   -1.317892    0.711858
     15          1           0        4.524146   -0.983974   -0.940625
     16          1           0        6.453713    0.739520    0.690408
     17          1           0        5.945322    1.074223   -0.960989
     18          1           0        6.976449   -1.092123   -1.722827
     19          1           0        7.487728   -1.428728   -0.062047
     20          1           0        8.183937   -0.057242   -0.941609
     21          6           0       -4.353086   -2.247056    0.016988
     22          6           0       -5.127770   -1.112439    0.279725
     23          6           0       -4.576418    0.166803    0.160991
     24          6           0       -3.241110    0.275154   -0.224368
     25          6           0       -2.443504   -0.836125   -0.493018
     26          6           0       -3.015784   -2.105528   -0.367866
     27          1           0       -4.789518   -3.236980    0.111715
     28          1           0       -6.166607   -1.219331    0.578785
     29          1           0       -5.153414    1.062099    0.358325
     30          1           0       -1.410787   -0.697743   -0.789266
     31          1           0       -2.411772   -2.984913   -0.572548
     32          7           0       -2.646341    1.624222   -0.353463
     33          8           0       -1.467529    1.692809   -0.694543
     34          8           0       -3.370235    2.587491   -0.111123
 ---------------------------------------------------------------------

 SCF Done:  E(RHF) =  -669.535857452     A.U. after   15 cycles
 E2 =    -0.2091467780D+01 EUMP2 =    -0.67162732523147D+03

 The electronic state is 1-A.
 Alpha  occ. eigenvalues --  -20.60842 -20.60832 -15.85878 -11.31229 -11.27793
 Alpha  occ. eigenvalues --  -11.27783 -11.27536 -11.26811 -11.26800 -11.21362
 Alpha  occ. eigenvalues --  -11.21257 -11.21131 -11.21000 -11.20893 -11.20322
 Alpha  occ. eigenvalues --   -1.59903  -1.39458  -1.19399  -1.08798  -1.08112
 Alpha  occ. eigenvalues --   -1.04799  -1.03180  -0.95669  -0.95567  -0.86610
 Alpha  occ. eigenvalues --   -0.86196  -0.82471  -0.79251  -0.77933  -0.77513
 Alpha  occ. eigenvalues --   -0.72111  -0.71218  -0.70507  -0.65057  -0.64810
 Alpha  occ. eigenvalues --   -0.64731  -0.62152  -0.60561  -0.59003  -0.57236
 Alpha  occ. eigenvalues --   -0.55302  -0.54855  -0.53134  -0.52899  -0.52295
 Alpha  occ. eigenvalues --   -0.52012  -0.49531  -0.48863  -0.48832  -0.47559
 Alpha  occ. eigenvalues --   -0.46296  -0.45476  -0.45406  -0.44789  -0.43434
 Alpha  occ. eigenvalues --   -0.37377  -0.36398
 Alpha virt. eigenvalues --    0.04989   0.11189   0.16473   0.20959   0.23084
 Alpha virt. eigenvalues --    0.24175   0.26675   0.27268   0.27761   0.27980
 Alpha virt. eigenvalues --    0.29095   0.30952   0.31661   0.31886   0.32134

 Mulliken charges:
               1
     1  C   -0.298505
     2  C   -0.299766
     3  C   -0.480615
     4  H    0.149824
     5  H    0.153805
     6  H    0.147478
     7  H    0.145089
     8  H    0.180528
     9  H    0.152493
    10  H    0.149781
    11  C   -0.297817
    12  C   -0.299639
    13  C   -0.475503
    14  H    0.147678
    15  H    0.148054
    16  H    0.152000
    17  H    0.153187
    18  H    0.154473
    19  H    0.154197
    20  H    0.160036
    21  C   -0.170660
    22  C   -0.218479
    23  C   -0.170830
    24  C    0.158057
    25  C   -0.172167
    26  C   -0.219139
    27  H    0.225773
    28  H    0.223610
    29  H    0.275700
    30  H    0.278550
    31  H    0.223936
    32  N    0.489969
    33  O   -0.461283
    34  O   -0.459814
 Sum of Mulliken charges =  -0.00000

 Dipole moment (field-independent basis, Debye):
    X=             -2.2136    Y=             -4.5991    Z=              0.4012  Tot=              5.1198
 Quadrupole moment (field-independent basis, Debye-Ang):
   XX=            -78.4819   YY=            -97.1929   ZZ=            -94.8494
   XY=             13.7621   XZ=             -1.8375   YZ=              1.5165

 Normal termination of Gaussian 16 at Thu May  6 01:01:00 2021.
