 Gaussian 16, Revision A.03,
 Gaussian 16:  EM64L-G16RevA.03 25-Dec-2016

 -------------
 #p 6-31g* mp2
 -------------

 ------------------------------------------------------
 Input file generated by CHIRIPA (05-May-2021 14:55:24)
 ------------------------------------------------------
 Symbolic Z-matrix:
 Charge =  0 Multiplicity = 1

                         Standard orientation:
 ---------------------------------------------------------------------
 Center     Atomic      Atomic             Coordinates (Angstroms)
 Number     Number       Type             X           Y           Z
 ---------------------------------------------------------------------
      1          6           0        4.508094    2.448298    0.006764
      2          6           0        3.141948    2.184794   -0.137216
      3          6           0        2.672405    0.868370   -0.170447
      4          6           0        3.601042   -0.165042   -0.056498
      5          6           0        4.968290    0.065244    0.088042
      6          6           0        5.415306    1.389548    0.118736
      7          1           0        4.864097    3.473989    0.031594
      8          1           0        2.435105    3.005049   -0.224396
      9          1           0        1.620182    0.635917   -0.280951
     10          1           0        5.648775   -0.773329    0.172619
     11          1           0        6.476839    1.591206    0.230654
     12          7           0        3.115882   -1.562852   -0.090335
     13          8           0        3.954384   -2.455642    0.012019
     14          8           0        1.906297   -1.739199   -0.218571
     15          6           0       -5.388408   -0.075695   -0.288956
     16          6           0       -6.411689    0.843256    0.379185
     17          6           0       -7.760523    0.848401   -0.340824
     18          1           0       -5.247740    0.239671   -1.331886
     19          1           0       -5.790827   -1.097603   -0.322987
     20          1           0       -6.006884    1.862859    0.413191
     21          1           0       -6.549795    0.525783    1.420700
     22          1           0       -8.189517   -0.158623   -0.362436
     23          1           0       -7.643522    1.186051   -1.375669
     24          1           0       -8.476977    1.511835    0.153555
     25          6           0       -4.034957   -0.091561    0.419314
     26          6           0       -3.011676   -1.010512   -0.248826
     27          6           0       -1.662842   -1.015658    0.471182
     28          1           0       -3.632538    0.930347    0.453345
     29          1           0       -4.175625   -0.406927    1.462243
     30          1           0       -2.873571   -0.693040   -1.290341
     31          1           0       -3.416482   -2.030116   -0.282832
     32          1           0       -1.779843   -1.353307    1.506027
     33          1           0       -1.233848   -0.008633    0.492793
     34          1           0       -0.946389   -1.679091   -0.023197
 ---------------------------------------------------------------------

 SCF Done:  E(RHF) =  -669.535887364     A.U. after   15 cycles
 E2 =    -0.2090906122D+01 EUMP2 =    -0.67162679348637D+03

 The electronic state is 1-A.
 Alpha  occ. eigenvalues --  -20.60825 -20.60819 -15.85874 -11.31209 -11.27781
 Alpha  occ. eigenvalues --  -11.27766 -11.27525 -11.26794 -11.26783 -11.21434
 Alpha  occ. eigenvalues --  -11.21142 -11.21096 -11.21030 -11.20935 -11.20286
 Alpha  occ. eigenvalues --   -1.59895  -1.39449  -1.19383  -1.08785  -1.08118
 Alpha  occ. eigenvalues --   -1.04783  -1.03159  -0.95652  -0.95564  -0.86603
 Alpha  occ. eigenvalues --   -0.86182  -0.82459  -0.79233  -0.77934  -0.77499
 Alpha  occ. eigenvalues --   -0.72105  -0.71212  -0.70493  -0.65041  -0.64796
 Alpha  occ. eigenvalues --   -0.64752  -0.62131  -0.60573  -0.58945  -0.57183
 Alpha  occ. eigenvalues --   -0.55292  -0.54907  -0.53114  -0.52877  -0.52209
 Alpha  occ. eigenvalues --   -0.52016  -0.49574  -0.48851  -0.48837  -0.47536
 Alpha  occ. eigenvalues --   -0.46298  -0.45467  -0.45410  -0.44861  -0.43368
 Alpha  occ. eigenvalues --   -0.37366  -0.36385
 Alpha virt. eigenvalues --    0.05025   0.11266   0.16519   0.20942   0.23099
 Alpha virt. eigenvalues --    0.24223   0.26166   0.27078   0.27667   0.27837
 Alpha virt. eigenvalues --    0.29272   0.30683   0.31505   0.32041   0.32694

 Mulliken charges:
               1
     1  C   -0.170531
     2  C   -0.219325
     3  C   -0.172887
     4  C    0.157218
     5  C   -0.170604
     6  C   -0.218768
     7  H    0.225651
     8  H    0.223552
     9  H    0.279895
    10  H    0.275605
    11  H    0.223488
    12  N    0.494163
    13  O   -0.459954
    14  O   -0.466256
    15  C   -0.297822
    16  C   -0.299158
    17  C   -0.475486
    18  H    0.148598
    19  H    0.150172
    20  H    0.150156
    21  H    0.151876
    22  H    0.155574
    23  H    0.154622
    24  H    0.159335
    25  C   -0.297214
    26  C   -0.300310
    27  C   -0.481484
    28  H    0.145216
    29  H    0.149439
    30  H    0.149514
    31  H    0.153097
    32  H    0.153830
    33  H    0.140752
    34  H    0.188045
 Sum of Mulliken charges =  -0.00000

 Dipole moment (field-independent basis, Debye):
    X=              1.8623    Y=              4.7915    Z=              0.1016  Tot=              5.1417
 Quadrupole moment (field-independent basis, Debye-Ang):
   XX=            -79.6109   YY=            -95.6014   ZZ=            -95.5355
   XY=             16.5514   XZ=              0.3519   YZ=             -0.9357

 Normal termination of Gaussian 16 at Thu May  6 01:32:45 2021.
