 Gaussian 16, Revision A.03,
 Gaussian 16:  EM64L-G16RevA.03 25-Dec-2016

 -------------
 #p 6-31g* mp2
 -------------

 ------------------------------------------------------
 Input file generated by CHIRIPA (05-May-2021 14:53:17)
 ------------------------------------------------------
 Symbolic Z-matrix:
 Charge =  0 Multiplicity = 1

                         Standard orientation:
 ---------------------------------------------------------------------
 Center     Atomic      Atomic             Coordinates (Angstroms)
 Number     Number       Type             X           Y           Z
 ---------------------------------------------------------------------
      1          6           0        3.314198    1.202304    0.023987
      2          6           0        2.027026    2.020057    0.135587
      3          6           0        2.289039    3.498234    0.425650
      4          1           0        3.884448    1.298675    0.958050
      5          1           0        3.942507    1.627172   -0.771066
      6          1           0        1.400718    1.592932    0.929261
      7          1           0        1.459683    1.921573   -0.798778
      8          1           0        2.893458    3.945704   -0.369993
      9          1           0        2.834158    3.615196    1.367864
     10          1           0        1.355300    4.064140    0.501414
     11          6           0        3.068667   -0.277381   -0.265800
     12          6           0        4.355838   -1.095134   -0.377400
     13          6           0        4.093825   -2.573311   -0.667462
     14          1           0        2.440357   -0.702249    0.529253
     15          1           0        2.498417   -0.373752   -1.199862
     16          1           0        4.923182   -0.996650    0.556965
     17          1           0        4.982147   -0.668009   -1.171073
     18          1           0        3.548706   -2.690273   -1.609676
     19          1           0        3.489406   -3.020781    0.128181
     20          1           0        5.027565   -3.139217   -0.743226
     21          6           0       -1.252257   -2.442514    0.797495
     22          6           0       -2.503555   -2.548185    0.181372
     23          6           0       -3.200190   -1.401783   -0.212343
     24          6           0       -2.613287   -0.160094    0.026490
     25          6           0       -1.368249   -0.022083    0.638149
     26          6           0       -0.689590   -1.182022    1.023519
     27          1           0       -0.718077   -3.338324    1.100101
     28          1           0       -2.942964   -3.525789    0.004578
     29          1           0       -4.170369   -1.454712   -0.691267
     30          1           0       -0.955860    0.966250    0.801092
     31          1           0        0.282031   -1.096929    1.501804
     32          7           0       -3.341267    1.060716   -0.385900
     33          8           0       -2.802562    2.142988   -0.164264
     34          8           0       -4.436779    0.912200   -0.922960
 ---------------------------------------------------------------------

 SCF Done:  E(RHF) =  -669.534818874     A.U. after   15 cycles
 E2 =    -0.2092834195D+01 EUMP2 =    -0.67162765306888D+03

 The electronic state is 1-A.
 Alpha  occ. eigenvalues --  -20.60716 -20.60710 -15.85766 -11.31097 -11.27680
 Alpha  occ. eigenvalues --  -11.27624 -11.27420 -11.26693 -11.26653 -11.22217
 Alpha  occ. eigenvalues --  -11.22180 -11.22093 -11.21928 -11.21725 -11.21304
 Alpha  occ. eigenvalues --   -1.59791  -1.39345  -1.19276  -1.09044  -1.08679
 Alpha  occ. eigenvalues --   -1.04677  -1.04072  -0.96502  -0.95517  -0.87517
 Alpha  occ. eigenvalues --   -0.86079  -0.82361  -0.80162  -0.78915  -0.77373
 Alpha  occ. eigenvalues --   -0.71987  -0.71113  -0.70391  -0.65719  -0.64928
 Alpha  occ. eigenvalues --   -0.64688  -0.62051  -0.61456  -0.59860  -0.58118
 Alpha  occ. eigenvalues --   -0.55805  -0.55189  -0.53175  -0.53034  -0.52975
 Alpha  occ. eigenvalues --   -0.52692  -0.50442  -0.48748  -0.48747  -0.48435
 Alpha  occ. eigenvalues --   -0.47196  -0.46392  -0.46310  -0.44757  -0.44330
 Alpha  occ. eigenvalues --   -0.37259  -0.36253
 Alpha virt. eigenvalues --    0.05122   0.11319   0.16569   0.19537   0.22800
 Alpha virt. eigenvalues --    0.23412   0.24783   0.26348   0.26868   0.27883
 Alpha virt. eigenvalues --    0.29681   0.30881   0.31234   0.31427   0.31939

 Mulliken charges:
               1
     1  C   -0.298569
     2  C   -0.302906
     3  C   -0.477437
     4  H    0.150076
     5  H    0.153714
     6  H    0.139937
     7  H    0.159295
     8  H    0.157809
     9  H    0.154628
    10  H    0.168849
    11  C   -0.300200
    12  C   -0.299938
    13  C   -0.475002
    14  H    0.139535
    15  H    0.154360
    16  H    0.152554
    17  H    0.155439
    18  H    0.157159
    19  H    0.148879
    20  H    0.162865
    21  C   -0.171814
    22  C   -0.218966
    23  C   -0.170753
    24  C    0.158708
    25  C   -0.176550
    26  C   -0.219337
    27  H    0.225270
    28  H    0.223083
    29  H    0.275181
    30  H    0.281775
    31  H    0.225869
    32  N    0.488152
    33  O   -0.460895
    34  O   -0.460770
 Sum of Mulliken charges =  -0.00000

 Dipole moment (field-independent basis, Debye):
    X=              2.7168    Y=             -4.1632    Z=              1.3210  Tot=              5.1437
 Quadrupole moment (field-independent basis, Debye-Ang):
   XX=           -105.3378   YY=            -92.8933   ZZ=            -93.8668
   XY=             13.5552   XZ=             -2.6173   YZ=              0.3198

 Normal termination of Gaussian 16 at Thu May  6 12:16:55 2021.
