 Gaussian 16, Revision A.03,
 Gaussian 16:  EM64L-G16RevA.03 25-Dec-2016

 -------------
 #p 6-31g* mp2
 -------------

 ------------------------------------------------------
 Input file generated by CHIRIPA (05-May-2021 14:55:22)
 ------------------------------------------------------
 Symbolic Z-matrix:
 Charge =  0 Multiplicity = 1

                         Standard orientation:
 ---------------------------------------------------------------------
 Center     Atomic      Atomic             Coordinates (Angstroms)
 Number     Number       Type             X           Y           Z
 ---------------------------------------------------------------------
      1          6           0        1.377125   -2.114305    1.034134
      2          6           0        0.949423   -0.789917    0.894174
      3          6           0        1.795909    0.174731    0.339681
      4          6           0        3.069323   -0.221603   -0.066063
      5          6           0        3.524463   -1.533165    0.060200
      6          6           0        2.661016   -2.481056    0.617435
      7          1           0        0.712966   -2.857158    1.465943
      8          1           0       -0.047131   -0.502233    1.216917
      9          1           0        1.490395    1.207050    0.219697
     10          1           0        4.523491   -1.789798   -0.270710
     11          1           0        2.995858   -3.508857    0.724910
     12          7           0        3.974437    0.790757   -0.654532
     13          8           0        5.091577    0.416135   -1.004239
     14          8           0        3.549588    1.939696   -0.754923
     15          6           0       -4.420818    0.161041    0.022785
     16          6           0       -4.618483   -0.996704   -0.956266
     17          6           0       -5.989699   -1.659130   -0.819334
     18          1           0       -4.550035   -0.208933    1.049122
     19          1           0       -5.208574    0.909327   -0.141231
     20          1           0       -3.829775   -1.741935   -0.791383
     21          1           0       -4.488591   -0.623971   -1.980382
     22          1           0       -6.788300   -0.933512   -1.004577
     23          1           0       -6.125741   -2.057827    0.191178
     24          1           0       -6.109653   -2.484069   -1.528522
     25          6           0       -3.054763    0.833397   -0.101950
     26          6           0       -2.857097    1.991141    0.877102
     27          6           0       -1.485881    2.653568    0.740170
     28          1           0       -2.267006    0.085110    0.062066
     29          1           0       -2.925546    1.203370   -1.128287
     30          1           0       -2.986989    1.618409    1.901218
     31          1           0       -3.645806    2.736372    0.712219
     32          1           0       -1.349840    3.052265   -0.270342
     33          1           0       -0.687280    1.927949    0.925413
     34          1           0       -1.365927    3.478507    1.449358
 ---------------------------------------------------------------------

 SCF Done:  E(RHF) =  -669.534796913     A.U. after   15 cycles
 E2 =    -0.2092343959D+01 EUMP2 =    -0.67162714087184D+03

 The electronic state is 1-A.
 Alpha  occ. eigenvalues --  -20.60719 -20.60713 -15.85771 -11.31135 -11.27722
 Alpha  occ. eigenvalues --  -11.27681 -11.27474 -11.26735 -11.26712 -11.22362
 Alpha  occ. eigenvalues --  -11.22180 -11.22169 -11.22016 -11.21915 -11.21554
 Alpha  occ. eigenvalues --   -1.59794  -1.39347  -1.19317  -1.09139  -1.08714
 Alpha  occ. eigenvalues --   -1.04735  -1.04206  -0.96665  -0.95547  -0.87681
 Alpha  occ. eigenvalues --   -0.86124  -0.82394  -0.80273  -0.78948  -0.77424
 Alpha  occ. eigenvalues --   -0.71991  -0.71116  -0.70440  -0.65830  -0.64977
 Alpha  occ. eigenvalues --   -0.64721  -0.62258  -0.61465  -0.60006  -0.58256
 Alpha  occ. eigenvalues --   -0.55977  -0.55229  -0.53335  -0.53141  -0.53046
 Alpha  occ. eigenvalues --   -0.52759  -0.50616  -0.48761  -0.48745  -0.48562
 Alpha  occ. eigenvalues --   -0.47302  -0.46467  -0.46398  -0.44752  -0.44457
 Alpha  occ. eigenvalues --   -0.37302  -0.36321
 Alpha virt. eigenvalues --    0.05107   0.11284   0.16549   0.19241   0.22581
 Alpha virt. eigenvalues --    0.23692   0.25406   0.25775   0.26712   0.28503
 Alpha virt. eigenvalues --    0.29265   0.30042   0.31144   0.31447   0.31793

 Mulliken charges:
               1
     1  C   -0.171243
     2  C   -0.224177
     3  C   -0.177230
     4  C    0.159860
     5  C   -0.170548
     6  C   -0.218875
     7  H    0.225303
     8  H    0.228685
     9  H    0.281165
    10  H    0.275473
    11  H    0.223300
    12  N    0.488549
    13  O   -0.460755
    14  O   -0.460345
    15  C   -0.298504
    16  C   -0.299587
    17  C   -0.476077
    18  H    0.148527
    19  H    0.152754
    20  H    0.149131
    21  H    0.154589
    22  H    0.156962
    23  H    0.154706
    24  H    0.161714
    25  C   -0.301588
    26  C   -0.301357
    27  C   -0.480166
    28  H    0.142041
    29  H    0.154940
    30  H    0.150808
    31  H    0.157191
    32  H    0.163088
    33  H    0.144364
    34  H    0.167302
 Sum of Mulliken charges =  -0.00000

 Dipole moment (field-independent basis, Debye):
    X=             -3.3739    Y=             -3.4442    Z=              2.0044  Tot=              5.2214
 Quadrupole moment (field-independent basis, Debye-Ang):
   XX=           -112.2478   YY=            -90.4541   ZZ=            -95.3183
   XY=            -14.2804   XZ=              6.5619   YZ=             -0.2786

 Normal termination of Gaussian 16 at Thu May  6 17:34:04 2021.
