 Gaussian 16, Revision A.03,
 Gaussian 16:  EM64L-G16RevA.03 25-Dec-2016

 -------------
 #p 6-31g* mp2
 -------------

 ------------------------------------------------------
 Input file generated by CHIRIPA (05-May-2021 14:57:22)
 ------------------------------------------------------
 Symbolic Z-matrix:
 Charge =  0 Multiplicity = 1

                         Standard orientation:
 ---------------------------------------------------------------------
 Center     Atomic      Atomic             Coordinates (Angstroms)
 Number     Number       Type             X           Y           Z
 ---------------------------------------------------------------------
      1          6           0       -2.579115    1.885630    0.088490
      2          6           0       -2.133058    0.569442   -0.070262
      3          6           0       -3.047503   -0.484413   -0.158177
      4          6           0       -4.406854   -0.184676   -0.083253
      5          6           0       -4.882390    1.116170    0.074718
      6          6           0       -3.949941    2.154319    0.160347
      7          1           0       -1.861760    2.698189    0.155896
      8          1           0       -1.069052    0.357811   -0.126375
      9          1           0       -2.729638   -1.512631   -0.281252
     10          1           0       -5.949317    1.295914    0.127408
     11          1           0       -4.299234    3.175517    0.283618
     12          7           0       -5.384466   -1.292032   -0.175114
     13          8           0       -6.576759   -1.001606   -0.106366
     14          8           0       -4.939913   -2.429435   -0.314124
     15          6           0        6.404426   -1.248810   -0.307399
     16          6           0        6.235591    0.032365   -0.842756
     17          6           0        5.043752    0.734771   -0.641028
     18          6           0        4.037036    0.123111    0.104416
     19          6           0        4.175087   -1.151950    0.650724
     20          6           0        5.375449   -1.835843    0.436321
     21          1           0        7.333585   -1.787266   -0.469030
     22          1           0        7.032999    0.490740   -1.420751
     23          1           0        4.886430    1.727854   -1.044084
     24          1           0        3.362182   -1.582778    1.222555
     25          1           0        5.503778   -2.830690    0.853281
     26          7           0        2.770779    0.856918    0.324686
     27          8           0        1.899066    0.296006    0.985090
     28          8           0        2.673975    1.979091   -0.167241
 ---------------------------------------------------------------------

 SCF Done:  E(RHF) =  -868.340758959     A.U. after   16 cycles
 E2 =    -0.2598047463D+01 EUMP2 =    -0.87093880642192D+03

 The electronic state is 1-A.
 Alpha  occ. eigenvalues --  -20.61847 -20.61838 -20.60030 -20.60024 -15.86852
 Alpha  occ. eigenvalues --  -15.85072 -11.31894 -11.30215 -11.28423 -11.28419
 Alpha  occ. eigenvalues --  -11.28101 -11.27362 -11.27350 -11.26779 -11.26687
 Alpha  occ. eigenvalues --  -11.26317 -11.25746 -11.25479  -1.60905  -1.59109
 Alpha  occ. eigenvalues --   -1.40464  -1.38669  -1.20036  -1.18335  -1.09492
 Alpha  occ. eigenvalues --   -1.07748  -1.05387  -1.03693  -0.96379  -0.94634
 Alpha  occ. eigenvalues --   -0.86800  -0.85080  -0.83221  -0.81472  -0.78305
 Alpha  occ. eigenvalues --   -0.76568  -0.73082  -0.72198  -0.71296  -0.71136
 Alpha  occ. eigenvalues --   -0.70429  -0.69399  -0.65690  -0.65384  -0.63967
 Alpha  occ. eigenvalues --   -0.63639  -0.62737  -0.61034  -0.55898  -0.54129
 Alpha  occ. eigenvalues --   -0.53735  -0.53472  -0.52052  -0.51752  -0.49852
 Alpha  occ. eigenvalues --   -0.49818  -0.48065  -0.48026  -0.45931  -0.44126
 Alpha  occ. eigenvalues --   -0.37995  -0.36975  -0.36278  -0.35304
 Alpha virt. eigenvalues --    0.04177   0.05934   0.10685   0.12361   0.15734
 Alpha virt. eigenvalues --    0.17512   0.20865   0.22679   0.26802   0.27701
 Alpha virt. eigenvalues --    0.28587   0.29485   0.30470   0.31882   0.32352

 Mulliken charges:
               1
     1  C   -0.172773
     2  C   -0.223759
     3  C   -0.173890
     4  C    0.157960
     5  C   -0.173248
     6  C   -0.219184
     7  H    0.232620
     8  H    0.242743
     9  H    0.272132
    10  H    0.271879
    11  H    0.220189
    12  N    0.488233
    13  O   -0.463327
    14  O   -0.463237
    15  C   -0.169534
    16  C   -0.218540
    17  C   -0.170373
    18  C    0.157325
    19  C   -0.170611
    20  C   -0.218477
    21  H    0.228298
    22  H    0.225579
    23  H    0.275909
    24  H    0.276048
    25  H    0.226154
    26  N    0.488884
    27  O   -0.466541
    28  O   -0.460458
 Sum of Mulliken charges =  -0.00000

 Dipole moment (field-independent basis, Debye):
    X=              8.5579    Y=              1.3519    Z=             -0.4541  Tot=              8.6759
 Quadrupole moment (field-independent basis, Debye-Ang):
   XX=            -96.8218   YY=           -102.3444   ZZ=           -105.1138
   XY=            -29.6707   XZ=             -6.1496   YZ=             -2.8232

 Normal termination of Gaussian 16 at Thu May  6 22:37:41 2021.
