 Gaussian 16, Revision A.03,
 Gaussian 16:  EM64L-G16RevA.03 25-Dec-2016

 -------------
 #p 6-31g* mp2
 -------------

 ------------------------------------------------------
 Input file generated by CHIRIPA (05-May-2021 14:51:13)
 ------------------------------------------------------
 Symbolic Z-matrix:
 Charge =  0 Multiplicity = 1

                         Standard orientation:
 ---------------------------------------------------------------------
 Center     Atomic      Atomic             Coordinates (Angstroms)
 Number     Number       Type             X           Y           Z
 ---------------------------------------------------------------------
      1          6           0        3.353912    0.710346   -0.540333
      2          6           0        2.653915    1.737026    0.350688
      3          6           0        1.535511    2.485119   -0.375481
      4          1           0        3.764432    1.219616   -1.422978
      5          1           0        2.611279   -0.009264   -0.911888
      6          1           0        3.397878    2.453674    0.721567
      7          1           0        2.245180    1.225282    1.231409
      8          1           0        0.772139    1.785716   -0.731430
      9          1           0        1.931387    3.021087   -1.244170
     10          1           0        1.048656    3.214001    0.279930
     11          6           0        4.474408   -0.045677    0.171457
     12          6           0        5.174404   -1.072357   -0.719564
     13          6           0        6.292808   -1.820450    0.006605
     14          1           0        5.217040    0.673933    0.543013
     15          1           0        4.063887   -0.554948    1.054102
     16          1           0        5.583140   -0.560614   -1.600285
     17          1           0        4.430441   -1.789006   -1.090442
     18          1           0        5.896932   -2.356419    0.875294
     19          1           0        7.056180   -1.121048    0.362555
     20          1           0        6.779663   -2.549333   -0.648805
     21          6           0       -4.639992   -0.114081    0.279120
     22          6           0       -5.574566   -0.623880   -0.818451
     23          6           0       -7.023196   -0.178987   -0.615142
     24          1           0       -5.001000   -0.469948    1.253789
     25          1           0       -4.686587    0.983305    0.310219
     26          1           0       -5.525174   -1.719909   -0.848394
     27          1           0       -5.211182   -0.266918   -1.790639
     28          1           0       -7.093090    0.913554   -0.606752
     29          1           0       -7.408866   -0.547694    0.340847
     30          1           0       -7.673941   -0.554469   -1.411009
     31          6           0       -3.188327   -0.550587    0.089755
     32          6           0       -2.253754   -0.040789    1.187327
     33          6           0       -0.805124   -0.485681    0.984017
     34          1           0       -3.141732   -1.647973    0.058656
     35          1           0       -2.827319   -0.194720   -0.884912
     36          1           0       -2.617137   -0.397751    2.159514
     37          1           0       -2.303145    1.055241    1.217270
     38          1           0       -0.419453   -0.116974    0.028028
     39          1           0       -0.735229   -1.578222    0.975627
     40          1           0       -0.154377   -0.110199    1.779884
 ---------------------------------------------------------------------

 SCF Done:  E(RHF) =  -470.733000259     A.U. after   11 cycles
 E2 =    -0.1583000815D+01 EUMP2 =    -0.47231600107337D+03

 The electronic state is 1-A.
 Alpha  occ. eigenvalues --  -11.21634 -11.21613 -11.21565 -11.21540 -11.21427
 Alpha  occ. eigenvalues --  -11.21367 -11.21357 -11.21297 -11.21117 -11.21078
 Alpha  occ. eigenvalues --  -11.21042 -11.21018  -1.08456  -1.08380  -1.03575
 Alpha  occ. eigenvalues --   -1.03468  -0.96037  -0.95912  -0.87041  -0.86945
 Alpha  occ. eigenvalues --   -0.79623  -0.79550  -0.78266  -0.78197  -0.65140
 Alpha  occ. eigenvalues --   -0.64971  -0.61158  -0.60719  -0.59391  -0.59286
 Alpha  occ. eigenvalues --   -0.57656  -0.57517  -0.55528  -0.55006  -0.52698
 Alpha  occ. eigenvalues --   -0.52634  -0.52464  -0.52342  -0.50100  -0.49727
 Alpha  occ. eigenvalues --   -0.47971  -0.47849  -0.46709  -0.46496  -0.45835
 Alpha  occ. eigenvalues --   -0.45749  -0.45709  -0.45602  -0.43804  -0.43735
 Alpha virt. eigenvalues --    0.20796   0.23016   0.23652   0.25228   0.25778
 Alpha virt. eigenvalues --    0.26246   0.26841   0.27725   0.27948   0.29144
 Alpha virt. eigenvalues --    0.29971   0.30867   0.31609   0.32036   0.32513

 Mulliken charges:
               1
     1  C   -0.299087
     2  C   -0.301147
     3  C   -0.478251
     4  H    0.149273
     5  H    0.150423
     6  H    0.151563
     7  H    0.154426
     8  H    0.158136
     9  H    0.154625
    10  H    0.159634
    11  C   -0.298269
    12  C   -0.299667
    13  C   -0.475690
    14  H    0.149282
    15  H    0.149899
    16  H    0.151763
    17  H    0.152087
    18  H    0.155188
    19  H    0.155071
    20  H    0.160117
    21  C   -0.298340
    22  C   -0.299690
    23  C   -0.475729
    24  H    0.149674
    25  H    0.149759
    26  H    0.151897
    27  H    0.152044
    28  H    0.155269
    29  H    0.155174
    30  H    0.160301
    31  C   -0.298458
    32  C   -0.300089
    33  C   -0.480558
    34  H    0.149505
    35  H    0.149541
    36  H    0.152085
    37  H    0.152837
    38  H    0.158723
    39  H    0.154899
    40  H    0.161784
 Sum of Mulliken charges =  -0.00000

 Dipole moment (field-independent basis, Debye):
    X=             -0.0285    Y=             -0.0084    Z=              0.0098  Tot=              0.0313
 Quadrupole moment (field-independent basis, Debye-Ang):
   XX=            -86.2498   YY=            -84.0765   ZZ=            -84.5530
   XY=              1.3780   XZ=             -0.6040   YZ=             -0.4341

 Normal termination of Gaussian 16 at Wed May  5 18:23:29 2021.
