 Gaussian 16, Revision A.03,
 Gaussian 16:  EM64L-G16RevA.03 25-Dec-2016

 -------------
 #p 6-31g* mp2
 -------------

 ------------------------------------------------------
 Input file generated by CHIRIPA (05-May-2021 14:51:13)
 ------------------------------------------------------
 Symbolic Z-matrix:
 Charge =  0 Multiplicity = 1

                         Standard orientation:
 ---------------------------------------------------------------------
 Center     Atomic      Atomic             Coordinates (Angstroms)
 Number     Number       Type             X           Y           Z
 ---------------------------------------------------------------------
      1          6           0        1.736465   -1.120811    0.657942
      2          6           0        1.026500   -2.394618    0.198215
      3          6           0        0.114218   -2.984132    1.274324
      4          1           0        2.325000   -1.341497    1.558980
      5          1           0        0.984147   -0.375394    0.950801
      6          1           0        1.779908   -3.136924   -0.094999
      7          1           0        0.439739   -2.170919   -0.701944
      8          1           0       -0.658633   -2.263697    1.561161
      9          1           0        0.689151   -3.235190    2.171555
     10          1           0       -0.383258   -3.894083    0.924515
     11          6           0        2.652078   -0.519613   -0.406926
     12          6           0        3.362043    0.754194    0.052801
     13          6           0        4.274325    1.343708   -1.023308
     14          1           0        3.404395   -1.265030   -0.699785
     15          1           0        2.063543   -0.298927   -1.307964
     16          1           0        3.948804    0.530495    0.952960
     17          1           0        2.608635    1.496500    0.346015
     18          1           0        3.699392    1.594766   -1.920539
     19          1           0        5.047176    0.623273   -1.310145
     20          1           0        4.771800    2.253659   -0.673499
     21          6           0       -2.059834    0.071185   -0.191221
     22          6           0       -3.237971   -0.707147   -0.777889
     23          6           0       -2.953769   -2.204256   -0.903137
     24          1           0       -1.174897   -0.083852   -0.823514
     25          1           0       -1.813523   -0.340187    0.797465
     26          1           0       -3.482875   -0.293530   -1.764579
     27          1           0       -4.120255   -0.550083   -0.144232
     28          1           0       -2.730718   -2.637375    0.077300
     29          1           0       -2.089716   -2.379363   -1.552253
     30          1           0       -3.809149   -2.741384   -1.324654
     31          6           0       -2.328709    1.569238   -0.059795
     32          6           0       -1.150572    2.347571    0.526873
     33          6           0       -1.434774    3.844680    0.652121
     34          1           0       -2.575019    1.980611   -1.048480
     35          1           0       -3.213645    1.724277    0.572498
     36          1           0       -0.268288    2.190507   -0.106784
     37          1           0       -0.905668    1.933953    1.513563
     38          1           0       -2.298826    4.019786    1.301237
     39          1           0       -1.657825    4.277799   -0.328316
     40          1           0       -0.579394    4.381809    1.073639
 ---------------------------------------------------------------------

 SCF Done:  E(RHF) =  -470.731563563     A.U. after   11 cycles
 E2 =    -0.1586499591D+01 EUMP2 =    -0.47231806315401D+03

 The electronic state is 1-A.
 Alpha  occ. eigenvalues --  -11.21713 -11.21648 -11.21564 -11.21489 -11.21489
 Alpha  occ. eigenvalues --  -11.21429 -11.21345 -11.21233 -11.21147 -11.21055
 Alpha  occ. eigenvalues --  -11.21032 -11.20956  -1.08560  -1.08326  -1.03638
 Alpha  occ. eigenvalues --   -1.03430  -0.96064  -0.95900  -0.87083  -0.86919
 Alpha  occ. eigenvalues --   -0.79678  -0.79533  -0.78432  -0.78125  -0.65192
 Alpha  occ. eigenvalues --   -0.64972  -0.61011  -0.60943  -0.59378  -0.59304
 Alpha  occ. eigenvalues --   -0.57730  -0.57465  -0.55338  -0.55209  -0.52736
 Alpha  occ. eigenvalues --   -0.52685  -0.52449  -0.52287  -0.49993  -0.49916
 Alpha  occ. eigenvalues --   -0.48050  -0.47777  -0.46938  -0.46515  -0.46256
 Alpha  occ. eigenvalues --   -0.45857  -0.45413  -0.45111  -0.43850  -0.43710
 Alpha virt. eigenvalues --    0.19960   0.21839   0.23465   0.24062   0.25316
 Alpha virt. eigenvalues --    0.25894   0.26389   0.27819   0.29161   0.30016
 Alpha virt. eigenvalues --    0.30445   0.30727   0.31750   0.31910   0.32488

 Mulliken charges:
               1
     1  C   -0.304379
     2  C   -0.302356
     3  C   -0.479166
     4  H    0.148975
     5  H    0.156879
     6  H    0.151456
     7  H    0.155195
     8  H    0.158340
     9  H    0.154151
    10  H    0.160652
    11  C   -0.298170
    12  C   -0.302179
    13  C   -0.475509
    14  H    0.149476
    15  H    0.148082
    16  H    0.151991
    17  H    0.154235
    18  H    0.154623
    19  H    0.155190
    20  H    0.160144
    21  C   -0.305791
    22  C   -0.299847
    23  C   -0.480570
    24  H    0.152795
    25  H    0.153527
    26  H    0.151744
    27  H    0.151876
    28  H    0.161059
    29  H    0.156294
    30  H    0.159865
    31  C   -0.297438
    32  C   -0.303612
    33  C   -0.475744
    34  H    0.149748
    35  H    0.150041
    36  H    0.153961
    37  H    0.152704
    38  H    0.155595
    39  H    0.155486
    40  H    0.160678
 Sum of Mulliken charges =  -0.00000

 Dipole moment (field-independent basis, Debye):
    X=             -0.0620    Y=              0.0217    Z=              0.0147  Tot=              0.0673
 Quadrupole moment (field-independent basis, Debye-Ang):
   XX=            -84.6086   YY=            -85.9667   ZZ=            -84.2905
   XY=             -0.6627   XZ=              0.3571   YZ=             -0.1022

 Normal termination of Gaussian 16 at Thu May  6 03:59:47 2021.
