 Gaussian 16, Revision A.03,
 Gaussian 16:  EM64L-G16RevA.03 25-Dec-2016

 -------------
 #p 6-31g* mp2
 -------------

 ------------------------------------------------------
 Input file generated by CHIRIPA (05-May-2021 14:57:24)
 ------------------------------------------------------
 Symbolic Z-matrix:
 Charge =  0 Multiplicity = 1

                         Standard orientation:
 ---------------------------------------------------------------------
 Center     Atomic      Atomic             Coordinates (Angstroms)
 Number     Number       Type             X           Y           Z
 ---------------------------------------------------------------------
      1          6           0       -1.832128   -0.011341    1.987329
      2          6           0       -2.702100    1.082103    1.923691
      3          6           0       -3.695073    1.143162    0.941436
      4          6           0       -3.790128    0.088561    0.034755
      5          6           0       -2.938381   -1.014349    0.072253
      6          6           0       -1.952832   -1.054239    1.063036
      7          1           0       -1.063647   -0.050551    2.753680
      8          1           0       -2.610690    1.893468    2.640194
      9          1           0       -4.381835    1.977772    0.869311
     10          1           0       -3.054066   -1.808016   -0.655845
     11          1           0       -1.278591   -1.904669    1.110062
     12          7           0       -4.837414    0.141997   -1.009628
     13          8           0       -4.900420   -0.799892   -1.796720
     14          8           0       -5.575441    1.124756   -1.021349
     15          6           0        5.757979    1.249115   -0.342819
     16          6           0        4.529703    1.873961   -0.582463
     17          6           0        3.337422    1.147499   -0.509890
     18          6           0        3.410592   -0.208225   -0.193740
     19          6           0        4.618855   -0.859242    0.050321
     20          6           0        5.798563   -0.113090   -0.027748
     21          1           0        6.679288    1.821095   -0.401331
     22          1           0        4.495158    2.931731   -0.827358
     23          1           0        2.372858    1.606113   -0.690737
     24          1           0        4.621390   -1.915119    0.292266
     25          1           0        6.751024   -0.600987    0.158852
     26          7           0        2.155032   -0.987720   -0.114001
     27          8           0        2.246428   -2.180899    0.166367
     28          8           0        1.103303   -0.390748   -0.333380
 ---------------------------------------------------------------------

 SCF Done:  E(RHF) =  -868.339346462     A.U. after   15 cycles
 E2 =    -0.2599460794D+01 EUMP2 =    -0.87093880725650D+03

 The electronic state is 1-A.
 Alpha  occ. eigenvalues --  -20.61659 -20.61639 -20.59846 -20.59830 -15.86656
 Alpha  occ. eigenvalues --  -15.84880 -11.31806 -11.30003 -11.28349 -11.28337
 Alpha  occ. eigenvalues --  -11.28043 -11.27308 -11.27296 -11.26574 -11.26394
 Alpha  occ. eigenvalues --  -11.26183 -11.25618 -11.25300  -1.60726  -1.58920
 Alpha  occ. eigenvalues --   -1.40277  -1.38480  -1.19959  -1.18118  -1.09398
 Alpha  occ. eigenvalues --   -1.07566  -1.05324  -1.03469  -0.96267  -0.94453
 Alpha  occ. eigenvalues --   -0.86731  -0.84888  -0.83097  -0.81287  -0.78176
 Alpha  occ. eigenvalues --   -0.76366  -0.72882  -0.72033  -0.71109  -0.71057
 Alpha  occ. eigenvalues --   -0.70237  -0.69260  -0.65609  -0.65322  -0.63773
 Alpha  occ. eigenvalues --   -0.63468  -0.62669  -0.60829  -0.55831  -0.54017
 Alpha  occ. eigenvalues --   -0.53671  -0.53408  -0.51842  -0.51574  -0.49663
 Alpha  occ. eigenvalues --   -0.49603  -0.47876  -0.47839  -0.45725  -0.43941
 Alpha  occ. eigenvalues --   -0.37929  -0.36919  -0.36067  -0.35000
 Alpha virt. eigenvalues --    0.04321   0.06137   0.10739   0.12632   0.15883
 Alpha virt. eigenvalues --    0.17721   0.20927   0.22654   0.26851   0.27805
 Alpha virt. eigenvalues --    0.28650   0.29412   0.30522   0.32009   0.32215

 Mulliken charges:
               1
     1  C   -0.170432
     2  C   -0.219787
     3  C   -0.174692
     4  C    0.157735
     5  C   -0.173718
     6  C   -0.198797
     7  H    0.220695
     8  H    0.216542
     9  H    0.270070
    10  H    0.274021
    11  H    0.234866
    12  N    0.488061
    13  O   -0.461945
    14  O   -0.465100
    15  C   -0.169957
    16  C   -0.218650
    17  C   -0.171376
    18  C    0.157148
    19  C   -0.170798
    20  C   -0.218607
    21  H    0.227730
    22  H    0.225558
    23  H    0.277051
    24  H    0.275835
    25  H    0.225180
    26  N    0.487659
    27  O   -0.463927
    28  O   -0.460364
 Sum of Mulliken charges =  -0.00000

 Dipole moment (field-independent basis, Debye):
    X=              8.6445    Y=              2.4145    Z=              3.3347  Tot=              9.5748
 Quadrupole moment (field-independent basis, Debye-Ang):
   XX=           -102.6782   YY=            -99.1107   ZZ=           -105.3649
   XY=              6.4211   XZ=            -15.6070   YZ=              0.2809

 Normal termination of Gaussian 16 at Wed May  5 22:42:04 2021.
