 Gaussian 16, Revision A.03,
 Gaussian 16:  EM64L-G16RevA.03 25-Dec-2016

 -------------
 #p 6-31g* mp2
 -------------

 ------------------------------------------------------
 Input file generated by CHIRIPA (05-May-2021 14:51:13)
 ------------------------------------------------------
 Symbolic Z-matrix:
 Charge =  0 Multiplicity = 1

                         Standard orientation:
 ---------------------------------------------------------------------
 Center     Atomic      Atomic             Coordinates (Angstroms)
 Number     Number       Type             X           Y           Z
 ---------------------------------------------------------------------
      1          6           0       -3.166783   -1.050796    0.177271
      2          6           0       -1.786833   -0.518131    0.564556
      3          6           0       -0.765204   -1.632845    0.791447
      4          1           0       -3.527051   -1.725314    0.966053
      5          1           0       -3.075463   -1.656923   -0.734686
      6          1           0       -1.880952    0.087951    1.474734
      7          1           0       -1.429892    0.155348   -0.225150
      8          1           0       -0.641881   -2.232911   -0.115919
      9          1           0       -1.095504   -2.300691    1.593623
     10          1           0        0.214212   -1.229731    1.067316
     11          6           0       -4.198983    0.051614   -0.052913
     12          6           0       -5.578934   -0.481051   -0.440198
     13          6           0       -6.600562    0.633663   -0.667089
     14          1           0       -4.290304    0.657741    0.859044
     15          1           0       -3.838716    0.726132   -0.841695
     16          1           0       -5.935875   -1.154530    0.349508
     17          1           0       -5.484815   -1.087133   -1.350375
     18          1           0       -6.270263    1.301509   -1.469265
     19          1           0       -6.723886    1.233729    0.240277
     20          1           0       -7.579978    0.230549   -0.942957
     21          6           0        4.327643    0.321731   -0.431073
     22          6           0        4.956689   -0.988286    0.044469
     23          6           0        6.245877   -1.330549   -0.702955
     24          1           0        4.121468    0.252399   -1.507934
     25          1           0        5.053784    1.136523   -0.303677
     26          1           0        4.229088   -1.800131   -0.082499
     27          1           0        5.161214   -0.915899    1.120362
     28          1           0        6.991559   -0.540640   -0.566556
     29          1           0        6.054136   -1.429898   -1.776252
     30          1           0        6.678668   -2.270752   -0.347184
     31          6           0        3.038124    0.677450    0.306715
     32          6           0        2.409078    1.987468   -0.168827
     33          6           0        1.119889    2.329732    0.578596
     34          1           0        2.311983   -0.137340    0.179319
     35          1           0        3.244298    0.746782    1.383577
     36          1           0        2.204553    1.915080   -1.244720
     37          1           0        3.136679    2.799313   -0.041859
     38          1           0        1.311630    2.429080    1.651894
     39          1           0        0.374208    1.539823    0.442199
     40          1           0        0.687099    3.269934    0.222826
 ---------------------------------------------------------------------

 SCF Done:  E(RHF) =  -470.732709096     A.U. after   11 cycles
 E2 =    -0.1583602565D+01 EUMP2 =    -0.47231631166097D+03

 The electronic state is 1-A.
 Alpha  occ. eigenvalues --  -11.21636 -11.21608 -11.21583 -11.21564 -11.21421
 Alpha  occ. eigenvalues --  -11.21387 -11.21360 -11.21327 -11.21099 -11.21074
 Alpha  occ. eigenvalues --  -11.21057 -11.20951  -1.08461  -1.08402  -1.03584
 Alpha  occ. eigenvalues --   -1.03475  -0.96015  -0.95938  -0.87035  -0.86950
 Alpha  occ. eigenvalues --   -0.79676  -0.79521  -0.78293  -0.78207  -0.65125
 Alpha  occ. eigenvalues --   -0.65016  -0.61055  -0.60844  -0.59465  -0.59224
 Alpha  occ. eigenvalues --   -0.57697  -0.57483  -0.55304  -0.55222  -0.52729
 Alpha  occ. eigenvalues --   -0.52633  -0.52443  -0.52360  -0.50023  -0.49854
 Alpha  occ. eigenvalues --   -0.47978  -0.47796  -0.46732  -0.46518  -0.45829
 Alpha  occ. eigenvalues --   -0.45737  -0.45733  -0.45588  -0.43787  -0.43751
 Alpha virt. eigenvalues --    0.21182   0.23112   0.23500   0.25030   0.26175
 Alpha virt. eigenvalues --    0.26567   0.26854   0.27122   0.28224   0.29179
 Alpha virt. eigenvalues --    0.30697   0.30967   0.31453   0.31807   0.32029

 Mulliken charges:
               1
     1  C   -0.297332
     2  C   -0.303116
     3  C   -0.483168
     4  H    0.149798
     5  H    0.149382
     6  H    0.153595
     7  H    0.152948
     8  H    0.154668
     9  H    0.155985
    10  H    0.166836
    11  C   -0.298422
    12  C   -0.299679
    13  C   -0.475710
    14  H    0.149829
    15  H    0.149754
    16  H    0.151969
    17  H    0.151867
    18  H    0.155208
    19  H    0.155277
    20  H    0.160261
    21  C   -0.297781
    22  C   -0.299807
    23  C   -0.475686
    24  H    0.149500
    25  H    0.149592
    26  H    0.152183
    27  H    0.151881
    28  H    0.155135
    29  H    0.155121
    30  H    0.160256
    31  C   -0.304567
    32  C   -0.298811
    33  C   -0.486150
    34  H    0.155215
    35  H    0.149306
    36  H    0.151153
    37  H    0.151736
    38  H    0.154343
    39  H    0.167797
    40  H    0.159634
 Sum of Mulliken charges =  -0.00000

 Dipole moment (field-independent basis, Debye):
    X=             -0.0346    Y=             -0.0177    Z=              0.0103  Tot=              0.0402
 Quadrupole moment (field-independent basis, Debye-Ang):
   XX=            -86.0985   YY=            -85.2491   ZZ=            -83.5258
   XY=              1.1638   XZ=              0.3460   YZ=              0.2666

 Normal termination of Gaussian 16 at Thu May  6 00:46:16 2021.
