 Gaussian 16, Revision A.03,
 Gaussian 16:  EM64L-G16RevA.03 25-Dec-2016

 -------------
 #p 6-31g* mp2
 -------------

 ------------------------------------------------------
 Input file generated by CHIRIPA (05-May-2021 14:57:25)
 ------------------------------------------------------
 Symbolic Z-matrix:
 Charge =  0 Multiplicity = 1

                         Standard orientation:
 ---------------------------------------------------------------------
 Center     Atomic      Atomic             Coordinates (Angstroms)
 Number     Number       Type             X           Y           Z
 ---------------------------------------------------------------------
      1          6           0       -6.350148    0.690386   -0.806500
      2          6           0       -5.290754    1.602694   -0.850061
      3          6           0       -4.035673    1.258234   -0.339507
      4          6           0       -3.874515   -0.012771    0.209916
      5          6           0       -4.910466   -0.943760    0.267844
      6          6           0       -6.156964   -0.577694   -0.248670
      7          1           0       -7.321792    0.966363   -1.205425
      8          1           0       -5.437887    2.588203   -1.282691
      9          1           0       -3.198274    1.945071   -0.360412
     10          1           0       -4.733275   -1.918771    0.705307
     11          1           0       -6.977895   -1.288243   -0.213496
     12          7           0       -2.550360   -0.388872    0.753571
     13          8           0       -2.434148   -1.514870    1.232382
     14          8           0       -1.653772    0.449460    0.690583
     15          6           0        6.446812    0.841821    0.053987
     16          6           0        5.388053    1.541878    0.641757
     17          6           0        4.079684    1.057554    0.551482
     18          6           0        3.865170   -0.135357   -0.137165
     19          6           0        4.899025   -0.855749   -0.733380
     20          6           0        6.199355   -0.352651   -0.630499
     21          1           0        7.460061    1.225348    0.129011
     22          1           0        5.577268    2.469782    1.173954
     23          1           0        3.241488    1.579302    0.997156
     24          1           0        4.679186   -1.777973   -1.257394
     25          1           0        7.019656   -0.898443   -1.087949
     26          7           0        2.484314   -0.658027   -0.239408
     27          8           0        2.321684   -1.711311   -0.851602
     28          8           0        1.590776   -0.004513    0.294584
 ---------------------------------------------------------------------

 SCF Done:  E(RHF) =  -868.334499249     A.U. after   16 cycles
 E2 =    -0.2600494641D+01 EUMP2 =    -0.87093499388936D+03

 The electronic state is 1-A.
 Alpha  occ. eigenvalues --  -20.59582 -20.59511 -20.59483 -20.59440 -15.84595
 Alpha  occ. eigenvalues --  -15.84550 -11.30367 -11.30333 -11.27002 -11.26969
 Alpha  occ. eigenvalues --  -11.26955 -11.26951 -11.26819 -11.26784 -11.26106
 Alpha  occ. eigenvalues --  -11.26089 -11.26073 -11.26061  -1.58617  -1.58540
 Alpha  occ. eigenvalues --   -1.38159  -1.38087  -1.18585  -1.18547  -1.07909
 Alpha  occ. eigenvalues --   -1.07862  -1.04047  -1.04015  -0.94685  -0.94607
 Alpha  occ. eigenvalues --   -0.85426  -0.85394  -0.81525  -0.81430  -0.76484
 Alpha  occ. eigenvalues --   -0.76431  -0.70949  -0.70576  -0.69976  -0.69886
 Alpha  occ. eigenvalues --   -0.69692  -0.69658  -0.64232  -0.64182  -0.64057
 Alpha  occ. eigenvalues --   -0.64023  -0.61388  -0.61360  -0.54545  -0.54508
 Alpha  occ. eigenvalues --   -0.52358  -0.52320  -0.52146  -0.52116  -0.47803
 Alpha  occ. eigenvalues --   -0.47571  -0.47509  -0.47211  -0.43500  -0.43370
 Alpha  occ. eigenvalues --   -0.36594  -0.36553  -0.35670  -0.35638
 Alpha virt. eigenvalues --    0.06046   0.06128   0.11978   0.12010   0.17464
 Alpha virt. eigenvalues --    0.17544   0.22054   0.22082   0.27941   0.27956
 Alpha virt. eigenvalues --    0.28983   0.29020   0.31577   0.31596   0.33259

 Mulliken charges:
               1
     1  C   -0.172251
     2  C   -0.218553
     3  C   -0.171390
     4  C    0.159907
     5  C   -0.171391
     6  C   -0.218519
     7  H    0.222444
     8  H    0.220415
     9  H    0.275201
    10  H    0.275156
    11  H    0.220862
    12  N    0.487533
    13  O   -0.461212
    14  O   -0.447927
    15  C   -0.172205
    16  C   -0.218707
    17  C   -0.171796
    18  C    0.158957
    19  C   -0.171768
    20  C   -0.218622
    21  H    0.222569
    22  H    0.220997
    23  H    0.277771
    24  H    0.274445
    25  H    0.220690
    26  N    0.486428
    27  O   -0.465367
    28  O   -0.443669
 Sum of Mulliken charges =  -0.00000

 Dipole moment (field-independent basis, Debye):
    X=              0.1814    Y=              3.1873    Z=             -1.4454  Tot=              3.5044
 Quadrupole moment (field-independent basis, Debye-Ang):
   XX=            -34.5187   YY=            -98.9615   ZZ=           -105.6355
   XY=              1.9092   XZ=              5.8177   YZ=              1.0923

 Normal termination of Gaussian 16 at Thu May  6 01:55:56 2021.
