 Gaussian 16, Revision A.03,
 Gaussian 16:  EM64L-G16RevA.03 25-Dec-2016

 -------------
 #p 6-31g* mp2
 -------------

 ------------------------------------------------------
 Input file generated by CHIRIPA (05-May-2021 14:55:24)
 ------------------------------------------------------
 Symbolic Z-matrix:
 Charge =  0 Multiplicity = 1

                         Standard orientation:
 ---------------------------------------------------------------------
 Center     Atomic      Atomic             Coordinates (Angstroms)
 Number     Number       Type             X           Y           Z
 ---------------------------------------------------------------------
      1          6           0        1.819841    1.795472   -0.283190
      2          6           0        3.195304    2.049659   -0.279829
      3          6           0        4.110965    1.000290   -0.157602
      4          6           0        3.614094   -0.296864   -0.040131
      5          6           0        2.249601   -0.582257   -0.040193
      6          6           0        1.352204    0.482640   -0.163572
      7          1           0        1.115628    2.616678   -0.378586
      8          1           0        3.561340    3.068218   -0.372567
      9          1           0        5.181021    1.168714   -0.152099
     10          1           0        1.914883   -1.608183    0.053918
     11          1           0        0.284548    0.282262   -0.165878
     12          7           0        4.573795   -1.416003    0.089875
     13          8           0        4.110583   -2.549868    0.191962
     14          8           0        5.771048   -1.138128    0.087225
     15          6           0       -3.957829    0.678047   -0.206138
     16          6           0       -2.946763    1.206584    0.811888
     17          6           0       -2.022044    2.274531    0.226929
     18          1           0       -3.417879    0.264841   -1.069075
     19          1           0       -4.558277    1.516509   -0.585401
     20          1           0       -2.349328    0.367172    1.190142
     21          1           0       -3.489180    1.618406    1.672587
     22          1           0       -2.601678    3.130414   -0.133750
     23          1           0       -1.455351    1.872070   -0.618935
     24          1           0       -1.307367    2.638423    0.971698
     25          6           0       -4.889334   -0.390261    0.363726
     26          6           0       -5.900401   -0.918797   -0.654300
     27          6           0       -6.825120   -1.986745   -0.069341
     28          1           0       -4.288887   -1.228722    0.742988
     29          1           0       -5.429285    0.022945    1.226662
     30          1           0       -5.357984   -1.330620   -1.514999
     31          1           0       -6.497834   -0.079385   -1.032554
     32          1           0       -7.391812   -1.584284    0.776522
     33          1           0       -6.245485   -2.842627    0.291336
     34          1           0       -7.539797   -2.350637   -0.814110
 ---------------------------------------------------------------------

 SCF Done:  E(RHF) =  -669.535131744     A.U. after   15 cycles
 E2 =    -0.2091802741D+01 EUMP2 =    -0.67162693448511D+03

 The electronic state is 1-A.
 Alpha  occ. eigenvalues --  -20.60711 -20.60706 -15.85764 -11.31110 -11.27680
 Alpha  occ. eigenvalues --  -11.27674 -11.27362 -11.26680 -11.26636 -11.22724
 Alpha  occ. eigenvalues --  -11.22487 -11.22265 -11.22138 -11.22038 -11.21487
 Alpha  occ. eigenvalues --   -1.59788  -1.39342  -1.19277  -1.09262  -1.08669
 Alpha  occ. eigenvalues --   -1.04687  -1.04387  -0.96866  -0.95507  -0.87893
 Alpha  occ. eigenvalues --   -0.86072  -0.82346  -0.80473  -0.79003  -0.77405
 Alpha  occ. eigenvalues --   -0.71983  -0.71111  -0.70382  -0.65957  -0.64927
 Alpha  occ. eigenvalues --   -0.64706  -0.62198  -0.61598  -0.60260  -0.58426
 Alpha  occ. eigenvalues --   -0.56144  -0.55187  -0.53535  -0.53286  -0.52990
 Alpha  occ. eigenvalues --   -0.52749  -0.50789  -0.48784  -0.48739  -0.48718
 Alpha  occ. eigenvalues --   -0.47498  -0.46556  -0.46449  -0.44752  -0.44617
 Alpha  occ. eigenvalues --   -0.37246  -0.36287
 Alpha virt. eigenvalues --    0.05128   0.11313   0.16612   0.19455   0.22482
 Alpha virt. eigenvalues --    0.23735   0.25576   0.25949   0.26786   0.27590
 Alpha virt. eigenvalues --    0.29213   0.29657   0.30937   0.31146   0.32138

 Mulliken charges:
               1
     1  C   -0.174726
     2  C   -0.218806
     3  C   -0.171099
     4  C    0.158527
     5  C   -0.171602
     6  C   -0.223827
     7  H    0.230291
     8  H    0.223146
     9  H    0.275247
    10  H    0.275100
    11  H    0.229944
    12  N    0.488043
    13  O   -0.460762
    14  O   -0.460632
    15  C   -0.298993
    16  C   -0.302483
    17  C   -0.485317
    18  H    0.148388
    19  H    0.152204
    20  H    0.150771
    21  H    0.158124
    22  H    0.162760
    23  H    0.148202
    24  H    0.161554
    25  C   -0.298984
    26  C   -0.300294
    27  C   -0.476230
    28  H    0.150189
    29  H    0.151571
    30  H    0.152557
    31  H    0.152792
    32  H    0.156007
    33  H    0.156257
    34  H    0.162082
 Sum of Mulliken charges =  -0.00000

 Dipole moment (field-independent basis, Debye):
    X=             -3.6745    Y=              3.9719    Z=             -0.4207  Tot=              5.4272
 Quadrupole moment (field-independent basis, Debye-Ang):
   XX=           -115.6535   YY=            -95.2949   ZZ=            -95.5954
   XY=             17.1117   XZ=             -1.8395   YZ=              0.2747

 Normal termination of Gaussian 16 at Thu May  6 01:35:26 2021.
