 Gaussian 16, Revision A.03,
 Gaussian 16:  EM64L-G16RevA.03 25-Dec-2016

 -------------
 #p 6-31g* mp2
 -------------

 ------------------------------------------------------
 Input file generated by CHIRIPA (05-May-2021 14:53:12)
 ------------------------------------------------------
 Symbolic Z-matrix:
 Charge =  0 Multiplicity = 1

                         Standard orientation:
 ---------------------------------------------------------------------
 Center     Atomic      Atomic             Coordinates (Angstroms)
 Number     Number       Type             X           Y           Z
 ---------------------------------------------------------------------
      1          6           0        3.464059    0.842537    0.471848
      2          6           0        3.060436    2.156385   -0.198133
      3          6           0        2.498700    3.176842    0.792277
      4          1           0        2.590735    0.416125    0.984121
      5          1           0        4.212019    1.050248    1.249542
      6          1           0        2.314481    1.946091   -0.975271
      7          1           0        3.934776    2.579622   -0.709031
      8          1           0        3.240227    3.415679    1.561494
      9          1           0        1.610727    2.778548    1.293742
     10          1           0        2.216595    4.108549    0.292079
     11          6           0        4.027455   -0.187725   -0.505329
     12          6           0        4.431078   -1.501573    0.164653
     13          6           0        4.992814   -2.522031   -0.825758
     14          1           0        3.279495   -0.395436   -1.283022
     15          1           0        4.900779    0.238687   -1.017601
     16          1           0        3.556738   -1.924810    0.675551
     17          1           0        5.177033   -1.291279    0.941791
     18          1           0        5.880787   -2.123736   -1.327222
     19          1           0        4.251287   -2.760867   -1.594975
     20          1           0        5.274919   -3.453738   -0.325559
     21          6           0       -0.481040   -0.667476    0.478680
     22          6           0       -0.861217    0.240996   -0.514631
     23          6           0       -2.213184    0.476977   -0.781177
     24          6           0       -3.162779   -0.215985   -0.031935
     25          6           0       -2.815601   -1.127269    0.964218
     26          6           0       -1.457724   -1.347510    1.213638
     27          1           0        0.571495   -0.844679    0.679086
     28          1           0       -0.104886    0.770546   -1.086980
     29          1           0       -2.535390    1.174858   -1.544435
     30          1           0       -3.592453   -1.640115    1.518212
     31          1           0       -1.165396   -2.053610    1.985656
     32          7           0       -4.597174    0.025506   -0.305049
     33          8           0       -5.414432   -0.597688    0.369009
     34          8           0       -4.877035    0.833409   -1.188003
 ---------------------------------------------------------------------

 SCF Done:  E(RHF) =  -669.535331202     A.U. after   15 cycles
 E2 =    -0.2092261280D+01 EUMP2 =    -0.67162759248268D+03

 The electronic state is 1-A.
 Alpha  occ. eigenvalues --  -20.60761 -20.60756 -15.85815 -11.31189 -11.27757
 Alpha  occ. eigenvalues --  -11.27754 -11.27483 -11.26774 -11.26764 -11.22718
 Alpha  occ. eigenvalues --  -11.22634 -11.22587 -11.22462 -11.21924 -11.21884
 Alpha  occ. eigenvalues --   -1.59837  -1.39390  -1.19361  -1.09540  -1.08753
 Alpha  occ. eigenvalues --   -1.04766  -1.04522  -0.96948  -0.95589  -0.87954
 Alpha  occ. eigenvalues --   -0.86162  -0.82425  -0.80592  -0.79356  -0.77467
 Alpha  occ. eigenvalues --   -0.72033  -0.71160  -0.70510  -0.66231  -0.65009
 Alpha  occ. eigenvalues --   -0.64735  -0.62178  -0.61851  -0.60311  -0.58562
 Alpha  occ. eigenvalues --   -0.56303  -0.55231  -0.53599  -0.53348  -0.53092
 Alpha  occ. eigenvalues --   -0.52858  -0.50886  -0.48893  -0.48794  -0.48787
 Alpha  occ. eigenvalues --   -0.47649  -0.46862  -0.46822  -0.44803  -0.44794
 Alpha  occ. eigenvalues --   -0.37338  -0.36367
 Alpha virt. eigenvalues --    0.05054   0.11235   0.16502   0.17546   0.22260
 Alpha virt. eigenvalues --    0.23418   0.24618   0.25094   0.26949   0.28233
 Alpha virt. eigenvalues --    0.29542   0.30695   0.30932   0.31358   0.32050

 Mulliken charges:
               1
     1  C   -0.303030
     2  C   -0.301716
     3  C   -0.477589
     4  H    0.142082
     5  H    0.155878
     6  H    0.145220
     7  H    0.157625
     8  H    0.158592
     9  H    0.156418
    10  H    0.163872
    11  C   -0.299822
    12  C   -0.299691
    13  C   -0.476312
    14  H    0.146063
    15  H    0.155153
    16  H    0.144993
    17  H    0.155704
    18  H    0.158089
    19  H    0.156056
    20  H    0.162897
    21  C   -0.177793
    22  C   -0.224322
    23  C   -0.171385
    24  C    0.158712
    25  C   -0.170746
    26  C   -0.219451
    27  H    0.233582
    28  H    0.228293
    29  H    0.275972
    30  H    0.275602
    31  H    0.223817
    32  N    0.487994
    33  O   -0.460401
    34  O   -0.460355
 Sum of Mulliken charges =  -0.00000

 Dipole moment (field-independent basis, Debye):
    X=              5.2968    Y=             -0.7863    Z=              0.9695  Tot=              5.4419
 Quadrupole moment (field-independent basis, Debye-Ang):
   XX=           -125.0589   YY=            -92.8219   ZZ=            -92.9932
   XY=              3.4009   XZ=             -3.8688   YZ=             -3.2565

 Normal termination of Gaussian 16 at Thu May  6 10:23:13 2021.
