 Gaussian 16, Revision A.03,
 Gaussian 16:  EM64L-G16RevA.03 25-Dec-2016

 -------------
 #p 6-31g* mp2
 -------------

 ------------------------------------------------------
 Input file generated by CHIRIPA (05-May-2021 14:51:09)
 ------------------------------------------------------
 Symbolic Z-matrix:
 Charge =  0 Multiplicity = 1

                         Standard orientation:
 ---------------------------------------------------------------------
 Center     Atomic      Atomic             Coordinates (Angstroms)
 Number     Number       Type             X           Y           Z
 ---------------------------------------------------------------------
      1          6           0       -3.673284   -0.469466    0.555507
      2          6           0       -2.323582   -0.683099   -0.130532
      3          6           0       -1.194924   -0.967470    0.860961
      4          1           0       -3.588492    0.364369    1.265770
      5          1           0       -3.920643   -1.361025    1.148240
      6          1           0       -2.079493    0.208044   -0.722901
      7          1           0       -2.411647   -1.516400   -0.839384
      8          1           0       -1.412220   -1.868249    1.444040
      9          1           0       -1.078178   -0.134008    1.561184
     10          1           0       -0.239126   -1.117000    0.349151
     11          6           0       -4.811575   -0.184147   -0.422559
     12          6           0       -6.161277    0.029486    0.263481
     13          6           0       -7.289935    0.313857   -0.728013
     14          1           0       -4.564216    0.707411   -1.015292
     15          1           0       -4.896367   -1.017983   -1.132822
     16          1           0       -6.073211    0.862786    0.972332
     17          1           0       -6.405366   -0.861657    0.855849
     18          1           0       -7.406680   -0.519606   -1.428236
     19          1           0       -7.072638    1.214636   -1.311091
     20          1           0       -8.245733    0.463386   -0.216202
     21          6           0        3.770505    0.863077    0.203959
     22          6           0        2.323533    0.686089   -0.257484
     23          6           0        1.391529    1.766588    0.291772
     24          1           0        3.802297    0.853164    1.302064
     25          1           0        4.129762    1.852835   -0.110220
     26          1           0        1.967565   -0.303590    0.056267
     27          1           0        2.295207    0.696232   -1.354622
     28          1           0        1.719604    2.759502   -0.032399
     29          1           0        1.390101    1.754001    1.386506
     30          1           0        0.362231    1.620855   -0.050527
     31          6           0        4.714353   -0.209463   -0.336908
     32          6           0        6.161326   -0.032475    0.124536
     33          6           0        7.093331   -1.112974   -0.424721
     34          1           0        4.355098   -1.199222   -0.022729
     35          1           0        4.682562   -0.199552   -1.435014
     36          1           0        6.189651   -0.042618    1.221673
     37          1           0        6.517294    0.957202   -0.189217
     38          1           0        7.094758   -1.100387   -1.519455
     39          1           0        6.765254   -2.105889   -0.100549
     40          1           0        8.122627   -0.967241   -0.082421
 ---------------------------------------------------------------------

 SCF Done:  E(RHF) =  -470.732678001     A.U. after   11 cycles
 E2 =    -0.1583286707D+01 EUMP2 =    -0.47231596470872D+03

 The electronic state is 1-A.
 Alpha  occ. eigenvalues --  -11.21609 -11.21597 -11.21591 -11.21572 -11.21401
 Alpha  occ. eigenvalues --  -11.21390 -11.21342 -11.21330 -11.21067 -11.21063
 Alpha  occ. eigenvalues --  -11.21019 -11.20996  -1.08439  -1.08402  -1.03579
 Alpha  occ. eigenvalues --   -1.03459  -0.96056  -0.95875  -0.87035  -0.86929
 Alpha  occ. eigenvalues --   -0.79615  -0.79556  -0.78244  -0.78228  -0.65091
 Alpha  occ. eigenvalues --   -0.65028  -0.61070  -0.60857  -0.59562  -0.59119
 Alpha  occ. eigenvalues --   -0.57750  -0.57370  -0.55384  -0.55111  -0.52717
 Alpha  occ. eigenvalues --   -0.52577  -0.52418  -0.52337  -0.49993  -0.49797
 Alpha  occ. eigenvalues --   -0.47999  -0.47818  -0.46636  -0.46579  -0.45790
 Alpha  occ. eigenvalues --   -0.45767  -0.45704  -0.45690  -0.43806  -0.43687
 Alpha virt. eigenvalues --    0.21128   0.23044   0.23467   0.25350   0.26086
 Alpha virt. eigenvalues --    0.26483   0.26924   0.27457   0.27556   0.29496
 Alpha virt. eigenvalues --    0.29653   0.30630   0.31051   0.31995   0.32490

 Mulliken charges:
               1
     1  C   -0.298420
     2  C   -0.301696
     3  C   -0.481974
     4  H    0.149819
     5  H    0.149621
     6  H    0.152481
     7  H    0.152095
     8  H    0.154473
     9  H    0.157045
    10  H    0.166422
    11  C   -0.298273
    12  C   -0.299651
    13  C   -0.475705
    14  H    0.149491
    15  H    0.149628
    16  H    0.151999
    17  H    0.151912
    18  H    0.155158
    19  H    0.155197
    20  H    0.160249
    21  C   -0.297749
    22  C   -0.304123
    23  C   -0.477804
    24  H    0.149784
    25  H    0.149437
    26  H    0.155507
    27  H    0.151567
    28  H    0.154360
    29  H    0.154946
    30  H    0.164417
    31  C   -0.298402
    32  C   -0.299631
    33  C   -0.475712
    34  H    0.149516
    35  H    0.149561
    36  H    0.151989
    37  H    0.151909
    38  H    0.155137
    39  H    0.155191
    40  H    0.160229
 Sum of Mulliken charges =  -0.00000

 Dipole moment (field-independent basis, Debye):
    X=             -0.0014    Y=             -0.0038    Z=              0.0068  Tot=              0.0080
 Quadrupole moment (field-independent basis, Debye-Ang):
   XX=            -86.2933   YY=            -84.0234   ZZ=            -84.5644
   XY=              1.0347   XZ=             -0.4154   YZ=             -0.4959

 Normal termination of Gaussian 16 at Thu May  6 05:20:43 2021.
