 Gaussian 16, Revision A.03,
 Gaussian 16:  EM64L-G16RevA.03 25-Dec-2016

 -------------
 #p 6-31g* mp2
 -------------

 ------------------------------------------------------
 Input file generated by CHIRIPA (05-May-2021 14:57:21)
 ------------------------------------------------------
 Symbolic Z-matrix:
 Charge =  0 Multiplicity = 1

                         Standard orientation:
 ---------------------------------------------------------------------
 Center     Atomic      Atomic             Coordinates (Angstroms)
 Number     Number       Type             X           Y           Z
 ---------------------------------------------------------------------
      1          6           0       -2.337652    1.365703    1.978389
      2          6           0       -1.662197    0.201844    1.596667
      3          6           0       -2.146176   -0.589213    0.550464
      4          6           0       -3.313661   -0.184868   -0.095116
      5          6           0       -4.009191    0.969265    0.261960
      6          6           0       -3.506932    1.745031    1.310994
      7          1           0       -1.954586    1.974276    2.792204
      8          1           0       -0.753887   -0.095189    2.113184
      9          1           0       -1.643164   -1.495042    0.234438
     10          1           0       -4.912201    1.239623   -0.271799
     11          1           0       -4.033586    2.648395    1.605295
     12          7           0       -3.835704   -1.014231   -1.204183
     13          8           0       -4.866319   -0.636271   -1.757008
     14          8           0       -3.204381   -2.026541   -1.499644
     15          6           0        3.099123    2.187966   -1.418357
     16          6           0        2.186343    1.950062   -0.385520
     17          6           0        2.248143    0.767963    0.358370
     18          6           0        3.240044   -0.158688    0.040975
     19          6           0        4.163803    0.049401   -0.982090
     20          6           0        4.083205    1.238550   -1.712827
     21          1           0        3.043814    3.108987   -1.991120
     22          1           0        1.421034    2.685608   -0.154609
     23          1           0        1.554145    0.558248    1.163232
     24          1           0        4.915555   -0.702614   -1.188874
     25          1           0        4.793408    1.420632   -2.514389
     26          7           0        3.315421   -1.413855    0.821535
     27          8           0        4.198697   -2.214375    0.522155
     28          8           0        2.489797   -1.573368    1.717937
 ---------------------------------------------------------------------

 SCF Done:  E(RHF) =  -868.338121174     A.U. after   16 cycles
 E2 =    -0.2599793488D+01 EUMP2 =    -0.87093791466196D+03

 The electronic state is 1-A.
 Alpha  occ. eigenvalues --  -20.61340 -20.61291 -20.60856 -20.60842 -15.86365
 Alpha  occ. eigenvalues --  -15.85907 -11.31651 -11.31345 -11.28276 -11.28156
 Alpha  occ. eigenvalues --  -11.27957 -11.27893 -11.27889 -11.27735 -11.27216
 Alpha  occ. eigenvalues --  -11.27153 -11.26987 -11.26932  -1.60383  -1.59927
 Alpha  occ. eigenvalues --   -1.39946  -1.39477  -1.19804  -1.19543  -1.09205
 Alpha  occ. eigenvalues --   -1.08934  -1.05204  -1.04941  -0.96062  -0.95746
 Alpha  occ. eigenvalues --   -0.86611  -0.86341  -0.82902  -0.82564  -0.77986
 Alpha  occ. eigenvalues --   -0.77580  -0.72588  -0.72122  -0.71698  -0.71254
 Alpha  occ. eigenvalues --   -0.70925  -0.70650  -0.65460  -0.65264  -0.65187
 Alpha  occ. eigenvalues --   -0.64899  -0.62631  -0.62194  -0.55695  -0.55464
 Alpha  occ. eigenvalues --   -0.53529  -0.53382  -0.53254  -0.52951  -0.49358
 Alpha  occ. eigenvalues --   -0.49318  -0.48891  -0.48871  -0.45368  -0.44865
 Alpha  occ. eigenvalues --   -0.37760  -0.37565  -0.36843  -0.36500
 Alpha virt. eigenvalues --    0.04553   0.04942   0.10825   0.11004   0.16082
 Alpha virt. eigenvalues --    0.16345   0.19766   0.21825   0.25208   0.27287
 Alpha virt. eigenvalues --    0.28166   0.28848   0.29939   0.31224   0.32063

 Mulliken charges:
               1
     1  C   -0.174003
     2  C   -0.231193
     3  C   -0.170671
     4  C    0.158151
     5  C   -0.170883
     6  C   -0.219295
     7  H    0.224924
     8  H    0.234171
     9  H    0.282219
    10  H    0.275949
    11  H    0.223179
    12  N    0.487860
    13  O   -0.460994
    14  O   -0.457765
    15  C   -0.169899
    16  C   -0.218552
    17  C   -0.171804
    18  C    0.158930
    19  C   -0.169470
    20  C   -0.217949
    21  H    0.227460
    22  H    0.223347
    23  H    0.268676
    24  H    0.277335
    25  H    0.225730
    26  N    0.488808
    27  O   -0.455435
    28  O   -0.468828
 Sum of Mulliken charges =  -0.00000

 Dipole moment (field-independent basis, Debye):
    X=              1.6853    Y=              7.2788    Z=              0.9927  Tot=              7.5370
 Quadrupole moment (field-independent basis, Debye-Ang):
   XX=           -112.6151   YY=           -105.6996   ZZ=           -105.4570
   XY=              0.4428   XZ=            -24.5889   YZ=             -0.0548

 Normal termination of Gaussian 16 at Wed May  5 19:16:23 2021.
