 Gaussian 16, Revision A.03,
 Gaussian 16:  EM64L-G16RevA.03 25-Dec-2016

 -------------
 #p 6-31g* mp2
 -------------

 ------------------------------------------------------
 Input file generated by CHIRIPA (05-May-2021 14:51:12)
 ------------------------------------------------------
 Symbolic Z-matrix:
 Charge =  0 Multiplicity = 1

                         Standard orientation:
 ---------------------------------------------------------------------
 Center     Atomic      Atomic             Coordinates (Angstroms)
 Number     Number       Type             X           Y           Z
 ---------------------------------------------------------------------
      1          6           0        2.829104    0.636380   -0.355973
      2          6           0        2.113497    1.952309   -0.049019
      3          6           0        0.796134    2.100517   -0.810847
      4          1           0        3.019419    0.573145   -1.436125
      5          1           0        2.163755   -0.201675   -0.106232
      6          1           0        2.780516    2.787610   -0.297967
      7          1           0        1.925034    2.012505    1.030552
      8          1           0        0.109619    1.286931   -0.555160
      9          1           0        0.969961    2.066440   -1.891228
     10          1           0        0.301311    3.048210   -0.576564
     11          6           0        4.147657    0.473589    0.398113
     12          6           0        4.863263   -0.842341    0.091158
     13          6           0        6.180627   -0.990549    0.852986
     14          1           0        4.813006    1.311643    0.148371
     15          1           0        3.957341    0.536823    1.478264
     16          1           0        5.051726   -0.902536   -0.988413
     17          1           0        4.196245   -1.677641    0.340106
     18          1           0        6.006799   -0.956471    1.933367
     19          1           0        6.867141   -0.176962    0.597299
     20          1           0        6.675450   -1.938242    0.618703
     21          6           0       -4.223545   -0.632518    0.171161
     22          6           0       -4.937089    0.702012    0.389947
     23          6           0       -6.407086    0.530401    0.773943
     24          1           0       -4.745804   -1.195847   -0.614238
     25          1           0       -4.296195   -1.233822    1.087977
     26          1           0       -4.861920    1.301182   -0.526547
     27          1           0       -4.412958    1.262313    1.174782
     28          1           0       -6.498509   -0.045682    1.700427
     29          1           0       -6.950023   -0.006591   -0.010570
     30          1           0       -6.897884    1.496835    0.925539
     31          6           0       -2.753215   -0.477450   -0.213300
     32          6           0       -2.039671   -1.811981   -0.432086
     33          6           0       -0.569675   -1.640370   -0.816083
     34          1           0       -2.680564    0.123854   -1.130116
     35          1           0       -2.230956    0.085879    0.572098
     36          1           0       -2.563803   -2.372281   -1.216922
     37          1           0       -2.114840   -2.411151    0.484407
     38          1           0       -0.026738   -1.103378   -0.031570
     39          1           0       -0.478251   -1.064287   -1.742565
     40          1           0       -0.078876   -2.606804   -0.967678
 ---------------------------------------------------------------------

 SCF Done:  E(RHF) =  -470.732059202     A.U. after   11 cycles
 E2 =    -0.1584058219D+01 EUMP2 =    -0.47231611742072D+03

 The electronic state is 1-A.
 Alpha  occ. eigenvalues --  -11.21637 -11.21608 -11.21549 -11.21511 -11.21434
 Alpha  occ. eigenvalues --  -11.21373 -11.21320 -11.21235 -11.21092 -11.21077
 Alpha  occ. eigenvalues --  -11.21033 -11.20885  -1.08467  -1.08347  -1.03582
 Alpha  occ. eigenvalues --   -1.03434  -0.96018  -0.95893  -0.87039  -0.86914
 Alpha  occ. eigenvalues --   -0.79726  -0.79446  -0.78328  -0.78094  -0.65134
 Alpha  occ. eigenvalues --   -0.64964  -0.61033  -0.60810  -0.59417  -0.59254
 Alpha  occ. eigenvalues --   -0.57670  -0.57455  -0.55328  -0.55173  -0.52725
 Alpha  occ. eigenvalues --   -0.52616  -0.52446  -0.52304  -0.50006  -0.49828
 Alpha  occ. eigenvalues --   -0.48229  -0.47653  -0.46760  -0.46504  -0.45958
 Alpha  occ. eigenvalues --   -0.45752  -0.45656  -0.45168  -0.43810  -0.43700
 Alpha virt. eigenvalues --    0.21600   0.23037   0.23581   0.24943   0.25932
 Alpha virt. eigenvalues --    0.26658   0.26870   0.27193   0.28173   0.29613
 Alpha virt. eigenvalues --    0.30556   0.31089   0.31584   0.31742   0.32034

 Mulliken charges:
               1
     1  C   -0.304939
     2  C   -0.299326
     3  C   -0.483483
     4  H    0.149259
     5  H    0.157291
     6  H    0.151420
     7  H    0.150440
     8  H    0.165908
     9  H    0.153692
    10  H    0.158960
    11  C   -0.297644
    12  C   -0.299536
    13  C   -0.475633
    14  H    0.149244
    15  H    0.148924
    16  H    0.151915
    17  H    0.151889
    18  H    0.154969
    19  H    0.155101
    20  H    0.160049
    21  C   -0.298242
    22  C   -0.299680
    23  C   -0.475743
    24  H    0.149825
    25  H    0.149456
    26  H    0.152279
    27  H    0.152034
    28  H    0.155123
    29  H    0.155193
    30  H    0.160351
    31  C   -0.300535
    32  C   -0.299739
    33  C   -0.480284
    34  H    0.151146
    35  H    0.150205
    36  H    0.152104
    37  H    0.151650
    38  H    0.157463
    39  H    0.158236
    40  H    0.160658
 Sum of Mulliken charges =  -0.00000

 Dipole moment (field-independent basis, Debye):
    X=             -0.0584    Y=             -0.0472    Z=             -0.0207  Tot=              0.0779
 Quadrupole moment (field-independent basis, Debye-Ang):
   XX=            -86.7264   YY=            -84.8108   ZZ=            -83.4879
   XY=              0.4216   XZ=             -0.2859   YZ=             -0.2259

 Normal termination of Gaussian 16 at Thu May  6 03:54:21 2021.
