 Gaussian 16, Revision A.03,
 Gaussian 16:  EM64L-G16RevA.03 25-Dec-2016

 -------------
 #p 6-31g* mp2
 -------------

 ------------------------------------------------------
 Input file generated by CHIRIPA (05-May-2021 14:57:21)
 ------------------------------------------------------
 Symbolic Z-matrix:
 Charge =  0 Multiplicity = 1

                         Standard orientation:
 ---------------------------------------------------------------------
 Center     Atomic      Atomic             Coordinates (Angstroms)
 Number     Number       Type             X           Y           Z
 ---------------------------------------------------------------------
      1          6           0        1.700140   -1.120581    1.082163
      2          6           0        1.826921    0.242468    0.794857
      3          6           0        3.024204    0.751925    0.283471
      4          6           0        4.079187   -0.134073    0.070615
      5          6           0        3.983767   -1.497104    0.346899
      6          6           0        2.777069   -1.984494    0.857663
      7          1           0        0.766405   -1.507769    1.479178
      8          1           0        0.992227    0.915730    0.968206
      9          1           0        3.149614    1.802748    0.052255
     10          1           0        4.833362   -2.143626    0.163552
     11          1           0        2.681467   -3.043517    1.079867
     12          7           0        5.351680    0.393586   -0.470437
     13          8           0        6.266321   -0.407764   -0.649062
     14          8           0        5.410324    1.598524   -0.705644
     15          6           0       -5.287121   -1.849814   -0.420073
     16          6           0       -3.982535   -1.826687   -0.924100
     17          6           0       -3.188003   -0.684723   -0.785590
     18          6           0       -3.732411    0.421240   -0.134623
     19          6           0       -5.028608    0.429021    0.378312
     20          6           0       -5.805080   -0.723872    0.228380
     21          1           0       -5.897318   -2.741163   -0.532108
     22          1           0       -3.577659   -2.699643   -1.428151
     23          1           0       -2.174866   -0.639621   -1.166294
     24          1           0       -5.404578    1.314666    0.876004
     25          1           0       -6.817906   -0.738981    0.620809
     26          7           0       -2.900835    1.635970    0.018058
     27          8           0       -3.403786    2.597291    0.595586
     28          8           0       -1.761840    1.603755   -0.442692
 ---------------------------------------------------------------------

 SCF Done:  E(RHF) =  -868.339267265     A.U. after   16 cycles
 E2 =    -0.2598676934D+01 EUMP2 =    -0.87093794419871D+03

 The electronic state is 1-A.
 Alpha  occ. eigenvalues --  -20.61731 -20.61673 -20.60332 -20.60317 -15.86736
 Alpha  occ. eigenvalues --  -15.85373 -11.31954 -11.30675 -11.28514 -11.28478
 Alpha  occ. eigenvalues --  -11.28196 -11.27482 -11.27452 -11.27263 -11.27116
 Alpha  occ. eigenvalues --  -11.26966 -11.26327 -11.26038  -1.60770  -1.59403
 Alpha  occ. eigenvalues --   -1.40328  -1.38957  -1.20109  -1.18825  -1.09527
 Alpha  occ. eigenvalues --   -1.08245  -1.05485  -1.04190  -0.96386  -0.95095
 Alpha  occ. eigenvalues --   -0.86888  -0.85597  -0.83221  -0.81906  -0.78291
 Alpha  occ. eigenvalues --   -0.76953  -0.72955  -0.72086  -0.71594  -0.71202
 Alpha  occ. eigenvalues --   -0.70724  -0.69966  -0.65759  -0.65476  -0.64470
 Alpha  occ. eigenvalues --   -0.64157  -0.62830  -0.61512  -0.55977  -0.54746
 Alpha  occ. eigenvalues --   -0.53828  -0.53567  -0.52561  -0.52252  -0.49723
 Alpha  occ. eigenvalues --   -0.49696  -0.48354  -0.48344  -0.45757  -0.44376
 Alpha  occ. eigenvalues --   -0.38077  -0.37088  -0.36842  -0.35786
 Alpha virt. eigenvalues --    0.04197   0.05535   0.10564   0.11845   0.15705
 Alpha virt. eigenvalues --    0.17048   0.20708   0.22043   0.26639   0.27425
 Alpha virt. eigenvalues --    0.28234   0.28764   0.30415   0.31575   0.31873

 Mulliken charges:
               1
     1  C   -0.175193
     2  C   -0.221488
     3  C   -0.172396
     4  C    0.158476
     5  C   -0.173016
     6  C   -0.218805
     7  H    0.221062
     8  H    0.242727
     9  H    0.278388
    10  H    0.273154
    11  H    0.219173
    12  N    0.487961
    13  O   -0.462835
    14  O   -0.459509
    15  C   -0.170220
    16  C   -0.218894
    17  C   -0.174211
    18  C    0.157494
    19  C   -0.170550
    20  C   -0.218421
    21  H    0.227984
    22  H    0.224968
    23  H    0.275296
    24  H    0.277180
    25  H    0.225941
    26  N    0.488465
    27  O   -0.455618
    28  O   -0.467113
 Sum of Mulliken charges =  -0.00000

 Dipole moment (field-independent basis, Debye):
    X=             -7.8109    Y=             -5.9825    Z=              1.3655  Tot=              9.9330
 Quadrupole moment (field-independent basis, Debye-Ang):
   XX=           -116.3151   YY=           -103.2207   ZZ=           -104.8091
   XY=              4.4531   XZ=              7.8124   YZ=              1.3119

 Normal termination of Gaussian 16 at Thu May  6 08:03:40 2021.
