 Gaussian 16, Revision A.03,
 Gaussian 16:  EM64L-G16RevA.03 25-Dec-2016

 -------------
 #p 6-31g* mp2
 -------------

 ------------------------------------------------------
 Input file generated by CHIRIPA (05-May-2021 14:53:17)
 ------------------------------------------------------
 Symbolic Z-matrix:
 Charge =  0 Multiplicity = 1

                         Standard orientation:
 ---------------------------------------------------------------------
 Center     Atomic      Atomic             Coordinates (Angstroms)
 Number     Number       Type             X           Y           Z
 ---------------------------------------------------------------------
      1          6           0       -3.927166    0.753660    0.362763
      2          6           0       -3.613608    1.905905   -0.592222
      3          6           0       -4.134448    3.251459   -0.086251
      4          1           0       -5.013994    0.695064    0.512148
      5          1           0       -3.487812    0.971685    1.346038
      6          1           0       -4.052243    1.685130   -1.573789
      7          1           0       -2.527414    1.961644   -0.739501
      8          1           0       -3.687608    3.497952    0.882344
      9          1           0       -5.221101    3.219867    0.043316
     10          1           0       -3.899399    4.061084   -0.784190
     11          6           0       -3.412832   -0.598036   -0.129281
     12          6           0       -3.726390   -1.750281    0.825704
     13          6           0       -3.205550   -3.095834    0.319733
     14          1           0       -3.852186   -0.816060   -1.112556
     15          1           0       -2.326004   -0.539440   -0.278666
     16          1           0       -4.812584   -1.806019    0.972983
     17          1           0       -3.287755   -1.529505    1.807271
     18          1           0       -2.118897   -3.064242    0.190166
     19          1           0       -3.652390   -3.342327   -0.648862
     20          1           0       -3.440599   -3.905459    1.017672
     21          6           0        0.751800   -1.299018   -0.689413
     22          6           0        0.710283    0.076044   -0.436425
     23          6           0        1.876160    0.772348   -0.104104
     24          6           0        3.071695    0.058916   -0.033372
     25          6           0        3.145429   -1.311153   -0.279871
     26          6           0        1.967097   -1.987015   -0.610468
     27          1           0       -0.158720   -1.831984   -0.946897
     28          1           0       -0.232118    0.612938   -0.497002
     29          1           0        1.872582    1.836821    0.096655
     30          1           0        4.099770   -1.819103   -0.211765
     31          1           0        2.002333   -3.054912   -0.806427
     32          7           0        4.312549    0.785242    0.317529
     33          8           0        5.353230    0.133699    0.373326
     34          8           0        4.220954    1.992326    0.530123
 ---------------------------------------------------------------------

 SCF Done:  E(RHF) =  -669.534833325     A.U. after   15 cycles
 E2 =    -0.2092905545D+01 EUMP2 =    -0.67162773886941D+03

 The electronic state is 1-A.
 Alpha  occ. eigenvalues --  -20.60742 -20.60737 -15.85795 -11.31159 -11.27725
 Alpha  occ. eigenvalues --  -11.27722 -11.27437 -11.26737 -11.26711 -11.22637
 Alpha  occ. eigenvalues --  -11.22613 -11.22576 -11.22358 -11.22193 -11.21808
 Alpha  occ. eigenvalues --   -1.59817  -1.39371  -1.19328  -1.09498  -1.08722
 Alpha  occ. eigenvalues --   -1.04732  -1.04524  -0.96973  -0.95562  -0.87985
 Alpha  occ. eigenvalues --   -0.86139  -0.82395  -0.80593  -0.79341  -0.77440
 Alpha  occ. eigenvalues --   -0.72014  -0.71140  -0.70460  -0.66222  -0.64978
 Alpha  occ. eigenvalues --   -0.64675  -0.62088  -0.61918  -0.60339  -0.58586
 Alpha  occ. eigenvalues --   -0.56294  -0.55217  -0.53629  -0.53397  -0.53060
 Alpha  occ. eigenvalues --   -0.52834  -0.50919  -0.48904  -0.48772  -0.48767
 Alpha  occ. eigenvalues --   -0.47627  -0.46836  -0.46739  -0.44789  -0.44777
 Alpha  occ. eigenvalues --   -0.37301  -0.36334
 Alpha virt. eigenvalues --    0.05075   0.11279   0.16493   0.18680   0.21664
 Alpha virt. eigenvalues --    0.23045   0.24906   0.25848   0.26270   0.28020
 Alpha virt. eigenvalues --    0.29268   0.30524   0.30980   0.31248   0.32055

 Mulliken charges:
               1
     1  C   -0.299572
     2  C   -0.303128
     3  C   -0.476361
     4  H    0.154561
     5  H    0.152154
     6  H    0.155141
     7  H    0.145474
     8  H    0.157149
     9  H    0.158183
    10  H    0.163307
    11  C   -0.304411
    12  C   -0.300082
    13  C   -0.478958
    14  H    0.152509
    15  H    0.141646
    16  H    0.156760
    17  H    0.155868
    18  H    0.147926
    19  H    0.157158
    20  H    0.166206
    21  C   -0.177908
    22  C   -0.227458
    23  C   -0.172354
    24  C    0.158735
    25  C   -0.170971
    26  C   -0.219446
    27  H    0.233034
    28  H    0.233081
    29  H    0.275658
    30  H    0.275503
    31  H    0.223545
    32  N    0.487991
    33  O   -0.460468
    34  O   -0.460471
 Sum of Mulliken charges =  -0.00000

 Dipole moment (field-independent basis, Debye):
    X=             -4.6679    Y=             -2.5330    Z=             -1.1650  Tot=              5.4371
 Quadrupole moment (field-independent basis, Debye-Ang):
   XX=           -118.7053   YY=            -92.2201   ZZ=            -95.2640
   XY=            -10.3577   XZ=             -3.6252   YZ=              0.1401

 Normal termination of Gaussian 16 at Thu May  6 09:08:25 2021.
