 Gaussian 16, Revision A.03,
 Gaussian 16:  EM64L-G16RevA.03 25-Dec-2016

 -------------
 #p 6-31g* mp2
 -------------

 ------------------------------------------------------
 Input file generated by CHIRIPA (05-May-2021 14:51:10)
 ------------------------------------------------------
 Symbolic Z-matrix:
 Charge =  0 Multiplicity = 1

                         Standard orientation:
 ---------------------------------------------------------------------
 Center     Atomic      Atomic             Coordinates (Angstroms)
 Number     Number       Type             X           Y           Z
 ---------------------------------------------------------------------
      1          6           0        3.959136    0.461315   -0.373526
      2          6           0        4.868430    1.255817    0.564523
      3          6           0        5.654581    2.349006   -0.159837
      4          1           0        4.567862    0.010962   -1.169503
      5          1           0        3.260371    1.151114   -0.866780
      6          1           0        5.564358    0.564540    1.056902
      7          1           0        4.257494    1.704173    1.358468
      8          1           0        4.973711    3.061255   -0.637036
      9          1           0        6.288000    1.915147   -0.940316
     10          1           0        6.298074    2.904517    0.529499
     11          6           0        3.166635   -0.635209    0.335915
     12          6           0        2.257341   -1.429711   -0.602133
     13          6           0        1.471191   -2.522901    0.122227
     14          1           0        3.865401   -1.325008    0.829169
     15          1           0        2.557909   -0.184856    1.131892
     16          1           0        2.868278   -1.878067   -1.396079
     17          1           0        1.561413   -0.738435   -1.094512
     18          1           0        0.837771   -2.089042    0.902705
     19          1           0        2.152061   -3.235150    0.599425
     20          1           0        0.827697   -3.078412   -0.567109
     21          6           0       -3.316068   -0.537953   -0.344531
     22          6           0       -2.756253   -1.605181    0.596541
     23          6           0       -2.266498   -2.849281   -0.145179
     24          1           0       -4.142284   -0.968475   -0.926737
     25          1           0       -2.539431   -0.252850   -1.067680
     26          1           0       -3.533275   -1.887187    1.318571
     27          1           0       -1.931401   -1.172014    1.176712
     28          1           0       -1.473350   -2.588329   -0.853292
     29          1           0       -3.084327   -3.307567   -0.710627
     30          1           0       -1.870421   -3.599205    0.546628
     31          6           0       -3.809703    0.711848    0.382141
     32          6           0       -4.369517    1.779076   -0.558931
     33          6           0       -4.859274    3.023175    0.182790
     34          1           0       -4.586340    0.426743    1.105290
     35          1           0       -2.983488    1.142369    0.964348
     36          1           0       -5.194370    1.345907   -1.139101
     37          1           0       -3.592496    2.061082   -1.280960
     38          1           0       -4.041444    3.481461    0.748238
     39          1           0       -5.652420    2.762223    0.890902
     40          1           0       -5.255350    3.773100   -0.509017
 ---------------------------------------------------------------------

 SCF Done:  E(RHF) =  -470.732585645     A.U. after   11 cycles
 E2 =    -0.1582940043D+01 EUMP2 =    -0.47231552568756D+03

 The electronic state is 1-A.
 Alpha  occ. eigenvalues --  -11.21617 -11.21615 -11.21613 -11.21589 -11.21422
 Alpha  occ. eigenvalues --  -11.21411 -11.21362 -11.21351 -11.21085 -11.21083
 Alpha  occ. eigenvalues --  -11.21002 -11.20968  -1.08452  -1.08422  -1.03576
 Alpha  occ. eigenvalues --   -1.03481  -0.96064  -0.95888  -0.87104  -0.86882
 Alpha  occ. eigenvalues --   -0.79649  -0.79537  -0.78259  -0.78245  -0.65138
 Alpha  occ. eigenvalues --   -0.65010  -0.61130  -0.60773  -0.59407  -0.59286
 Alpha  occ. eigenvalues --   -0.57675  -0.57518  -0.55474  -0.55054  -0.52842
 Alpha  occ. eigenvalues --   -0.52525  -0.52466  -0.52292  -0.50010  -0.49762
 Alpha  occ. eigenvalues --   -0.47954  -0.47865  -0.46632  -0.46601  -0.45810
 Alpha  occ. eigenvalues --   -0.45775  -0.45740  -0.45689  -0.43849  -0.43677
 Alpha virt. eigenvalues --    0.21049   0.23188   0.23542   0.25162   0.26234
 Alpha virt. eigenvalues --    0.26543   0.26967   0.27297   0.27840   0.29239
 Alpha virt. eigenvalues --    0.29885   0.31054   0.31301   0.32150   0.32404

 Mulliken charges:
               1
     1  C   -0.298244
     2  C   -0.299652
     3  C   -0.475704
     4  H    0.149746
     5  H    0.149272
     6  H    0.152013
     7  H    0.151858
     8  H    0.155126
     9  H    0.155230
    10  H    0.160308
    11  C   -0.298236
    12  C   -0.300614
    13  C   -0.479354
    14  H    0.149795
    15  H    0.149290
    16  H    0.152056
    17  H    0.150882
    18  H    0.157044
    19  H    0.154628
    20  H    0.164483
    21  C   -0.298352
    22  C   -0.301254
    23  C   -0.476847
    24  H    0.149827
    25  H    0.149235
    26  H    0.151908
    27  H    0.152122
    28  H    0.158978
    29  H    0.153797
    30  H    0.160944
    31  C   -0.298250
    32  C   -0.299633
    33  C   -0.475690
    34  H    0.149641
    35  H    0.149238
    36  H    0.152049
    37  H    0.151772
    38  H    0.155049
    39  H    0.155251
    40  H    0.160288
 Sum of Mulliken charges =  -0.00000

 Dipole moment (field-independent basis, Debye):
    X=              0.0034    Y=             -0.0248    Z=             -0.0020  Tot=              0.0252
 Quadrupole moment (field-independent basis, Debye-Ang):
   XX=            -83.9505   YY=            -85.7432   ZZ=            -85.0765
   XY=             -0.2886   XZ=              0.1749   YZ=              0.0321

 Normal termination of Gaussian 16 at Thu May  6 00:39:10 2021.
