 Gaussian 16, Revision A.03,
 Gaussian 16:  EM64L-G16RevA.03 25-Dec-2016

 -------------
 #p 6-31g* mp2
 -------------

 ------------------------------------------------------
 Input file generated by CHIRIPA (05-May-2021 14:53:16)
 ------------------------------------------------------
 Symbolic Z-matrix:
 Charge =  0 Multiplicity = 1

                         Standard orientation:
 ---------------------------------------------------------------------
 Center     Atomic      Atomic             Coordinates (Angstroms)
 Number     Number       Type             X           Y           Z
 ---------------------------------------------------------------------
      1          6           0        2.676987   -0.447364   -0.275884
      2          6           0        3.760498   -1.517496   -0.413017
      3          6           0        3.213393   -2.936418   -0.254488
      4          1           0        2.193391   -0.547905    0.705427
      5          1           0        1.896880   -0.626777   -1.028639
      6          1           0        4.539018   -1.335305    0.338868
      7          1           0        4.241701   -1.414275   -1.394039
      8          1           0        2.451525   -3.142545   -1.013217
      9          1           0        2.750531   -3.063127    0.729536
     10          1           0        4.004816   -3.685536   -0.356136
     11          6           0        3.208438    0.976339   -0.431945
     12          6           0        2.124926    2.046471   -0.294812
     13          6           0        2.672031    3.465393   -0.453341
     14          1           0        3.988545    1.155752    0.320809
     15          1           0        3.692034    1.076880   -1.413256
     16          1           0        1.643724    1.943249    0.686210
     17          1           0        1.346407    1.864280   -1.046697
     18          1           0        3.134894    3.592101   -1.437365
     19          1           0        3.433900    3.671520    0.305388
     20          1           0        1.880609    4.214511   -0.351693
     21          6           0       -0.420929   -0.468688    1.940864
     22          6           0       -1.280932    0.631364    2.023335
     23          6           0       -2.324898    0.786746    1.106527
     24          6           0       -2.480558   -0.181296    0.115591
     25          6           0       -1.640272   -1.288308    0.007277
     26          6           0       -0.603023   -1.423330    0.934871
     27          1           0        0.387440   -0.581484    2.657252
     28          1           0       -1.141899    1.374316    2.803552
     29          1           0       -3.005292    1.628661    1.147304
     30          1           0       -1.803976   -2.012441   -0.781553
     31          1           0        0.063336   -2.278663    0.868404
     32          7           0       -3.582203   -0.027577   -0.860702
     33          8           0       -3.698142   -0.894336   -1.724372
     34          8           0       -4.308875    0.956756   -0.743766
 ---------------------------------------------------------------------

 SCF Done:  E(RHF) =  -669.534024716     A.U. after   15 cycles
 E2 =    -0.2094507333D+01 EUMP2 =    -0.67162853204948D+03

 The electronic state is 1-A.
 Alpha  occ. eigenvalues --  -20.60761 -20.60756 -15.85814 -11.31178 -11.27736
 Alpha  occ. eigenvalues --  -11.27711 -11.27474 -11.26781 -11.26708 -11.22295
 Alpha  occ. eigenvalues --  -11.22018 -11.21986 -11.21970 -11.21857 -11.21404
 Alpha  occ. eigenvalues --   -1.59837  -1.39390  -1.19347  -1.09037  -1.08729
 Alpha  occ. eigenvalues --   -1.04749  -1.04116  -0.96587  -0.95588  -0.87605
 Alpha  occ. eigenvalues --   -0.86157  -0.82414  -0.80183  -0.78832  -0.77443
 Alpha  occ. eigenvalues --   -0.72033  -0.71160  -0.70484  -0.65674  -0.64997
 Alpha  occ. eigenvalues --   -0.64742  -0.62108  -0.61512  -0.59945  -0.58202
 Alpha  occ. eigenvalues --   -0.55912  -0.55256  -0.53383  -0.53129  -0.52940
 Alpha  occ. eigenvalues --   -0.52801  -0.50542  -0.48800  -0.48788  -0.48491
 Alpha  occ. eigenvalues --   -0.47219  -0.46339  -0.46263  -0.44797  -0.44352
 Alpha  occ. eigenvalues --   -0.37216  -0.36292
 Alpha virt. eigenvalues --    0.05021   0.11222   0.16402   0.19619   0.22794
 Alpha virt. eigenvalues --    0.23482   0.25626   0.26058   0.26826   0.28529
 Alpha virt. eigenvalues --    0.29357   0.30593   0.30874   0.31186   0.31757

 Mulliken charges:
               1
     1  C   -0.298231
     2  C   -0.299590
     3  C   -0.477987
     4  H    0.142867
     5  H    0.152450
     6  H    0.152388
     7  H    0.155858
     8  H    0.155346
     9  H    0.146281
    10  H    0.165726
    11  C   -0.299179
    12  C   -0.299631
    13  C   -0.476256
    14  H    0.148060
    15  H    0.151998
    16  H    0.147801
    17  H    0.156025
    18  H    0.157134
    19  H    0.153788
    20  H    0.161261
    21  C   -0.171138
    22  C   -0.218377
    23  C   -0.171314
    24  C    0.158963
    25  C   -0.174701
    26  C   -0.214360
    27  H    0.224246
    28  H    0.223279
    29  H    0.275466
    30  H    0.275346
    31  H    0.229542
    32  N    0.487973
    33  O   -0.460558
    34  O   -0.460475
 Sum of Mulliken charges =  -0.00000

 Dipole moment (field-independent basis, Debye):
    X=              3.9319    Y=             -0.5197    Z=              3.3472  Tot=              5.1897
 Quadrupole moment (field-independent basis, Debye-Ang):
   XX=           -114.3234   YY=            -92.3587   ZZ=            -92.4849
   XY=             -1.0775   XZ=             -8.9627   YZ=              1.6926

 Normal termination of Gaussian 16 at Wed May  5 15:42:01 2021.
