 Gaussian 16, Revision A.03,
 Gaussian 16:  EM64L-G16RevA.03 25-Dec-2016

 -------------
 #p 6-31g* mp2
 -------------

 ------------------------------------------------------
 Input file generated by CHIRIPA (05-May-2021 14:53:16)
 ------------------------------------------------------
 Symbolic Z-matrix:
 Charge =  0 Multiplicity = 1

                         Standard orientation:
 ---------------------------------------------------------------------
 Center     Atomic      Atomic             Coordinates (Angstroms)
 Number     Number       Type             X           Y           Z
 ---------------------------------------------------------------------
      1          6           0        3.750759   -0.716199    0.702147
      2          6           0        2.287333   -0.736100    0.259459
      3          6           0        1.376898   -1.449581    1.259382
      4          1           0        4.098182   -1.748642    0.844639
      5          1           0        3.823569   -0.223891    1.681803
      6          1           0        2.217480   -1.226991   -0.719706
      7          1           0        1.943410    0.296504    0.117819
      8          1           0        1.416927   -0.957058    2.236326
      9          1           0        1.692555   -2.489209    1.394043
     10          1           0        0.335363   -1.452103    0.923140
     11          6           0        4.673347   -0.006374   -0.287149
     12          6           0        6.136773    0.013527    0.155539
     13          6           0        7.047209    0.727008   -0.844384
     14          1           0        4.600537   -0.498682   -1.266806
     15          1           0        4.325925    1.026069   -0.429641
     16          1           0        6.480696   -1.019077    0.297179
     17          1           0        6.206626    0.504418    1.134704
     18          1           0        6.731551    1.766637   -0.979045
     19          1           0        7.007179    0.234486   -1.821328
     20          1           0        8.088744    0.729531   -0.508142
     21          6           0       -0.969969    1.270325   -0.225377
     22          6           0       -1.322413    0.253430   -1.118813
     23          6           0       -2.605390   -0.301405   -1.092784
     24          6           0       -3.515023    0.186732   -0.155992
     25          6           0       -3.193979    1.198847    0.747249
     26          6           0       -1.905228    1.738962    0.703165
     27          1           0        0.028921    1.695617   -0.252610
     28          1           0       -0.598131   -0.112482   -1.841010
     29          1           0       -2.904805   -1.089571   -1.772904
     30          1           0       -3.937604    1.542924    1.455805
     31          1           0       -1.634299    2.528600    1.398230
     32          7           0       -4.876309   -0.392855   -0.118880
     33          8           0       -5.659441    0.054656    0.716032
     34          8           0       -5.134379   -1.283672   -0.925405
 ---------------------------------------------------------------------

 SCF Done:  E(RHF) =  -669.534963717     A.U. after   15 cycles
 E2 =    -0.2092685172D+01 EUMP2 =    -0.67162764888859D+03

 The electronic state is 1-A.
 Alpha  occ. eigenvalues --  -20.60771 -20.60766 -15.85826 -11.31201 -11.27779
 Alpha  occ. eigenvalues --  -11.27775 -11.27497 -11.26782 -11.26771 -11.22551
 Alpha  occ. eigenvalues --  -11.22177 -11.22127 -11.22060 -11.21622 -11.21576
 Alpha  occ. eigenvalues --   -1.59846  -1.39399  -1.19383  -1.09156  -1.08768
 Alpha  occ. eigenvalues --   -1.04788  -1.04203  -0.96611  -0.95601  -0.87621
 Alpha  occ. eigenvalues --   -0.86178  -0.82438  -0.80302  -0.78978  -0.77477
 Alpha  occ. eigenvalues --   -0.72043  -0.71170  -0.70510  -0.65786  -0.65031
 Alpha  occ. eigenvalues --   -0.64784  -0.62132  -0.61616  -0.59999  -0.58255
 Alpha  occ. eigenvalues --   -0.55916  -0.55271  -0.53474  -0.53163  -0.52870
 Alpha  occ. eigenvalues --   -0.52744  -0.50550  -0.48805  -0.48798  -0.48587
 Alpha  occ. eigenvalues --   -0.47341  -0.46504  -0.46428  -0.44803  -0.44448
 Alpha  occ. eigenvalues --   -0.37313  -0.36381
 Alpha virt. eigenvalues --    0.05035   0.11202   0.16454   0.20097   0.22505
 Alpha virt. eigenvalues --    0.24002   0.25049   0.26012   0.27130   0.27727
 Alpha virt. eigenvalues --    0.28790   0.29856   0.31281   0.31478   0.31897

 Mulliken charges:
               1
     1  C   -0.297908
     2  C   -0.301511
     3  C   -0.480052
     4  H    0.153289
     5  H    0.150729
     6  H    0.149845
     7  H    0.140082
     8  H    0.155186
     9  H    0.157893
    10  H    0.167600
    11  C   -0.298229
    12  C   -0.300089
    13  C   -0.476028
    14  H    0.149781
    15  H    0.146050
    16  H    0.153779
    17  H    0.152658
    18  H    0.154695
    19  H    0.155767
    20  H    0.162223
    21  C   -0.168611
    22  C   -0.220171
    23  C   -0.172027
    24  C    0.158539
    25  C   -0.170605
    26  C   -0.219395
    27  H    0.228342
    28  H    0.225787
    29  H    0.275833
    30  H    0.275724
    31  H    0.223479
    32  N    0.488114
    33  O   -0.460370
    34  O   -0.460400
 Sum of Mulliken charges =  -0.00000

 Dipole moment (field-independent basis, Debye):
    X=              4.8723    Y=              1.9937    Z=             -0.0937  Tot=              5.2652
 Quadrupole moment (field-independent basis, Debye-Ang):
   XX=           -128.9615   YY=            -91.9557   ZZ=            -92.3575
   XY=             -7.8698   XZ=             -0.8438   YZ=              3.0583

 Normal termination of Gaussian 16 at Thu May  6 20:27:51 2021.
