 Gaussian 16, Revision A.03,
 Gaussian 16:  EM64L-G16RevA.03 25-Dec-2016

 -------------
 #p 6-31g* mp2
 -------------

 ------------------------------------------------------
 Input file generated by CHIRIPA (05-May-2021 14:53:15)
 ------------------------------------------------------
 Symbolic Z-matrix:
 Charge =  0 Multiplicity = 1

                         Standard orientation:
 ---------------------------------------------------------------------
 Center     Atomic      Atomic             Coordinates (Angstroms)
 Number     Number       Type             X           Y           Z
 ---------------------------------------------------------------------
      1          6           0       -3.272941    0.760979   -0.271958
      2          6           0       -2.716412    1.791313    0.711237
      3          6           0       -2.262415    3.079372    0.023789
      4          1           0       -2.504927    0.526991   -1.021857
      5          1           0       -4.117706    1.203952   -0.817432
      6          1           0       -1.873825    1.346062    1.255678
      7          1           0       -3.485774    2.022732    1.458995
      8          1           0       -3.098181    3.549118   -0.504826
      9          1           0       -1.477073    2.868603   -0.709298
     10          1           0       -1.868116    3.801927    0.745109
     11          6           0       -3.730973   -0.532110    0.400245
     12          6           0       -4.287502   -1.562445   -0.582950
     13          6           0       -4.741499   -2.850503    0.104498
     14          1           0       -2.886208   -0.975084    0.945719
     15          1           0       -4.498987   -0.298122    1.150144
     16          1           0       -3.518140   -1.793864   -1.330708
     17          1           0       -5.130089   -1.117194   -1.127390
     18          1           0       -5.526841   -2.639735    0.837586
     19          1           0       -3.905733   -3.320250    0.633113
     20          1           0       -5.135798   -3.573059   -0.616822
     21          6           0        4.960144   -1.260630    0.166460
     22          6           0        4.911539    0.131470    0.039111
     23          6           0        3.684754    0.791004   -0.081554
     24          6           0        2.520873    0.023829   -0.071050
     25          6           0        2.536516   -1.364455    0.054304
     26          6           0        3.774567   -2.002840    0.173637
     27          1           0        5.917517   -1.764757    0.259678
     28          1           0        5.830671    0.710442    0.033227
     29          1           0        3.618199    1.867574   -0.181489
     30          1           0        1.603384   -1.914615    0.056901
     31          1           0        3.809283   -3.084084    0.272396
     32          7           0        1.216167    0.710853   -0.198088
     33          8           0        0.205051    0.012185   -0.186073
     34          8           0        1.229358    1.935003   -0.307268
 ---------------------------------------------------------------------

 SCF Done:  E(RHF) =  -669.536705177     A.U. after   15 cycles
 E2 =    -0.2093316049D+01 EUMP2 =    -0.67163002122575D+03

 The electronic state is 1-A.
 Alpha  occ. eigenvalues --  -20.61295 -20.61281 -15.86270 -11.31488 -11.28032
 Alpha  occ. eigenvalues --  -11.28026 -11.27747 -11.27009 -11.27000 -11.20502
 Alpha  occ. eigenvalues --  -11.20267 -11.19920 -11.19518 -11.19425 -11.18868
 Alpha  occ. eigenvalues --   -1.60319  -1.39880  -1.19639  -1.09067  -1.06807
 Alpha  occ. eigenvalues --   -1.05016  -1.01929  -0.95924  -0.94403  -0.86423
 Alpha  occ. eigenvalues --   -0.85432  -0.82764  -0.78096  -0.77831  -0.76538
 Alpha  occ. eigenvalues --   -0.72498  -0.71615  -0.70746  -0.65300  -0.65028
 Alpha  occ. eigenvalues --   -0.63405  -0.62363  -0.59328  -0.57887  -0.56008
 Alpha  occ. eigenvalues --   -0.55520  -0.53679  -0.53353  -0.53103  -0.51171
 Alpha  occ. eigenvalues --   -0.50849  -0.49357  -0.49192  -0.48211  -0.46387
 Alpha  occ. eigenvalues --   -0.45381  -0.45076  -0.44070  -0.43829  -0.42173
 Alpha  occ. eigenvalues --   -0.37609  -0.36610
 Alpha virt. eigenvalues --    0.04661   0.11047   0.16177   0.21162   0.24353
 Alpha virt. eigenvalues --    0.26075   0.27121   0.27848   0.28548   0.29036
 Alpha virt. eigenvalues --    0.29470   0.30822   0.32338   0.32946   0.32967

 Mulliken charges:
               1
     1  C   -0.297501
     2  C   -0.295341
     3  C   -0.478642
     4  H    0.165352
     5  H    0.139059
     6  H    0.160727
     7  H    0.138427
     8  H    0.141650
     9  H    0.176173
    10  H    0.151791
    11  C   -0.297772
    12  C   -0.298636
    13  C   -0.474333
    14  H    0.152139
    15  H    0.143081
    16  H    0.151750
    17  H    0.148936
    18  H    0.153298
    19  H    0.151867
    20  H    0.155831
    21  C   -0.170124
    22  C   -0.218621
    23  C   -0.170215
    24  C    0.157939
    25  C   -0.170514
    26  C   -0.218578
    27  H    0.226767
    28  H    0.224558
    29  H    0.276414
    30  H    0.275879
    31  H    0.224573
    32  N    0.490380
    33  O   -0.460355
    34  O   -0.455959
 Sum of Mulliken charges =  -0.00000

 Dipole moment (field-independent basis, Debye):
    X=              5.2711    Y=             -2.4639    Z=              0.3553  Tot=              5.8294
 Quadrupole moment (field-independent basis, Debye-Ang):
   XX=            -72.0886   YY=            -92.8772   ZZ=            -96.0152
   XY=             -4.2100   XZ=              0.9407   YZ=              0.0707

 Normal termination of Gaussian 16 at Thu May  6 10:34:37 2021.
