 Gaussian 16, Revision A.03,
 Gaussian 16:  EM64L-G16RevA.03 25-Dec-2016

 -------------
 #p 6-31g* mp2
 -------------

 ------------------------------------------------------
 Input file generated by CHIRIPA (05-May-2021 14:57:21)
 ------------------------------------------------------
 Symbolic Z-matrix:
 Charge =  0 Multiplicity = 1

                         Standard orientation:
 ---------------------------------------------------------------------
 Center     Atomic      Atomic             Coordinates (Angstroms)
 Number     Number       Type             X           Y           Z
 ---------------------------------------------------------------------
      1          6           0       -6.041268    0.492244   -0.688621
      2          6           0       -5.669080    0.690771    0.645015
      3          6           0       -4.388870    0.340833    1.084509
      4          6           0       -3.502106   -0.207738    0.159301
      5          6           0       -3.843170   -0.417830   -1.175924
      6          6           0       -5.128734   -0.060448   -1.593239
      7          1           0       -7.037845    0.766975   -1.021416
      8          1           0       -6.375692    1.119805    1.349765
      9          1           0       -4.074478    0.483678    2.111237
     10          1           0       -3.116937   -0.847548   -1.855149
     11          1           0       -5.415028   -0.215764   -2.629559
     12          7           0       -2.143971   -0.582142    0.612834
     13          8           0       -1.381175   -1.063715   -0.221951
     14          8           0       -1.867978   -0.386936    1.794510
     15          6           0        4.021433   -2.359474   -0.052200
     16          6           0        2.738390   -1.805167    0.003175
     17          6           0        2.562762   -0.418298   -0.014115
     18          6           0        3.697377    0.388256   -0.087681
     19          6           0        4.988690   -0.133873   -0.144091
     20          6           0        5.140514   -1.523532   -0.125527
     21          1           0        4.148619   -3.437911   -0.038274
     22          1           0        1.867479   -2.451936    0.060169
     23          1           0        1.580933    0.037425    0.027661
     24          1           0        5.837712    0.536507   -0.200408
     25          1           0        6.138142   -1.951227   -0.168645
     26          7           0        3.524047    1.857948   -0.106659
     27          8           0        4.539807    2.546870   -0.171891
     28          8           0        2.375713    2.293142   -0.055944
 ---------------------------------------------------------------------

 SCF Done:  E(RHF) =  -868.340828189     A.U. after   16 cycles
 E2 =    -0.2598391093D+01 EUMP2 =    -0.87093921928228D+03

 The electronic state is 1-A.
 Alpha  occ. eigenvalues --  -20.61435 -20.61406 -20.59811 -20.59793 -15.86425
 Alpha  occ. eigenvalues --  -15.84847 -11.31498 -11.30000 -11.28043 -11.28021
 Alpha  occ. eigenvalues --  -11.27735 -11.26993 -11.26978 -11.26659 -11.26356
 Alpha  occ. eigenvalues --  -11.26339 -11.25670 -11.25386  -1.60468  -1.58884
 Alpha  occ. eigenvalues --   -1.40029  -1.38440  -1.19645  -1.18174  -1.09098
 Alpha  occ. eigenvalues --   -1.07633  -1.05006  -1.03510  -0.95982  -0.94487
 Alpha  occ. eigenvalues --   -0.86419  -0.84943  -0.82826  -0.81299  -0.77901
 Alpha  occ. eigenvalues --   -0.76353  -0.72664  -0.71749  -0.71076  -0.70757
 Alpha  occ. eigenvalues --   -0.70203  -0.69300  -0.65306  -0.65012  -0.63819
 Alpha  occ. eigenvalues --   -0.63508  -0.62358  -0.60824  -0.55527  -0.54099
 Alpha  occ. eigenvalues --   -0.53346  -0.53098  -0.51910  -0.51580  -0.49439
 Alpha  occ. eigenvalues --   -0.49393  -0.47835  -0.47813  -0.45490  -0.43890
 Alpha  occ. eigenvalues --   -0.37608  -0.36592  -0.36211  -0.35115
 Alpha virt. eigenvalues --    0.04600   0.06126   0.11068   0.12515   0.16148
 Alpha virt. eigenvalues --    0.17641   0.21206   0.22673   0.27143   0.28025
 Alpha virt. eigenvalues --    0.28696   0.29524   0.30822   0.32143   0.32330

 Mulliken charges:
               1
     1  C   -0.169607
     2  C   -0.218530
     3  C   -0.169512
     4  C    0.158645
     5  C   -0.169725
     6  C   -0.218466
     7  H    0.227105
     8  H    0.225052
     9  H    0.276879
    10  H    0.274935
    11  H    0.224576
    12  N    0.490458
    13  O   -0.471612
    14  O   -0.456101
    15  C   -0.171899
    16  C   -0.222467
    17  C   -0.172942
    18  C    0.157158
    19  C   -0.172690
    20  C   -0.219678
    21  H    0.221522
    22  H    0.234943
    23  H    0.289889
    24  H    0.271267
    25  H    0.218477
    26  N    0.487998
    27  O   -0.465485
    28  O   -0.460191
 Sum of Mulliken charges =  -0.00000

 Dipole moment (field-independent basis, Debye):
    X=             -4.8020    Y=             -3.8651    Z=             -1.4580  Tot=              6.3344
 Quadrupole moment (field-independent basis, Debye-Ang):
   XX=            -63.1346   YY=           -110.6014   ZZ=           -101.8670
   XY=            -22.7942   XZ=              3.7222   YZ=              2.6641

 Normal termination of Gaussian 16 at Wed May  5 17:43:15 2021.
