 Gaussian 16, Revision A.03,
 Gaussian 16:  EM64L-G16RevA.03 25-Dec-2016

 -------------
 #p 6-31g* mp2
 -------------

 ------------------------------------------------------
 Input file generated by CHIRIPA (05-May-2021 14:57:24)
 ------------------------------------------------------
 Symbolic Z-matrix:
 Charge =  0 Multiplicity = 1

                         Standard orientation:
 ---------------------------------------------------------------------
 Center     Atomic      Atomic             Coordinates (Angstroms)
 Number     Number       Type             X           Y           Z
 ---------------------------------------------------------------------
      1          6           0       -3.375008   -2.168303   -1.056426
      2          6           0       -4.496300   -1.360880   -1.273893
      3          6           0       -4.587924   -0.098308   -0.680542
      4          6           0       -3.535158    0.327196    0.128111
      5          6           0       -2.404950   -0.454013    0.363973
      6          6           0       -2.334745   -1.713095   -0.239627
      7          1           0       -3.312151   -3.147743   -1.521336
      8          1           0       -5.305692   -1.711808   -1.907754
      9          1           0       -5.444489    0.547283   -0.831961
     10          1           0       -1.614020   -0.076874    1.000851
     11          1           0       -1.462729   -2.338000   -0.068963
     12          7           0       -3.620819    1.661977    0.761690
     13          8           0       -2.679896    2.013784    1.469881
     14          8           0       -4.627260    2.331097    0.538101
     15          6           0        2.523987   -1.922770    1.416987
     16          6           0        1.970376   -1.640306    0.163891
     17          6           0        2.514602   -0.636523   -0.642823
     18          6           0        3.617431    0.068313   -0.162968
     19          6           0        4.191520   -0.189650    1.080883
     20          6           0        3.630841   -1.197817    1.870684
     21          1           0        2.094829   -2.704235    2.037092
     22          1           0        1.110775   -2.201699   -0.191030
     23          1           0        2.105878   -0.397149   -1.617021
     24          1           0        5.048370    0.386981    1.407569
     25          1           0        4.062865   -1.415012    2.843426
     26          7           0        4.202288    1.133295   -1.008047
     27          8           0        5.173919    1.739899   -0.562401
     28          8           0        3.677992    1.341257   -2.100065
 ---------------------------------------------------------------------

 SCF Done:  E(RHF) =  -868.336589800     A.U. after   16 cycles
 E2 =    -0.2599724709D+01 EUMP2 =    -0.87093631450894D+03

 The electronic state is 1-A.
 Alpha  occ. eigenvalues --  -20.61062 -20.61057 -20.60970 -20.60964 -15.86124
 Alpha  occ. eigenvalues --  -15.86032 -11.31626 -11.31543 -11.28271 -11.28205
 Alpha  occ. eigenvalues --  -11.28202 -11.28124 -11.28037 -11.27983 -11.27399
 Alpha  occ. eigenvalues --  -11.27336 -11.27227 -11.27149  -1.60135  -1.60041
 Alpha  occ. eigenvalues --   -1.39685  -1.39591  -1.19835  -1.19758  -1.09207
 Alpha  occ. eigenvalues --   -1.09132  -1.05282  -1.05190  -0.96009  -0.95932
 Alpha  occ. eigenvalues --   -0.86686  -0.86582  -0.82865  -0.82758  -0.77898
 Alpha  occ. eigenvalues --   -0.77757  -0.72339  -0.72249  -0.71460  -0.71364
 Alpha  occ. eigenvalues --   -0.70938  -0.70874  -0.65510  -0.65472  -0.65419
 Alpha  occ. eigenvalues --   -0.65093  -0.62731  -0.62427  -0.55784  -0.55700
 Alpha  occ. eigenvalues --   -0.53593  -0.53509  -0.53495  -0.53169  -0.49112
 Alpha  occ. eigenvalues --   -0.49084  -0.49019  -0.48992  -0.45060  -0.44964
 Alpha  occ. eigenvalues --   -0.37822  -0.37755  -0.36914  -0.36763
 Alpha virt. eigenvalues --    0.04675   0.04794   0.10731   0.10799   0.16042
 Alpha virt. eigenvalues --    0.16235   0.18556   0.21938   0.24705   0.27829
 Alpha virt. eigenvalues --    0.27851   0.28487   0.29614   0.31655   0.31901

 Mulliken charges:
               1
     1  C   -0.170442
     2  C   -0.218416
     3  C   -0.169281
     4  C    0.159192
     5  C   -0.171248
     6  C   -0.222162
     7  H    0.225981
     8  H    0.225458
     9  H    0.277816
    10  H    0.277096
    11  H    0.215012
    12  N    0.488178
    13  O   -0.459024
    14  O   -0.458682
    15  C   -0.170978
    16  C   -0.224776
    17  C   -0.169514
    18  C    0.159661
    19  C   -0.168696
    20  C   -0.217891
    21  H    0.224600
    22  H    0.216468
    23  H    0.277258
    24  H    0.278106
    25  H    0.225704
    26  N    0.488287
    27  O   -0.458497
    28  O   -0.459210
 Sum of Mulliken charges =  -0.00000

 Dipole moment (field-independent basis, Debye):
    X=             -1.7285    Y=             -8.2491    Z=              0.7572  Tot=              8.4622
 Quadrupole moment (field-independent basis, Debye-Ang):
   XX=           -114.4296   YY=           -109.7854   ZZ=           -103.7847
   XY=              3.0851   XZ=             24.5141   YZ=             -0.1264

 Normal termination of Gaussian 16 at Thu May  6 05:06:23 2021.
