 Gaussian 16, Revision A.03,
 Gaussian 16:  EM64L-G16RevA.03 25-Dec-2016

 -------------
 #p 6-31g* mp2
 -------------

 ------------------------------------------------------
 Input file generated by CHIRIPA (05-May-2021 14:57:23)
 ------------------------------------------------------
 Symbolic Z-matrix:
 Charge =  0 Multiplicity = 1

                         Standard orientation:
 ---------------------------------------------------------------------
 Center     Atomic      Atomic             Coordinates (Angstroms)
 Number     Number       Type             X           Y           Z
 ---------------------------------------------------------------------
      1          6           0       -1.799630   -2.105661    0.162410
      2          6           0       -2.089850   -1.334924    1.293011
      3          6           0       -2.968720   -0.251075    1.206954
      4          6           0       -3.542093    0.035060   -0.031052
      5          6           0       -3.272886   -0.713963   -1.175509
      6          6           0       -2.391031   -1.793271   -1.066076
      7          1           0       -1.115743   -2.945857    0.238341
      8          1           0       -1.632026   -1.575208    2.248368
      9          1           0       -3.211000    0.362262    2.066336
     10          1           0       -3.744720   -0.449969   -2.114177
     11          1           0       -2.167487   -2.390088   -1.945782
     12          7           0       -4.474093    1.180079   -0.134531
     13          8           0       -4.966188    1.411507   -1.236765
     14          8           0       -4.694852    1.824435    0.888557
     15          6           0        4.012260    2.596191   -0.090117
     16          6           0        4.942332    1.619750   -0.461670
     17          6           0        4.607640    0.263416   -0.407951
     18          6           0        3.328184   -0.082483    0.024063
     19          6           0        2.379517    0.866908    0.400864
     20          6           0        2.736071    2.217321    0.339208
     21          1           0        4.280749    3.647524   -0.134931
     22          1           0        5.934173    1.911065   -0.795484
     23          1           0        5.308247   -0.513213   -0.689760
     24          1           0        1.398555    0.545736    0.729469
     25          1           0        2.011730    2.973468    0.628373
     26          7           0        2.962288   -1.515239    0.085136
     27          8           0        1.828538   -1.793994    0.469251
     28          8           0        3.816177   -2.332349   -0.252267
 ---------------------------------------------------------------------

 SCF Done:  E(RHF) =  -868.340362600     A.U. after   16 cycles
 E2 =    -0.2598664663D+01 EUMP2 =    -0.87093902726273D+03

 The electronic state is 1-A.
 Alpha  occ. eigenvalues --  -20.61543 -20.61495 -20.60522 -20.60514 -15.86560
 Alpha  occ. eigenvalues --  -15.85571 -11.31651 -11.30730 -11.28188 -11.28174
 Alpha  occ. eigenvalues --  -11.27869 -11.27324 -11.27304 -11.27142 -11.27115
 Alpha  occ. eigenvalues --  -11.26789 -11.26172 -11.26156  -1.60590  -1.59605
 Alpha  occ. eigenvalues --   -1.40152  -1.39163  -1.19796  -1.18880  -1.09241
 Alpha  occ. eigenvalues --   -1.08252  -1.05155  -1.04265  -0.96124  -0.95126
 Alpha  occ. eigenvalues --   -0.86565  -0.85633  -0.82970  -0.81983  -0.78043
 Alpha  occ. eigenvalues --   -0.77105  -0.72815  -0.71895  -0.71787  -0.70934
 Alpha  occ. eigenvalues --   -0.70897  -0.69832  -0.65452  -0.65150  -0.64500
 Alpha  occ. eigenvalues --   -0.64222  -0.62504  -0.61622  -0.55661  -0.54571
 Alpha  occ. eigenvalues --   -0.53503  -0.53241  -0.52591  -0.52323  -0.49557
 Alpha  occ. eigenvalues --   -0.49517  -0.48558  -0.48524  -0.45618  -0.44616
 Alpha  occ. eigenvalues --   -0.37760  -0.36748  -0.36737  -0.35911
 Alpha virt. eigenvalues --    0.04453   0.05458   0.10910   0.11752   0.16001
 Alpha virt. eigenvalues --    0.17039   0.21062   0.22139   0.26978   0.27685
 Alpha virt. eigenvalues --    0.28079   0.29139   0.30666   0.31791   0.32069

 Mulliken charges:
               1
     1  C   -0.162324
     2  C   -0.223426
     3  C   -0.175843
     4  C    0.155864
     5  C   -0.172300
     6  C   -0.222168
     7  H    0.242687
     8  H    0.225788
     9  H    0.271989
    10  H    0.273323
    11  H    0.224105
    12  N    0.488125
    13  O   -0.462089
    14  O   -0.463597
    15  C   -0.169882
    16  C   -0.218644
    17  C   -0.170790
    18  C    0.157323
    19  C   -0.171344
    20  C   -0.218746
    21  H    0.228042
    22  H    0.224906
    23  H    0.275700
    24  H    0.275165
    25  H    0.227045
    26  N    0.490753
    27  O   -0.471686
    28  O   -0.457976
 Sum of Mulliken charges =  -0.00000

 Dipole moment (field-independent basis, Debye):
    X=              4.9255    Y=              0.8926    Z=              0.1226  Tot=              5.0073
 Quadrupole moment (field-independent basis, Debye-Ang):
   XX=           -116.7080   YY=           -105.9553   ZZ=           -100.4921
   XY=             30.9546   XZ=             -3.2259   YZ=              1.7789

 Normal termination of Gaussian 16 at Fri May  7 12:32:25 2021.
