 Gaussian 16, Revision A.03,
 Gaussian 16:  EM64L-G16RevA.03 25-Dec-2016

 -------------
 #p 6-31g* mp2
 -------------

 ------------------------------------------------------
 Input file generated by CHIRIPA (05-May-2021 14:55:21)
 ------------------------------------------------------
 Symbolic Z-matrix:
 Charge =  0 Multiplicity = 1

                         Standard orientation:
 ---------------------------------------------------------------------
 Center     Atomic      Atomic             Coordinates (Angstroms)
 Number     Number       Type             X           Y           Z
 ---------------------------------------------------------------------
      1          6           0       -4.709228    0.188123   -1.176981
      2          6           0       -4.508531   -0.955677   -0.397261
      3          6           0       -3.354976   -1.091079    0.380895
      4          6           0       -2.418620   -0.058664    0.355500
      5          6           0       -2.589901    1.093087   -0.410937
      6          6           0       -3.750962    1.207057   -1.181323
      7          1           0       -5.608253    0.284982   -1.778454
      8          1           0       -5.251032   -1.748588   -0.391940
      9          1           0       -3.174298   -1.965845    0.993722
     10          1           0       -1.831819    1.866713   -0.395707
     11          1           0       -3.904174    2.096471   -1.785901
     12          7           0       -1.193430   -0.190663    1.175186
     13          8           0       -0.383627    0.733068    1.135476
     14          8           0       -1.066127   -1.215357    1.841844
     15          6           0        3.773603   -0.572349   -0.436136
     16          6           0        2.963813   -1.869343   -0.430291
     17          6           0        3.816540   -3.100066   -0.740082
     18          1           0        4.252382   -0.450905   -1.417444
     19          1           0        4.585450   -0.651833    0.300059
     20          1           0        2.152894   -1.786906   -1.165295
     21          1           0        2.486750   -1.987618    0.551054
     22          1           0        4.616788   -3.210206   -0.001114
     23          1           0        4.281036   -3.008353   -1.727216
     24          1           0        3.217680   -4.016112   -0.730717
     25          6           0        2.934994    0.666835   -0.128102
     26          6           0        3.744785    1.963828   -0.133947
     27          6           0        2.892057    3.194551    0.175844
     28          1           0        2.123147    0.746318   -0.864296
     29          1           0        2.456215    0.545390    0.853207
     30          1           0        4.221847    2.082103   -1.115292
     31          1           0        4.555703    1.881391    0.601058
     32          1           0        2.427562    3.102839    1.162978
     33          1           0        2.091808    3.304691   -0.563123
     34          1           0        3.490917    4.110597    0.166480
 ---------------------------------------------------------------------

 SCF Done:  E(RHF) =  -669.535998211     A.U. after   15 cycles
 E2 =    -0.2091738041D+01 EUMP2 =    -0.67162773625212D+03

 The electronic state is 1-A.
 Alpha  occ. eigenvalues --  -20.60949 -20.60920 -15.85957 -11.31285 -11.27848
 Alpha  occ. eigenvalues --  -11.27844 -11.27587 -11.26857 -11.26847 -11.20545
 Alpha  occ. eigenvalues --  -11.20542 -11.20285 -11.20258 -11.20094 -11.19892
 Alpha  occ. eigenvalues --   -1.59992  -1.39548  -1.19454  -1.08858  -1.07278
 Alpha  occ. eigenvalues --   -1.04850  -1.02504  -0.95701  -0.94949  -0.86251
 Alpha  occ. eigenvalues --   -0.85974  -0.82536  -0.78563  -0.77595  -0.77026
 Alpha  occ. eigenvalues --   -0.72177  -0.71297  -0.70562  -0.65109  -0.64854
 Alpha  occ. eigenvalues --   -0.63919  -0.62197  -0.59916  -0.58319  -0.56554
 Alpha  occ. eigenvalues --   -0.55356  -0.54243  -0.53183  -0.52942  -0.51707
 Alpha  occ. eigenvalues --   -0.51375  -0.49034  -0.48945  -0.48836  -0.46888
 Alpha  occ. eigenvalues --   -0.45590  -0.45124  -0.44515  -0.44305  -0.42712
 Alpha  occ. eigenvalues --   -0.37431  -0.36452
 Alpha virt. eigenvalues --    0.04932   0.11202   0.16420   0.21284   0.23904
 Alpha virt. eigenvalues --    0.25138   0.27119   0.27698   0.28064   0.28883
 Alpha virt. eigenvalues --    0.29036   0.30956   0.32021   0.32571   0.32817

 Mulliken charges:
               1
     1  C   -0.170621
     2  C   -0.218590
     3  C   -0.170666
     4  C    0.158142
     5  C   -0.171106
     6  C   -0.218569
     7  H    0.225959
     8  H    0.223778
     9  H    0.275814
    10  H    0.276045
    11  H    0.223839
    12  N    0.489502
    13  O   -0.459224
    14  O   -0.460270
    15  C   -0.298106
    16  C   -0.300222
    17  C   -0.474904
    18  H    0.143173
    19  H    0.146836
    20  H    0.146237
    21  H    0.163770
    22  H    0.154128
    23  H    0.151310
    24  H    0.157647
    25  C   -0.300566
    26  C   -0.299567
    27  C   -0.473198
    28  H    0.143838
    29  H    0.174749
    30  H    0.145490
    31  H    0.149158
    32  H    0.163348
    33  H    0.149079
    34  H    0.153767
 Sum of Mulliken charges =  -0.00000

 Dipole moment (field-independent basis, Debye):
    X=             -4.6117    Y=              0.4441    Z=             -2.6604  Tot=              5.3425
 Quadrupole moment (field-independent basis, Debye-Ang):
   XX=            -75.2691   YY=            -92.6507   ZZ=            -96.1529
   XY=              1.0892   XZ=              6.1064   YZ=             -1.7261

 Normal termination of Gaussian 16 at Wed May  5 20:36:13 2021.
