 Gaussian 16, Revision A.03,
 Gaussian 16:  EM64L-G16RevA.03 25-Dec-2016

 -------------
 #p 6-31g* mp2
 -------------

 ------------------------------------------------------
 Input file generated by CHIRIPA (05-May-2021 14:51:14)
 ------------------------------------------------------
 Symbolic Z-matrix:
 Charge =  0 Multiplicity = 1

                         Standard orientation:
 ---------------------------------------------------------------------
 Center     Atomic      Atomic             Coordinates (Angstroms)
 Number     Number       Type             X           Y           Z
 ---------------------------------------------------------------------
      1          6           0       -4.932273   -0.230324   -0.153040
      2          6           0       -6.382672    0.215823   -0.340872
      3          6           0       -7.330924   -0.953428   -0.608201
      4          1           0       -4.603358   -0.773427   -1.049589
      5          1           0       -4.880507   -0.943703    0.681109
      6          1           0       -6.431475    0.929206   -1.173530
      7          1           0       -6.708110    0.758093    0.556150
      8          1           0       -7.311842   -1.663191    0.225149
      9          1           0       -7.033636   -1.491106   -1.514359
     10          1           0       -8.362425   -0.611877   -0.739384
     11          6           0       -3.972226    0.927337    0.115028
     12          6           0       -2.521827    0.481190    0.302860
     13          6           0       -1.573575    1.650440    0.570188
     14          1           0       -4.023992    1.640716   -0.719122
     15          1           0       -4.301140    1.470439    1.011577
     16          1           0       -2.196389   -0.061080   -0.594163
     17          1           0       -2.473023   -0.232193    1.135518
     18          1           0       -1.870862    2.188119    1.476346
     19          1           0       -1.592656    2.360204   -0.263162
     20          1           0       -0.542074    1.308890    0.701372
     21          6           0        3.750827   -0.245688    0.303378
     22          6           0        2.871639   -1.493545    0.214687
     23          6           0        1.471445   -1.272107    0.787590
     24          1           0        3.828077    0.066752    1.353787
     25          1           0        3.260466    0.578682   -0.232676
     26          1           0        3.364167   -2.315693    0.749573
     27          1           0        2.796629   -1.803161   -0.835612
     28          1           0        0.957055   -0.469993    0.248501
     29          1           0        1.527817   -0.985436    1.842692
     30          1           0        0.859886   -2.176786    0.714038
     31          6           0        5.153671   -0.451325   -0.265365
     32          6           0        6.032859    0.796532   -0.176674
     33          6           0        7.433053    0.575093   -0.749577
     34          1           0        5.644032   -1.275696    0.270689
     35          1           0        5.076421   -0.763765   -1.315774
     36          1           0        6.107870    1.106149    0.873624
     37          1           0        5.540331    1.618680   -0.711561
     38          1           0        7.376681    0.288423   -1.804680
     39          1           0        7.947445   -0.227020   -0.210489
     40          1           0        8.044614    1.479773   -0.676025
 ---------------------------------------------------------------------

 SCF Done:  E(RHF) =  -470.733241379     A.U. after   11 cycles
 E2 =    -0.1582366209D+01 EUMP2 =    -0.47231560758748D+03

 The electronic state is 1-A.
 Alpha  occ. eigenvalues --  -11.21609 -11.21601 -11.21580 -11.21543 -11.21410
 Alpha  occ. eigenvalues --  -11.21371 -11.21351 -11.21311 -11.21071 -11.21070
 Alpha  occ. eigenvalues --  -11.21055 -11.20988  -1.08436  -1.08393  -1.03546
 Alpha  occ. eigenvalues --   -1.03480  -0.96015  -0.95915  -0.87036  -0.86928
 Alpha  occ. eigenvalues --   -0.79602  -0.79549  -0.78250  -0.78203  -0.65069
 Alpha  occ. eigenvalues --   -0.65023  -0.60961  -0.60879  -0.59388  -0.59308
 Alpha  occ. eigenvalues --   -0.57737  -0.57435  -0.55279  -0.55215  -0.52785
 Alpha  occ. eigenvalues --   -0.52666  -0.52461  -0.52179  -0.49907  -0.49881
 Alpha  occ. eigenvalues --   -0.47993  -0.47776  -0.46625  -0.46582  -0.45785
 Alpha  occ. eigenvalues --   -0.45748  -0.45712  -0.45672  -0.43792  -0.43726
 Alpha virt. eigenvalues --    0.21943   0.23006   0.23427   0.24849   0.26384
 Alpha virt. eigenvalues --    0.26687   0.26898   0.27461   0.27798   0.28980
 Alpha virt. eigenvalues --    0.30678   0.31411   0.31675   0.31736   0.32063

 Mulliken charges:
               1
     1  C   -0.298228
     2  C   -0.299619
     3  C   -0.475682
     4  H    0.149529
     5  H    0.149540
     6  H    0.151844
     7  H    0.151912
     8  H    0.155165
     9  H    0.155116
    10  H    0.160172
    11  C   -0.298277
    12  C   -0.299119
    13  C   -0.481769
    14  H    0.149274
    15  H    0.149597
    16  H    0.151634
    17  H    0.152774
    18  H    0.155068
    19  H    0.154280
    20  H    0.165934
    21  C   -0.298423
    22  C   -0.299552
    23  C   -0.481295
    24  H    0.149693
    25  H    0.149403
    26  H    0.151966
    27  H    0.151904
    28  H    0.160973
    29  H    0.155103
    30  H    0.160911
    31  C   -0.298270
    32  C   -0.299683
    33  C   -0.475716
    34  H    0.149563
    35  H    0.149644
    36  H    0.151982
    37  H    0.152028
    38  H    0.155165
    39  H    0.155171
    40  H    0.160285
 Sum of Mulliken charges =  -0.00000

 Dipole moment (field-independent basis, Debye):
    X=              0.0197    Y=             -0.0149    Z=              0.0074  Tot=              0.0258
 Quadrupole moment (field-independent basis, Debye-Ang):
   XX=            -86.5117   YY=            -85.2875   ZZ=            -83.0662
   XY=             -0.6381   XZ=              0.3538   YZ=             -0.5333

 Normal termination of Gaussian 16 at Wed May  5 23:15:04 2021.
