 Gaussian 16, Revision A.03,
 Gaussian 16:  EM64L-G16RevA.03 25-Dec-2016

 -------------
 #p 6-31g* mp2
 -------------

 ------------------------------------------------------
 Input file generated by CHIRIPA (05-May-2021 14:55:19)
 ------------------------------------------------------
 Symbolic Z-matrix:
 Charge =  0 Multiplicity = 1

                         Standard orientation:
 ---------------------------------------------------------------------
 Center     Atomic      Atomic             Coordinates (Angstroms)
 Number     Number       Type             X           Y           Z
 ---------------------------------------------------------------------
      1          6           0        5.044783    0.877061    0.350610
      2          6           0        4.921654   -0.516094    0.372513
      3          6           0        3.687118   -1.123740    0.125057
      4          6           0        2.591563   -0.304164   -0.142042
      5          6           0        2.682277    1.086601   -0.170917
      6          6           0        3.926673    1.672560    0.079443
      7          1           0        6.007630    1.340671    0.543967
      8          1           0        5.788288   -1.136386    0.582821
      9          1           0        3.563594   -2.199865    0.135792
     10          1           0        1.800397    1.678625   -0.383555
     11          1           0        4.019340    2.754755    0.061780
     12          7           0        1.279395   -0.935972   -0.405550
     13          8           0        0.329386   -0.191707   -0.638338
     14          8           0        1.225774   -2.163484   -0.374309
     15          6           0       -3.416922   -0.424272    0.424958
     16          6           0       -4.199378   -1.581647   -0.196516
     17          6           0       -3.834051   -2.936123    0.411533
     18          1           0       -2.341156   -0.606951    0.297276
     19          1           0       -3.604155   -0.403745    1.507509
     20          1           0       -4.011816   -1.599136   -1.277779
     21          1           0       -5.273410   -1.396097   -0.067509
     22          1           0       -4.037930   -2.943111    1.487166
     23          1           0       -2.769167   -3.147303    0.270018
     24          1           0       -4.405082   -3.749305   -0.047292
     25          6           0       -3.771107    0.936358   -0.172509
     26          6           0       -2.988650    2.093735    0.448965
     27          6           0       -3.353977    3.448211   -0.159084
     28          1           0       -3.583873    0.915832   -1.255060
     29          1           0       -4.846871    1.119038   -0.044826
     30          1           0       -1.914618    1.908185    0.319958
     31          1           0       -3.176213    2.111222    1.530228
     32          1           0       -4.418861    3.659390   -0.017569
     33          1           0       -3.150098    3.455198   -1.234716
     34          1           0       -2.782946    4.261392    0.299741
 ---------------------------------------------------------------------

 SCF Done:  E(RHF) =  -669.536810949     A.U. after   15 cycles
 E2 =    -0.2091590218D+01 EUMP2 =    -0.67162840116719D+03

 The electronic state is 1-A.
 Alpha  occ. eigenvalues --  -20.61136 -20.61124 -15.86142 -11.31391 -11.27945
 Alpha  occ. eigenvalues --  -11.27941 -11.27670 -11.26935 -11.26925 -11.20574
 Alpha  occ. eigenvalues --  -11.20364 -11.20269 -11.20172 -11.19768 -11.19760
 Alpha  occ. eigenvalues --   -1.60177  -1.39736  -1.19551  -1.08970  -1.07150
 Alpha  occ. eigenvalues --   -1.04936  -1.02382  -0.95824  -0.94832  -0.86341
 Alpha  occ. eigenvalues --   -0.85857  -0.82661  -0.78460  -0.77723  -0.76931
 Alpha  occ. eigenvalues --   -0.72366  -0.71479  -0.70660  -0.65211  -0.64940
 Alpha  occ. eigenvalues --   -0.63746  -0.62284  -0.59771  -0.58239  -0.56450
 Alpha  occ. eigenvalues --   -0.55445  -0.54106  -0.53271  -0.53027  -0.51595
 Alpha  occ. eigenvalues --   -0.51274  -0.49200  -0.49121  -0.48698  -0.46782
 Alpha  occ. eigenvalues --   -0.45475  -0.45228  -0.44504  -0.44187  -0.42589
 Alpha  occ. eigenvalues --   -0.37525  -0.36533
 Alpha virt. eigenvalues --    0.04777   0.11122   0.16272   0.21135   0.24029
 Alpha virt. eigenvalues --    0.25338   0.26911   0.27493   0.28149   0.29008
 Alpha virt. eigenvalues --    0.29201   0.30908   0.31910   0.32600   0.32678

 Mulliken charges:
               1
     1  C   -0.170318
     2  C   -0.218612
     3  C   -0.170459
     4  C    0.157738
     5  C   -0.170587
     6  C   -0.218582
     7  H    0.226406
     8  H    0.224178
     9  H    0.276063
    10  H    0.275977
    11  H    0.224331
    12  N    0.490861
    13  O   -0.462304
    14  O   -0.458246
    15  C   -0.311418
    16  C   -0.297336
    17  C   -0.478104
    18  H    0.179946
    19  H    0.141030
    20  H    0.152556
    21  H    0.144898
    22  H    0.149954
    23  H    0.166761
    24  H    0.154757
    25  C   -0.294943
    26  C   -0.303005
    27  C   -0.475021
    28  H    0.150558
    29  H    0.143277
    30  H    0.161203
    31  H    0.147186
    32  H    0.153160
    33  H    0.154276
    34  H    0.153818
 Sum of Mulliken charges =  -0.00000

 Dipole moment (field-independent basis, Debye):
    X=              5.0957    Y=              2.0957    Z=              0.8483  Tot=              5.5747
 Quadrupole moment (field-independent basis, Debye-Ang):
   XX=            -71.4285   YY=            -93.8872   ZZ=            -95.6460
   XY=              2.5923   XZ=              1.9002   YZ=             -0.7737

 Normal termination of Gaussian 16 at Wed May  5 18:51:56 2021.
