 Gaussian 16, Revision A.03,
 Gaussian 16:  EM64L-G16RevA.03 25-Dec-2016

 -------------
 #p 6-31g* mp2
 -------------

 ------------------------------------------------------
 Input file generated by CHIRIPA (05-May-2021 14:51:09)
 ------------------------------------------------------
 Symbolic Z-matrix:
 Charge =  0 Multiplicity = 1

                         Standard orientation:
 ---------------------------------------------------------------------
 Center     Atomic      Atomic             Coordinates (Angstroms)
 Number     Number       Type             X           Y           Z
 ---------------------------------------------------------------------
      1          6           0        3.246809   -0.674670   -0.517776
      2          6           0        4.086184   -1.802242    0.083902
      3          6           0        3.625190   -3.188234   -0.368099
      4          1           0        2.194133   -0.821289   -0.239709
      5          1           0        3.292294   -0.737868   -1.613829
      6          1           0        4.040250   -1.736101    1.178494
      7          1           0        5.137012   -1.652817   -0.195470
      8          1           0        3.687671   -3.278764   -1.457366
      9          1           0        2.584677   -3.362522   -0.075595
     10          1           0        4.238906   -3.979373    0.073842
     11          6           0        3.695475    0.716955   -0.075276
     12          6           0        2.856100    1.844527   -0.676954
     13          6           0        3.317094    3.230518   -0.224953
     14          1           0        3.649990    0.780152    1.020777
     15          1           0        4.748151    0.863573   -0.353343
     16          1           0        1.805272    1.695101   -0.397582
     17          1           0        2.902034    1.778386   -1.771546
     18          1           0        4.357607    3.404806   -0.517457
     19          1           0        3.254614    3.321048    0.864313
     20          1           0        2.703378    4.021657   -0.666894
     21          6           0       -2.843443    0.380212    0.464873
     22          6           0       -1.817260   -0.411130    1.276484
     23          6           0       -0.567049    0.405283    1.605478
     24          1           0       -2.375556    0.728273   -0.466192
     25          1           0       -3.129463    1.280334    1.026448
     26          1           0       -1.534295   -1.310204    0.714157
     27          1           0       -2.287700   -0.757510    2.205636
     28          1           0       -0.829779    1.294518    2.187573
     29          1           0       -0.072095    0.738683    0.687619
     30          1           0        0.153137   -0.179653    2.186030
     31          6           0       -4.098841   -0.422496    0.128180
     32          6           0       -5.125024    0.368845   -0.683432
     33          6           0       -6.375235   -0.447567   -1.012426
     34          1           0       -3.812820   -1.322619   -0.433396
     35          1           0       -4.566728   -0.770557    1.059244
     36          1           0       -4.654584    0.715226   -1.612583
     37          1           0       -5.407989    1.267920   -0.121104
     38          1           0       -6.870190   -0.780968   -0.094567
     39          1           0       -6.112504   -1.336803   -1.594521
     40          1           0       -7.095421    0.137369   -1.592979
 ---------------------------------------------------------------------

 SCF Done:  E(RHF) =  -470.733230800     A.U. after   11 cycles
 E2 =    -0.1582981794D+01 EUMP2 =    -0.47231621259438D+03

 The electronic state is 1-A.
 Alpha  occ. eigenvalues --  -11.21667 -11.21622 -11.21579 -11.21549 -11.21442
 Alpha  occ. eigenvalues --  -11.21381 -11.21361 -11.21301 -11.21153 -11.21086
 Alpha  occ. eigenvalues --  -11.21061 -11.21030  -1.08473  -1.08392  -1.03580
 Alpha  occ. eigenvalues --   -1.03496  -0.96031  -0.95944  -0.87052  -0.86960
 Alpha  occ. eigenvalues --   -0.79663  -0.79548  -0.78292  -0.78198  -0.65165
 Alpha  occ. eigenvalues --   -0.64977  -0.61033  -0.60849  -0.59398  -0.59316
 Alpha  occ. eigenvalues --   -0.57644  -0.57552  -0.55337  -0.55220  -0.52727
 Alpha  occ. eigenvalues --   -0.52648  -0.52473  -0.52358  -0.50034  -0.49861
 Alpha  occ. eigenvalues --   -0.48043  -0.47825  -0.46795  -0.46511  -0.45892
 Alpha  occ. eigenvalues --   -0.45765  -0.45715  -0.45468  -0.43829  -0.43748
 Alpha virt. eigenvalues --    0.20804   0.23081   0.23967   0.24315   0.25894
 Alpha virt. eigenvalues --    0.26797   0.27076   0.27556   0.27919   0.29597
 Alpha virt. eigenvalues --    0.30295   0.31649   0.31749   0.31910   0.31957

 Mulliken charges:
               1
     1  C   -0.301413
     2  C   -0.299511
     3  C   -0.475664
     4  H    0.152784
     5  H    0.148961
     6  H    0.151831
     7  H    0.151903
     8  H    0.155051
     9  H    0.154960
    10  H    0.160197
    11  C   -0.297429
    12  C   -0.306966
    13  C   -0.475201
    14  H    0.149951
    15  H    0.149430
    16  H    0.158665
    17  H    0.151382
    18  H    0.154953
    19  H    0.155565
    20  H    0.159939
    21  C   -0.298518
    22  C   -0.299548
    23  C   -0.483647
    24  H    0.149894
    25  H    0.149687
    26  H    0.151969
    27  H    0.152287
    28  H    0.155732
    29  H    0.162165
    30  H    0.160166
    31  C   -0.298375
    32  C   -0.299724
    33  C   -0.475742
    34  H    0.149698
    35  H    0.149718
    36  H    0.152084
    37  H    0.151963
    38  H    0.155196
    39  H    0.155265
    40  H    0.160344
 Sum of Mulliken charges =  -0.00000

 Dipole moment (field-independent basis, Debye):
    X=             -0.0333    Y=              0.0067    Z=              0.0119  Tot=              0.0360
 Quadrupole moment (field-independent basis, Debye-Ang):
   XX=            -85.1980   YY=            -86.0813   ZZ=            -83.5475
   XY=             -0.7874   XZ=             -1.2182   YZ=             -0.1284

 Normal termination of Gaussian 16 at Wed May  5 16:36:35 2021.
