 Gaussian 16, Revision A.03,
 Gaussian 16:  EM64L-G16RevA.03 25-Dec-2016

 -------------
 #p 6-31g* mp2
 -------------

 ------------------------------------------------------
 Input file generated by CHIRIPA (05-May-2021 14:53:12)
 ------------------------------------------------------
 Symbolic Z-matrix:
 Charge =  0 Multiplicity = 1

                         Standard orientation:
 ---------------------------------------------------------------------
 Center     Atomic      Atomic             Coordinates (Angstroms)
 Number     Number       Type             X           Y           Z
 ---------------------------------------------------------------------
      1          6           0        3.516431    0.448593   -0.052452
      2          6           0        3.605837    1.940548   -0.375036
      3          6           0        2.234584    2.613120   -0.446496
      4          1           0        2.901798   -0.048781   -0.815204
      5          1           0        2.992753    0.318264    0.904717
      6          1           0        4.130412    2.068097   -1.330635
      7          1           0        4.220487    2.434396    0.388467
      8          1           0        1.707356    2.515384    0.508009
      9          1           0        1.616769    2.147003   -1.220860
     10          1           0        2.321908    3.679204   -0.678228
     11          6           0        4.879165   -0.237762    0.022391
     12          6           0        4.789758   -1.729717    0.344976
     13          6           0        6.161011   -2.402288    0.416435
     14          1           0        5.402842   -0.107432   -0.934777
     15          1           0        5.493797    0.259612    0.785144
     16          1           0        4.175108   -2.223564   -0.418527
     17          1           0        4.265184   -1.857265    1.300575
     18          1           0        6.778826   -1.936172    1.190800
     19          1           0        6.688239   -2.304552   -0.538070
     20          1           0        6.073687   -3.468372    0.648167
     21          6           0       -1.811679    1.957542    0.235697
     22          6           0       -1.311686    0.798013   -0.365985
     23          6           0       -2.116011   -0.338146   -0.495422
     24          6           0       -3.421436   -0.279566   -0.009909
     25          6           0       -3.948453    0.860782    0.594369
     26          6           0       -3.126150    1.985176    0.713112
     27          1           0       -1.179877    2.835568    0.332093
     28          1           0       -0.291241    0.773680   -0.737663
     29          1           0       -1.754400   -1.248979   -0.956983
     30          1           0       -4.969791    0.854781    0.955273
     31          1           0       -3.517120    2.884301    1.180830
     32          7           0       -4.282455   -1.476140   -0.141277
     33          8           0       -5.429069   -1.398985    0.294567
     34          8           0       -3.794404   -2.468511   -0.677600
 ---------------------------------------------------------------------

 SCF Done:  E(RHF) =  -669.535515534     A.U. after   15 cycles
 E2 =    -0.2091453610D+01 EUMP2 =    -0.67162696914447D+03

 The electronic state is 1-A.
 Alpha  occ. eigenvalues --  -20.60689 -20.60684 -15.85740 -11.31081 -11.27651
 Alpha  occ. eigenvalues --  -11.27631 -11.27353 -11.26661 -11.26583 -11.22596
 Alpha  occ. eigenvalues --  -11.22441 -11.22263 -11.22092 -11.22001 -11.21443
 Alpha  occ. eigenvalues --   -1.59765  -1.39319  -1.19246  -1.09208  -1.08641
 Alpha  occ. eigenvalues --   -1.04647  -1.04320  -0.96807  -0.95482  -0.87836
 Alpha  occ. eigenvalues --   -0.86040  -0.82316  -0.80415  -0.78977  -0.77370
 Alpha  occ. eigenvalues --   -0.71959  -0.71088  -0.70347  -0.65835  -0.64894
 Alpha  occ. eigenvalues --   -0.64672  -0.62045  -0.61692  -0.60179  -0.58373
 Alpha  occ. eigenvalues --   -0.56124  -0.55123  -0.53484  -0.53298  -0.52977
 Alpha  occ. eigenvalues --   -0.52674  -0.50744  -0.48780  -0.48717  -0.48631
 Alpha  occ. eigenvalues --   -0.47419  -0.46521  -0.46408  -0.44730  -0.44555
 Alpha  occ. eigenvalues --   -0.37222  -0.36250
 Alpha virt. eigenvalues --    0.05156   0.11367   0.16649   0.19844   0.22382
 Alpha virt. eigenvalues --    0.23687   0.24990   0.25785   0.26731   0.27762
 Alpha virt. eigenvalues --    0.29185   0.29853   0.30924   0.31569   0.31634

 Mulliken charges:
               1
     1  C   -0.300232
     2  C   -0.299450
     3  C   -0.484419
     4  H    0.146012
     5  H    0.150998
     6  H    0.155946
     7  H    0.156064
     8  H    0.153594
     9  H    0.151411
    10  H    0.165430
    11  C   -0.298809
    12  C   -0.300465
    13  C   -0.476253
    14  H    0.151150
    15  H    0.151487
    16  H    0.152506
    17  H    0.153161
    18  H    0.155814
    19  H    0.155892
    20  H    0.162596
    21  C   -0.175110
    22  C   -0.223513
    23  C   -0.172222
    24  C    0.158741
    25  C   -0.171396
    26  C   -0.218609
    27  H    0.228646
    28  H    0.231225
    29  H    0.275320
    30  H    0.275103
    31  H    0.222907
    32  N    0.488017
    33  O   -0.460802
    34  O   -0.460741
 Sum of Mulliken charges =  -0.00000

 Dipole moment (field-independent basis, Debye):
    X=              3.3315    Y=              4.2284    Z=              0.4879  Tot=              5.4052
 Quadrupole moment (field-independent basis, Debye-Ang):
   XX=           -112.9296   YY=            -96.5558   ZZ=            -93.5096
   XY=            -16.8807   XZ=             -3.5530   YZ=              1.3736

 Normal termination of Gaussian 16 at Thu May  6 08:49:10 2021.
