 Gaussian 16, Revision A.03,
 Gaussian 16:  EM64L-G16RevA.03 25-Dec-2016

 -------------
 #p 6-31g* mp2
 -------------

 ------------------------------------------------------
 Input file generated by CHIRIPA (05-May-2021 14:57:22)
 ------------------------------------------------------
 Symbolic Z-matrix:
 Charge =  0 Multiplicity = 1

                         Standard orientation:
 ---------------------------------------------------------------------
 Center     Atomic      Atomic             Coordinates (Angstroms)
 Number     Number       Type             X           Y           Z
 ---------------------------------------------------------------------
      1          6           0        1.161193   -2.143118    0.595620
      2          6           0        0.863690   -1.119985   -0.310588
      3          6           0        1.829801   -0.167585   -0.648392
      4          6           0        3.088773   -0.268841   -0.058453
      5          6           0        3.415651   -1.276416    0.847767
      6          6           0        2.433980   -2.217936    1.170891
      7          1           0        0.404651   -2.878740    0.852332
      8          1           0       -0.123928   -1.059410   -0.758903
      9          1           0        1.626369    0.634901   -1.346997
     10          1           0        4.409063   -1.310767    1.278314
     11          1           0        2.667842   -3.011424    1.874972
     12          7           0        4.119787    0.733663   -0.408300
     13          8           0        5.221424    0.622476    0.125245
     14          8           0        3.806738    1.611630   -1.209431
     15          6           0       -1.686194    2.441696    0.904072
     16          6           0       -1.440562    1.997611   -0.399376
     17          6           0       -2.117736    0.886332   -0.910301
     18          6           0       -3.038017    0.239976   -0.086532
     19          6           0       -3.304617    0.658276    1.216250
     20          6           0       -2.615799    1.771792    1.706310
     21          1           0       -1.155627    3.305833    1.292866
     22          1           0       -0.719166    2.515916   -1.024668
     23          1           0       -1.946873    0.521223   -1.915746
     24          1           0       -4.029496    0.121053    1.815716
     25          1           0       -2.808582    2.114441    2.718966
     26          7           0       -3.761074   -0.937670   -0.616381
     27          8           0       -4.566984   -1.489760    0.129502
     28          8           0       -3.508205   -1.286318   -1.767527
 ---------------------------------------------------------------------

 SCF Done:  E(RHF) =  -868.337361726     A.U. after   16 cycles
 E2 =    -0.2602093046D+01 EUMP2 =    -0.87093945477154D+03

 The electronic state is 1-A.
 Alpha  occ. eigenvalues --  -20.61666 -20.61654 -20.61078 -20.61055 -15.86704
 Alpha  occ. eigenvalues --  -15.86117 -11.32033 -11.31383 -11.28601 -11.28534
 Alpha  occ. eigenvalues --  -11.28193 -11.27955 -11.27889 -11.27543 -11.27539
 Alpha  occ. eigenvalues --  -11.27497 -11.26883 -11.26803  -1.60742  -1.60145
 Alpha  occ. eigenvalues --   -1.40294  -1.39703  -1.20187  -1.19514  -1.09554
 Alpha  occ. eigenvalues --   -1.08914  -1.05594  -1.04892  -0.96407  -0.95778
 Alpha  occ. eigenvalues --   -0.86972  -0.86290  -0.83241  -0.82617  -0.78330
 Alpha  occ. eigenvalues --   -0.77695  -0.72906  -0.72336  -0.72086  -0.71468
 Alpha  occ. eigenvalues --   -0.71237  -0.70606  -0.65812  -0.65573  -0.65159
 Alpha  occ. eigenvalues --   -0.64875  -0.62974  -0.62239  -0.55988  -0.55374
 Alpha  occ. eigenvalues --   -0.54031  -0.53662  -0.53180  -0.52840  -0.49683
 Alpha  occ. eigenvalues --   -0.49661  -0.49104  -0.49077  -0.45696  -0.45132
 Alpha  occ. eigenvalues --   -0.38113  -0.37483  -0.37322  -0.36281
 Alpha virt. eigenvalues --    0.04160   0.04840   0.10245   0.11242   0.15639
 Alpha virt. eigenvalues --    0.16413   0.19756   0.21904   0.25234   0.27014
 Alpha virt. eigenvalues --    0.27988   0.29060   0.29659   0.31155   0.31985

 Mulliken charges:
               1
     1  C   -0.173308
     2  C   -0.215237
     3  C   -0.174458
     4  C    0.158287
     5  C   -0.172128
     6  C   -0.218312
     7  H    0.230208
     8  H    0.229378
     9  H    0.266169
    10  H    0.275358
    11  H    0.224353
    12  N    0.488221
    13  O   -0.459136
    14  O   -0.464410
    15  C   -0.169103
    16  C   -0.216386
    17  C   -0.189059
    18  C    0.159913
    19  C   -0.171287
    20  C   -0.217156
    21  H    0.232123
    22  H    0.229442
    23  H    0.274862
    24  H    0.277136
    25  H    0.227062
    26  N    0.486943
    27  O   -0.457317
    28  O   -0.462157
 Sum of Mulliken charges =  -0.00000

 Dipole moment (field-independent basis, Debye):
    X=             -1.2693    Y=              0.6965    Z=              3.3285  Tot=              3.6298
 Quadrupole moment (field-independent basis, Debye-Ang):
   XX=           -140.4527   YY=           -100.3833   ZZ=           -100.2355
   XY=            -23.8708   XZ=             -2.2367   YZ=             -1.9207

 Normal termination of Gaussian 16 at Thu May  6 09:41:33 2021.
