 Gaussian 16, Revision A.03,
 Gaussian 16:  EM64L-G16RevA.03 25-Dec-2016

 -------------
 #p 6-31g* mp2
 -------------

 ------------------------------------------------------
 Input file generated by CHIRIPA (05-May-2021 14:53:12)
 ------------------------------------------------------
 Symbolic Z-matrix:
 Charge =  0 Multiplicity = 1

                         Standard orientation:
 ---------------------------------------------------------------------
 Center     Atomic      Atomic             Coordinates (Angstroms)
 Number     Number       Type             X           Y           Z
 ---------------------------------------------------------------------
      1          6           0       -2.444398    1.405496   -0.055207
      2          6           0       -1.341166    2.140394    0.706887
      3          6           0       -1.529735    3.657700    0.702779
      4          1           0       -2.471194    1.770283   -1.091140
      5          1           0       -3.417319    1.656206    0.389722
      6          1           0       -0.370494    1.887286    0.261524
      7          1           0       -1.316866    1.773678    1.741075
      8          1           0       -2.484072    3.928552    1.165900
      9          1           0       -1.532322    4.042805   -0.322058
     10          1           0       -0.730026    4.163133    1.253110
     11          6           0       -2.269759   -0.112136   -0.060034
     12          6           0       -3.372991   -0.847035   -0.822129
     13          6           0       -3.184421   -2.364341   -0.818020
     14          1           0       -1.296837   -0.362847   -0.504963
     15          1           0       -2.242963   -0.476923    0.975899
     16          1           0       -3.397290   -0.480319   -1.856317
     17          1           0       -4.343662   -0.593926   -0.376765
     18          1           0       -3.181834   -2.749445    0.206816
     19          1           0       -2.230084   -2.635192   -1.281142
     20          1           0       -3.984130   -2.869773   -1.368351
     21          6           0        0.831555   -2.115207    1.704515
     22          6           0        0.707087   -2.354792    0.332061
     23          6           0        1.262655   -1.469521   -0.596480
     24          6           0        1.939102   -0.349571   -0.115418
     25          6           0        2.079988   -0.083404    1.245683
     26          6           0        1.516400   -0.982276    2.156149
     27          1           0        0.396861   -2.808189    2.418808
     28          1           0        0.175770   -3.233825   -0.021559
     29          1           0        1.181187   -1.630768   -1.664553
     30          1           0        2.615361    0.801453    1.567893
     31          1           0        1.614624   -0.793671    3.221431
     32          7           0        2.531501    0.594825   -1.088855
     33          8           0        3.122613    1.574247   -0.639462
     34          8           0        2.393496    0.337737   -2.282797
 ---------------------------------------------------------------------

 SCF Done:  E(RHF) =  -669.533854012     A.U. after   15 cycles
 E2 =    -0.2096018744D+01 EUMP2 =    -0.67162987275633D+03

 The electronic state is 1-A.
 Alpha  occ. eigenvalues --  -20.60858 -20.60847 -15.85905 -11.31250 -11.27819
 Alpha  occ. eigenvalues --  -11.27785 -11.27536 -11.26837 -11.26787 -11.21856
 Alpha  occ. eigenvalues --  -11.21656 -11.21535 -11.21380 -11.21319 -11.20906
 Alpha  occ. eigenvalues --   -1.59932  -1.39484  -1.19435  -1.08823  -1.08503
 Alpha  occ. eigenvalues --   -1.04839  -1.03657  -0.96113  -0.95662  -0.87141
 Alpha  occ. eigenvalues --   -0.86223  -0.82495  -0.79734  -0.78320  -0.77538
 Alpha  occ. eigenvalues --   -0.72120  -0.71263  -0.70530  -0.65184  -0.65050
 Alpha  occ. eigenvalues --   -0.64827  -0.62188  -0.61062  -0.59494  -0.57731
 Alpha  occ. eigenvalues --   -0.55445  -0.55310  -0.53367  -0.52950  -0.52748
 Alpha  occ. eigenvalues --   -0.52482  -0.50077  -0.48880  -0.48878  -0.48080
 Alpha  occ. eigenvalues --   -0.46783  -0.45811  -0.45669  -0.44880  -0.43868
 Alpha  occ. eigenvalues --   -0.37361  -0.36281
 Alpha virt. eigenvalues --    0.04951   0.11105   0.16366   0.20569   0.22918
 Alpha virt. eigenvalues --    0.23938   0.25823   0.26717   0.27252   0.28205
 Alpha virt. eigenvalues --    0.28678   0.30203   0.31394   0.31777   0.32404

 Mulliken charges:
               1
     1  C   -0.298849
     2  C   -0.299829
     3  C   -0.475428
     4  H    0.152390
     5  H    0.147856
     6  H    0.153288
     7  H    0.146911
     8  H    0.153029
     9  H    0.158891
    10  H    0.161050
    11  C   -0.302477
    12  C   -0.299456
    13  C   -0.474794
    14  H    0.157761
    15  H    0.144482
    16  H    0.154631
    17  H    0.152376
    18  H    0.150736
    19  H    0.147062
    20  H    0.162738
    21  C   -0.170738
    22  C   -0.210756
    23  C   -0.181173
    24  C    0.163249
    25  C   -0.170192
    26  C   -0.216953
    27  H    0.225857
    28  H    0.226121
    29  H    0.275372
    30  H    0.275854
    31  H    0.223730
    32  N    0.488053
    33  O   -0.460036
    34  O   -0.460755
 Sum of Mulliken charges =  -0.00000

 Dipole moment (field-independent basis, Debye):
    X=             -1.9973    Y=             -3.3007    Z=              3.4279  Tot=              5.1608
 Quadrupole moment (field-independent basis, Debye-Ang):
   XX=           -102.9322   YY=            -92.5423   ZZ=            -92.2433
   XY=             -4.7123   XZ=              8.1269   YZ=              1.2379

 Normal termination of Gaussian 16 at Thu May  6 02:31:54 2021.
