 Gaussian 16, Revision A.03,
 Gaussian 16:  EM64L-G16RevA.03 25-Dec-2016

 -------------
 #p 6-31g* mp2
 -------------

 ------------------------------------------------------
 Input file generated by CHIRIPA (05-May-2021 14:51:09)
 ------------------------------------------------------
 Symbolic Z-matrix:
 Charge =  0 Multiplicity = 1

                         Standard orientation:
 ---------------------------------------------------------------------
 Center     Atomic      Atomic             Coordinates (Angstroms)
 Number     Number       Type             X           Y           Z
 ---------------------------------------------------------------------
      1          6           0        3.621745    0.791974    0.006403
      2          6           0        4.893433    1.638246   -0.061541
      3          6           0        4.644480    3.107809    0.279346
      4          1           0        2.874596    1.208309   -0.683074
      5          1           0        3.192691    0.867750    1.015148
      6          1           0        5.320716    1.559791   -1.069454
      7          1           0        5.637708    1.219734    0.628037
      8          1           0        4.239922    3.205190    1.291991
      9          1           0        3.921128    3.547179   -0.415145
     10          1           0        5.566823    3.694451    0.224627
     11          6           0        3.854468   -0.679477   -0.331830
     12          6           0        2.582780   -1.525750   -0.263886
     13          6           0        2.831733   -2.995312   -0.604772
     14          1           0        4.283522   -0.755253   -1.340575
     15          1           0        4.601616   -1.095813    0.357647
     16          1           0        1.838504   -1.107237   -0.953464
     17          1           0        2.155497   -1.447294    0.744027
     18          1           0        3.555084   -3.434682    0.089718
     19          1           0        3.236291   -3.092693   -1.617418
     20          1           0        1.909390   -3.581954   -0.550054
     21          6           0       -4.212755    0.221701   -0.367272
     22          6           0       -5.478452    0.846870    0.220230
     23          6           0       -6.418067    1.398463   -0.852460
     24          1           0       -3.684202    0.974741   -0.967695
     25          1           0       -4.496859   -0.584971   -1.057171
     26          1           0       -5.192005    1.651208    0.909870
     27          1           0       -6.003953    0.092309    0.819480
     28          1           0       -6.732440    0.602638   -1.535418
     29          1           0       -5.915878    2.170395   -1.444515
     30          1           0       -7.316349    1.840702   -0.410448
     31          6           0       -3.263458   -0.334198    0.692699
     32          6           0       -1.997761   -0.959367    0.105197
     33          6           0       -1.058146   -1.510960    1.177887
     34          1           0       -2.979354    0.472475    1.382598
     35          1           0       -3.792011   -1.087238    1.293122
     36          1           0       -1.472260   -0.204805   -0.494054
     37          1           0       -2.284208   -1.763705   -0.584444
     38          1           0       -1.560335   -2.282892    1.769941
     39          1           0       -0.743773   -0.715134    1.860845
     40          1           0       -0.159864   -1.953198    0.735875
 ---------------------------------------------------------------------

 SCF Done:  E(RHF) =  -470.732800260     A.U. after   11 cycles
 E2 =    -0.1582917399D+01 EUMP2 =    -0.47231571765935D+03

 The electronic state is 1-A.
 Alpha  occ. eigenvalues --  -11.21607 -11.21587 -11.21580 -11.21562 -11.21407
 Alpha  occ. eigenvalues --  -11.21380 -11.21347 -11.21320 -11.21100 -11.21081
 Alpha  occ. eigenvalues --  -11.21061 -11.20948  -1.08444  -1.08396  -1.03572
 Alpha  occ. eigenvalues --   -1.03470  -0.96019  -0.95920  -0.87018  -0.86954
 Alpha  occ. eigenvalues --   -0.79674  -0.79507  -0.78257  -0.78215  -0.65068
 Alpha  occ. eigenvalues --   -0.65032  -0.60950  -0.60890  -0.59649  -0.59114
 Alpha  occ. eigenvalues --   -0.57782  -0.57345  -0.55279  -0.55229  -0.52747
 Alpha  occ. eigenvalues --   -0.52583  -0.52421  -0.52353  -0.49945  -0.49875
 Alpha  occ. eigenvalues --   -0.48000  -0.47781  -0.46682  -0.46553  -0.45780
 Alpha  occ. eigenvalues --   -0.45761  -0.45730  -0.45660  -0.43824  -0.43665
 Alpha virt. eigenvalues --    0.21793   0.23082   0.23387   0.25012   0.26223
 Alpha virt. eigenvalues --    0.26544   0.26758   0.27450   0.27671   0.29046
 Alpha virt. eigenvalues --    0.30736   0.30916   0.31384   0.31848   0.32029

 Mulliken charges:
               1
     1  C   -0.298265
     2  C   -0.299659
     3  C   -0.475692
     4  H    0.149362
     5  H    0.149626
     6  H    0.151954
     7  H    0.152007
     8  H    0.155145
     9  H    0.155061
    10  H    0.160303
    11  C   -0.297463
    12  C   -0.304344
    13  C   -0.478039
    14  H    0.149328
    15  H    0.149646
    16  H    0.152664
    17  H    0.155824
    18  H    0.155665
    19  H    0.155642
    20  H    0.160879
    21  C   -0.298216
    22  C   -0.299615
    23  C   -0.475681
    24  H    0.149493
    25  H    0.149406
    26  H    0.151916
    27  H    0.151911
    28  H    0.155137
    29  H    0.155123
    30  H    0.160206
    31  C   -0.298390
    32  C   -0.299323
    33  C   -0.483658
    34  H    0.149494
    35  H    0.149586
    36  H    0.151796
    37  H    0.151370
    38  H    0.153956
    39  H    0.154046
    40  H    0.171799
 Sum of Mulliken charges =  -0.00000

 Dipole moment (field-independent basis, Debye):
    X=              0.0333    Y=             -0.0080    Z=              0.0007  Tot=              0.0342
 Quadrupole moment (field-independent basis, Debye-Ang):
   XX=            -85.2376   YY=            -85.3181   ZZ=            -84.3134
   XY=              0.7258   XZ=             -0.2503   YZ=             -0.0976

 Normal termination of Gaussian 16 at Wed May  5 15:07:57 2021.
