 Gaussian 16, Revision A.03,
 Gaussian 16:  EM64L-G16RevA.03 25-Dec-2016

 -------------
 #p 6-31g* mp2
 -------------

 ------------------------------------------------------
 Input file generated by CHIRIPA (05-May-2021 14:53:18)
 ------------------------------------------------------
 Symbolic Z-matrix:
 Charge =  0 Multiplicity = 1

                         Standard orientation:
 ---------------------------------------------------------------------
 Center     Atomic      Atomic             Coordinates (Angstroms)
 Number     Number       Type             X           Y           Z
 ---------------------------------------------------------------------
      1          6           0       -5.300994   -0.454984    0.141608
      2          6           0       -6.270176    0.493282   -0.565119
      3          6           0       -7.686531   -0.074254   -0.663273
      4          1           0       -5.277342   -1.412656   -0.396211
      5          1           0       -5.680755   -0.671894    1.149638
      6          1           0       -5.887990    0.709435   -1.571016
      7          1           0       -6.291378    1.448874   -0.025665
      8          1           0       -8.091767   -0.273286    0.334109
      9          1           0       -7.686088   -1.016926   -1.220022
     10          1           0       -8.362802    0.619856   -1.171928
     11          6           0       -3.881023    0.098369    0.247492
     12          6           0       -2.911841   -0.849897    0.954219
     13          6           0       -1.495485   -0.282361    1.052372
     14          1           0       -3.501261    0.315279   -0.760539
     15          1           0       -3.904675    1.056041    0.785311
     16          1           0       -2.890638   -1.805489    0.414765
     17          1           0       -3.294026   -1.066050    1.960116
     18          1           0       -1.495928    0.660311    1.609122
     19          1           0       -1.090249   -0.083329    0.054991
     20          1           0       -0.819215   -0.976471    1.561028
     21          6           0        2.547043    2.436099   -0.053440
     22          6           0        3.920104    2.279403    0.162593
     23          6           0        4.506924    1.011545    0.110398
     24          6           0        3.687237   -0.082743   -0.161519
     25          6           0        2.316203    0.040971   -0.381175
     26          6           0        1.750878    1.318353   -0.324158
     27          1           0        2.099535    3.424700   -0.011021
     28          1           0        4.540862    3.145669    0.373039
     29          1           0        5.567237    0.861643    0.273747
     30          1           0        1.723176   -0.841425   -0.588818
     31          1           0        0.684261    1.437047   -0.492340
     32          7           0        4.297100   -1.430009   -0.219329
     33          8           0        3.553194   -2.378157   -0.460696
     34          8           0        5.507468   -1.512338   -0.022178
 ---------------------------------------------------------------------

 SCF Done:  E(RHF) =  -669.535345440     A.U. after   15 cycles
 E2 =    -0.2091247150D+01 EUMP2 =    -0.67162659259014D+03

 The electronic state is 1-A.
 Alpha  occ. eigenvalues --  -20.60705 -20.60700 -15.85758 -11.31101 -11.27671
 Alpha  occ. eigenvalues --  -11.27644 -11.27400 -11.26689 -11.26623 -11.22180
 Alpha  occ. eigenvalues --  -11.21961 -11.21946 -11.21931 -11.21773 -11.21352
 Alpha  occ. eigenvalues --   -1.59781  -1.39335  -1.19269  -1.08920  -1.08669
 Alpha  occ. eigenvalues --   -1.04671  -1.04039  -0.96516  -0.95508  -0.87545
 Alpha  occ. eigenvalues --   -0.86065  -0.82345  -0.80115  -0.78719  -0.77386
 Alpha  occ. eigenvalues --   -0.71976  -0.71104  -0.70382  -0.65553  -0.64921
 Alpha  occ. eigenvalues --   -0.64684  -0.62083  -0.61398  -0.59870  -0.58105
 Alpha  occ. eigenvalues --   -0.55824  -0.55170  -0.53245  -0.53095  -0.52951
 Alpha  occ. eigenvalues --   -0.52597  -0.50460  -0.48739  -0.48732  -0.48407
 Alpha  occ. eigenvalues --   -0.47131  -0.46263  -0.46172  -0.44746  -0.44278
 Alpha  occ. eigenvalues --   -0.37253  -0.36255
 Alpha virt. eigenvalues --    0.05129   0.11374   0.16596   0.20328   0.22542
 Alpha virt. eigenvalues --    0.23825   0.25489   0.26358   0.27128   0.28251
 Alpha virt. eigenvalues --    0.29213   0.30236   0.31104   0.31502   0.32278

 Mulliken charges:
               1
     1  C   -0.298736
     2  C   -0.299927
     3  C   -0.476007
     4  H    0.151505
     5  H    0.150955
     6  H    0.151713
     7  H    0.151569
     8  H    0.155899
     9  H    0.156223
    10  H    0.160950
    11  C   -0.298722
    12  C   -0.300171
    13  C   -0.479422
    14  H    0.147314
    15  H    0.148748
    16  H    0.155823
    17  H    0.155543
    18  H    0.155423
    19  H    0.144411
    20  H    0.168116
    21  C   -0.171741
    22  C   -0.218548
    23  C   -0.171278
    24  C    0.158339
    25  C   -0.172090
    26  C   -0.219492
    27  H    0.225304
    28  H    0.222958
    29  H    0.275207
    30  H    0.275646
    31  H    0.227824
    32  N    0.488166
    33  O   -0.460736
    34  O   -0.460766
 Sum of Mulliken charges =  -0.00000

 Dipole moment (field-independent basis, Debye):
    X=             -2.3321    Y=              4.6933    Z=              0.2744  Tot=              5.2480
 Quadrupole moment (field-independent basis, Debye-Ang):
   XX=           -107.3589   YY=            -95.1512   ZZ=            -94.6127
   XY=             19.6783   XZ=              1.6825   YZ=             -0.0251

 Normal termination of Gaussian 16 at Thu May  6 13:59:15 2021.
