 Gaussian 16, Revision A.03,
 Gaussian 16:  EM64L-G16RevA.03 25-Dec-2016

 -------------
 #p 6-31g* mp2
 -------------

 ------------------------------------------------------
 Input file generated by CHIRIPA (05-May-2021 14:51:10)
 ------------------------------------------------------
 Symbolic Z-matrix:
 Charge =  0 Multiplicity = 1

                         Standard orientation:
 ---------------------------------------------------------------------
 Center     Atomic      Atomic             Coordinates (Angstroms)
 Number     Number       Type             X           Y           Z
 ---------------------------------------------------------------------
      1          6           0        3.090717    0.407221    0.325398
      2          6           0        3.808128    1.299396   -0.688175
      3          6           0        4.223489    2.647809   -0.099065
      4          1           0        2.203160    0.932843    0.703430
      5          1           0        3.748923    0.243587    1.189911
      6          1           0        3.149296    1.460164   -1.551141
      7          1           0        4.693975    0.771511   -1.063981
      8          1           0        4.900846    2.505396    0.749172
      9          1           0        3.347391    3.197961    0.259245
     10          1           0        4.734592    3.269606   -0.840687
     11          6           0        2.669230   -0.944278   -0.248648
     12          6           0        1.951818   -1.836453    0.764925
     13          6           0        1.536458   -3.184866    0.175815
     14          1           0        2.011024   -0.780644   -1.113161
     15          1           0        3.556787   -1.469900   -0.626680
     16          1           0        1.065972   -1.308568    1.140731
     17          1           0        2.610651   -1.997221    1.627890
     18          1           0        2.412556   -3.735018   -0.182495
     19          1           0        0.859100   -3.042453   -0.672422
     20          1           0        1.025355   -3.806663    0.917437
     21          6           0       -3.123465    0.944135   -0.298565
     22          6           0       -2.750113    2.114737    0.611537
     23          6           0       -3.244155    3.459589    0.077602
     24          1           0       -2.705879    1.118582   -1.299632
     25          1           0       -4.215540    0.914120   -0.416320
     26          1           0       -1.659162    2.141696    0.728655
     27          1           0       -3.168475    1.937391    1.610606
     28          1           0       -4.334368    3.457305   -0.022559
     29          1           0       -2.816481    3.662771   -0.909521
     30          1           0       -2.966378    4.282479    0.743598
     31          6           0       -2.636481   -0.407078    0.221816
     32          6           0       -3.009834   -1.577679   -0.688287
     33          6           0       -2.515791   -2.922532   -0.154352
     34          1           0       -1.544406   -0.377064    0.339570
     35          1           0       -3.054068   -0.581524    1.222882
     36          1           0       -2.591472   -1.400334   -1.687356
     37          1           0       -4.100784   -1.604639   -0.805405
     38          1           0       -2.943466   -3.125715    0.832771
     39          1           0       -1.425578   -2.920248   -0.054191
     40          1           0       -2.793569   -3.745423   -0.820348
 ---------------------------------------------------------------------

 SCF Done:  E(RHF) =  -470.732982438     A.U. after   11 cycles
 E2 =    -0.1583397927D+01 EUMP2 =    -0.47231638036476D+03

 The electronic state is 1-A.
 Alpha  occ. eigenvalues --  -11.21660 -11.21642 -11.21641 -11.21596 -11.21460
 Alpha  occ. eigenvalues --  -11.21437 -11.21400 -11.21378 -11.21110 -11.21101
 Alpha  occ. eigenvalues --  -11.21101 -11.20962  -1.08490  -1.08446  -1.03601
 Alpha  occ. eigenvalues --   -1.03517  -0.96067  -0.95949  -0.87103  -0.86945
 Alpha  occ. eigenvalues --   -0.79667  -0.79575  -0.78303  -0.78261  -0.65234
 Alpha  occ. eigenvalues --   -0.64985  -0.61193  -0.60756  -0.59408  -0.59336
 Alpha  occ. eigenvalues --   -0.57645  -0.57591  -0.55579  -0.55050  -0.52758
 Alpha  occ. eigenvalues --   -0.52661  -0.52451  -0.52381  -0.50224  -0.49655
 Alpha  occ. eigenvalues --   -0.47988  -0.47876  -0.46722  -0.46545  -0.45959
 Alpha  occ. eigenvalues --   -0.45782  -0.45769  -0.45595  -0.43833  -0.43793
 Alpha virt. eigenvalues --    0.19849   0.23242   0.23531   0.24904   0.25536
 Alpha virt. eigenvalues --    0.26785   0.27084   0.27355   0.28913   0.29317
 Alpha virt. eigenvalues --    0.30670   0.31280   0.31587   0.31724   0.32072

 Mulliken charges:
               1
     1  C   -0.298263
     2  C   -0.299682
     3  C   -0.475737
     4  H    0.149137
     5  H    0.149894
     6  H    0.151772
     7  H    0.152126
     8  H    0.155324
     9  H    0.155213
    10  H    0.160400
    11  C   -0.298305
    12  C   -0.304415
    13  C   -0.479378
    14  H    0.149147
    15  H    0.150078
    16  H    0.155123
    17  H    0.152768
    18  H    0.156439
    19  H    0.156750
    20  H    0.161867
    21  C   -0.298177
    22  C   -0.299480
    23  C   -0.475734
    24  H    0.149433
    25  H    0.149919
    26  H    0.151037
    27  H    0.152200
    28  H    0.155381
    29  H    0.155148
    30  H    0.160371
    31  C   -0.301435
    32  C   -0.299199
    33  C   -0.484866
    34  H    0.151276
    35  H    0.149955
    36  H    0.151051
    37  H    0.151982
    38  H    0.154488
    39  H    0.166600
    40  H    0.159792
 Sum of Mulliken charges =  -0.00000

 Dipole moment (field-independent basis, Debye):
    X=              0.0342    Y=             -0.0170    Z=              0.0128  Tot=              0.0403
 Quadrupole moment (field-independent basis, Debye-Ang):
   XX=            -83.3897   YY=            -86.6623   ZZ=            -84.5934
   XY=             -0.4206   XZ=             -0.3818   YZ=             -0.2203

 Normal termination of Gaussian 16 at Thu May  6 05:24:23 2021.
