 Gaussian 16, Revision A.03,
 Gaussian 16:  EM64L-G16RevA.03 25-Dec-2016

 -------------
 #p 6-31g* mp2
 -------------

 ------------------------------------------------------
 Input file generated by CHIRIPA (05-May-2021 14:55:24)
 ------------------------------------------------------
 Symbolic Z-matrix:
 Charge =  0 Multiplicity = 1

                         Standard orientation:
 ---------------------------------------------------------------------
 Center     Atomic      Atomic             Coordinates (Angstroms)
 Number     Number       Type             X           Y           Z
 ---------------------------------------------------------------------
      1          6           0        1.782067    2.194975   -1.093945
      2          6           0        3.053531    2.064457   -0.525731
      3          6           0        3.470302    0.841621    0.008611
      4          6           0        2.586016   -0.234827   -0.042271
      5          6           0        1.312976   -0.136329   -0.601696
      6          6           0        0.917372    1.096103   -1.130050
      7          1           0        1.466531    3.148631   -1.506709
      8          1           0        3.727170    2.916155   -0.496313
      9          1           0        4.449112    0.712748    0.454415
     10          1           0        0.663648   -1.003262   -0.616492
     11          1           0       -0.070641    1.194548   -1.570712
     12          7           0        3.016028   -1.534468    0.520244
     13          8           0        2.218237   -2.467692    0.463150
     14          8           0        4.142720   -1.595294    1.007585
     15          6           0       -3.304090   -0.711033    0.352885
     16          6           0       -3.514223   -1.612249   -0.864341
     17          6           0       -3.682090   -3.084614   -0.487833
     18          1           0       -2.418399   -1.052886    0.905724
     19          1           0       -4.159367   -0.821101    1.033901
     20          1           0       -2.659461   -1.499471   -1.543516
     21          1           0       -4.399406   -1.268093   -1.414453
     22          1           0       -4.546087   -3.217614    0.171273
     23          1           0       -2.796256   -3.450307    0.041477
     24          1           0       -3.831027   -3.710882   -1.372969
     25          6           0       -3.134680    0.763846   -0.007336
     26          6           0       -2.924547    1.665064    1.209889
     27          6           0       -2.756681    3.137428    0.833382
     28          1           0       -2.279404    0.873914   -0.688352
     29          1           0       -4.020371    1.105700   -0.560175
     30          1           0       -2.039365    1.320908    1.760002
     31          1           0       -3.779309    1.552285    1.889065
     32          1           0       -3.642514    3.503120    0.304072
     33          1           0       -1.892683    3.270428    0.174276
     34          1           0       -2.607743    3.763695    1.718518
 ---------------------------------------------------------------------

 SCF Done:  E(RHF) =  -669.535537966     A.U. after   15 cycles
 E2 =    -0.2092087282D+01 EUMP2 =    -0.67162762524831D+03

 The electronic state is 1-A.
 Alpha  occ. eigenvalues --  -20.60807 -20.60802 -15.85861 -11.31234 -11.27809
 Alpha  occ. eigenvalues --  -11.27802 -11.27545 -11.26815 -11.26801 -11.22156
 Alpha  occ. eigenvalues --  -11.22080 -11.22041 -11.21839 -11.21716 -11.21242
 Alpha  occ. eigenvalues --   -1.59882  -1.39436  -1.19407  -1.08977  -1.08797
 Alpha  occ. eigenvalues --   -1.04812  -1.04001  -0.96454  -0.95633  -0.87465
 Alpha  occ. eigenvalues --   -0.86210  -0.82468  -0.80072  -0.78799  -0.77511
 Alpha  occ. eigenvalues --   -0.72079  -0.71205  -0.70512  -0.65683  -0.65056
 Alpha  occ. eigenvalues --   -0.64790  -0.62155  -0.61389  -0.59822  -0.58061
 Alpha  occ. eigenvalues --   -0.55762  -0.55299  -0.53134  -0.53117  -0.52977
 Alpha  occ. eigenvalues --   -0.52815  -0.50387  -0.48842  -0.48833  -0.48378
 Alpha  occ. eigenvalues --   -0.47108  -0.46323  -0.46239  -0.44840  -0.44278
 Alpha  occ. eigenvalues --   -0.37382  -0.36405
 Alpha virt. eigenvalues --    0.05009   0.11157   0.16415   0.18723   0.22742
 Alpha virt. eigenvalues --    0.23539   0.24838   0.26483   0.27006   0.28418
 Alpha virt. eigenvalues --    0.29692   0.30711   0.31265   0.31364   0.31961

 Mulliken charges:
               1
     1  C   -0.171780
     2  C   -0.218479
     3  C   -0.170678
     4  C    0.158690
     5  C   -0.173747
     6  C   -0.221899
     7  H    0.226429
     8  H    0.223744
     9  H    0.275816
    10  H    0.276175
    11  H    0.229349
    12  N    0.488114
    13  O   -0.460623
    14  O   -0.460193
    15  C   -0.300914
    16  C   -0.299061
    17  C   -0.477072
    18  H    0.153050
    19  H    0.153265
    20  H    0.144870
    21  H    0.152814
    22  H    0.156362
    23  H    0.160956
    24  H    0.161789
    25  C   -0.300434
    26  C   -0.300360
    27  C   -0.474720
    28  H    0.139055
    29  H    0.151814
    30  H    0.155840
    31  H    0.155402
    32  H    0.156171
    33  H    0.147038
    34  H    0.163217
 Sum of Mulliken charges =  -0.00000

 Dipole moment (field-independent basis, Debye):
    X=             -1.6056    Y=              4.5139    Z=             -1.8627  Tot=              5.1403
 Quadrupole moment (field-independent basis, Debye-Ang):
   XX=            -97.2397   YY=            -97.5951   ZZ=            -95.0360
   XY=             14.3300   XZ=             -4.2156   YZ=              0.9921

 Normal termination of Gaussian 16 at Wed May  5 16:04:25 2021.
