 Gaussian 16, Revision A.03,
 Gaussian 16:  EM64L-G16RevA.03 25-Dec-2016

 -------------
 #p 6-31g* mp2
 -------------

 ------------------------------------------------------
 Input file generated by CHIRIPA (05-May-2021 14:51:10)
 ------------------------------------------------------
 Symbolic Z-matrix:
 Charge =  0 Multiplicity = 1

                         Standard orientation:
 ---------------------------------------------------------------------
 Center     Atomic      Atomic             Coordinates (Angstroms)
 Number     Number       Type             X           Y           Z
 ---------------------------------------------------------------------
      1          6           0        3.036908   -0.609687   -0.667429
      2          6           0        2.164419   -1.818946   -0.329142
      3          6           0        2.764758   -3.136806   -0.819685
      4          1           0        3.184303   -0.564711   -1.755178
      5          1           0        4.032049   -0.748406   -0.222629
      6          1           0        1.170786   -1.677348   -0.773283
      7          1           0        2.018925   -1.860939    0.757911
      8          1           0        3.747236   -3.304782   -0.366782
      9          1           0        2.894278   -3.120148   -1.906676
     10          1           0        2.124817   -3.988057   -0.567283
     11          6           0        2.450045    0.715133   -0.183516
     12          6           0        3.322535    1.924392   -0.521803
     13          6           0        2.722196    3.242251   -0.031260
     14          1           0        1.454904    0.853851   -0.628316
     15          1           0        2.302650    0.670157    0.904233
     16          1           0        3.468028    1.966384   -1.608856
     17          1           0        4.316167    1.782794   -0.077662
     18          1           0        2.592675    3.225594    1.055731
     19          1           0        1.739718    3.410227   -0.484163
     20          1           0        3.362136    4.093503   -0.283662
     21          6           0       -2.483629   -0.010059    1.142474
     22          6           0       -1.045771   -0.506747    1.296903
     23          6           0       -0.540138   -0.415112    2.736948
     24          1           0       -2.544378    1.030901    1.488387
     25          1           0       -3.139527   -0.596847    1.800407
     26          1           0       -0.392990    0.079882    0.637844
     27          1           0       -0.988399   -1.546585    0.950403
     28          1           0       -1.167350   -1.014905    3.404373
     29          1           0       -0.568558    0.620803    3.090037
     30          1           0        0.489658   -0.775262    2.824541
     31          6           0       -3.003323   -0.095386   -0.291530
     32          6           0       -4.441183    0.401301   -0.445958
     33          6           0       -4.946816    0.309667   -1.886003
     34          1           0       -2.347427    0.491401   -0.949462
     35          1           0       -2.942576   -1.136347   -0.637442
     36          1           0       -4.498555    1.441139   -0.099458
     37          1           0       -5.093964   -0.185328    0.213102
     38          1           0       -4.918396   -0.726250   -2.239092
     39          1           0       -4.319604    0.909459   -2.553427
     40          1           0       -5.976612    0.669817   -1.973596
 ---------------------------------------------------------------------

 SCF Done:  E(RHF) =  -470.732122469     A.U. after   11 cycles
 E2 =    -0.1584762298D+01 EUMP2 =    -0.47231688476742D+03

 The electronic state is 1-A.
 Alpha  occ. eigenvalues --  -11.21630 -11.21591 -11.21542 -11.21422 -11.21414
 Alpha  occ. eigenvalues --  -11.21375 -11.21360 -11.21285 -11.21112 -11.21071
 Alpha  occ. eigenvalues --  -11.21052 -11.21024  -1.08483  -1.08353  -1.03551
 Alpha  occ. eigenvalues --   -1.03466  -0.96002  -0.95940  -0.87011  -0.86961
 Alpha  occ. eigenvalues --   -0.79683  -0.79529  -0.78487  -0.77949  -0.65109
 Alpha  occ. eigenvalues --   -0.64997  -0.60937  -0.60895  -0.59470  -0.59224
 Alpha  occ. eigenvalues --   -0.57630  -0.57534  -0.55289  -0.55233  -0.52712
 Alpha  occ. eigenvalues --   -0.52614  -0.52430  -0.52372  -0.49970  -0.49861
 Alpha  occ. eigenvalues --   -0.48061  -0.47875  -0.46714  -0.46591  -0.46147
 Alpha  occ. eigenvalues --   -0.45725  -0.45655  -0.45045  -0.43794  -0.43723
 Alpha virt. eigenvalues --    0.21108   0.23064   0.23654   0.24148   0.24734
 Alpha virt. eigenvalues --    0.26139   0.26668   0.27916   0.28925   0.29732
 Alpha virt. eigenvalues --    0.30466   0.30901   0.31584   0.31887   0.32062

 Mulliken charges:
               1
     1  C   -0.298029
     2  C   -0.303816
     3  C   -0.475679
     4  H    0.149396
     5  H    0.149236
     6  H    0.155944
     7  H    0.154416
     8  H    0.154814
     9  H    0.154992
    10  H    0.159923
    11  C   -0.303629
    12  C   -0.298675
    13  C   -0.475831
    14  H    0.151283
    15  H    0.152653
    16  H    0.151938
    17  H    0.152090
    18  H    0.155369
    19  H    0.154471
    20  H    0.160542
    21  C   -0.297952
    22  C   -0.307053
    23  C   -0.477899
    24  H    0.149108
    25  H    0.148847
    26  H    0.162407
    27  H    0.152675
    28  H    0.154756
    29  H    0.154706
    30  H    0.160543
    31  C   -0.298117
    32  C   -0.299486
    33  C   -0.475679
    34  H    0.148062
    35  H    0.149330
    36  H    0.151987
    37  H    0.152072
    38  H    0.155102
    39  H    0.154914
    40  H    0.160270
 Sum of Mulliken charges =  -0.00000

 Dipole moment (field-independent basis, Debye):
    X=              0.0326    Y=              0.0054    Z=             -0.0127  Tot=              0.0354
 Quadrupole moment (field-independent basis, Debye-Ang):
   XX=            -84.9031   YY=            -84.9896   ZZ=            -85.1111
   XY=              0.6336   XZ=              0.0047   YZ=             -0.5608

 Normal termination of Gaussian 16 at Thu May  6 02:12:23 2021.
