 Gaussian 16, Revision A.03,
 Gaussian 16:  EM64L-G16RevA.03 25-Dec-2016

 -------------
 #p 6-31g* mp2
 -------------

 ------------------------------------------------------
 Input file generated by CHIRIPA (05-May-2021 14:53:15)
 ------------------------------------------------------
 Symbolic Z-matrix:
 Charge =  0 Multiplicity = 1

                         Standard orientation:
 ---------------------------------------------------------------------
 Center     Atomic      Atomic             Coordinates (Angstroms)
 Number     Number       Type             X           Y           Z
 ---------------------------------------------------------------------
      1          6           0       -3.048436    0.861772   -0.575253
      2          6           0       -1.809012    1.583315   -0.044981
      3          6           0       -1.265379    2.622877   -1.025578
      4          1           0       -2.801591    0.374799   -1.528600
      5          1           0       -3.829267    1.602774   -0.795740
      6          1           0       -1.031237    0.841047    0.175744
      7          1           0       -2.058783    2.068467    0.907310
      8          1           0       -2.022221    3.384892   -1.238002
      9          1           0       -0.988836    2.150498   -1.973725
     10          1           0       -0.379492    3.126599   -0.626418
     11          6           0       -3.603601   -0.180563    0.393797
     12          6           0       -4.843025   -0.902107   -0.136474
     13          6           0       -5.386658   -1.941668    0.844122
     14          1           0       -2.822770   -0.921565    0.614284
     15          1           0       -3.850446    0.306410    1.347144
     16          1           0       -4.593254   -1.387258   -1.088765
     17          1           0       -5.620800   -0.159838   -0.357200
     18          1           0       -5.663201   -1.469289    1.792269
     19          1           0       -4.629816   -2.703683    1.056547
     20          1           0       -6.272545   -2.445391    0.444963
     21          6           0        2.427792    2.096695    0.939218
     22          6           0        2.225685    1.834022   -0.419707
     23          6           0        2.317774    0.528727   -0.911918
     24          6           0        2.614950   -0.494523   -0.013067
     25          6           0        2.821626   -0.264774    1.346268
     26          6           0        2.724594    1.048307    1.816322
     27          1           0        2.354335    3.113704    1.312973
     28          1           0        1.995050    2.646246   -1.103187
     29          1           0        2.165997    0.297176   -1.959184
     30          1           0        3.050106   -1.095182    2.003259
     31          1           0        2.882043    1.249347    2.872181
     32          7           0        2.715058   -1.880503   -0.522420
     33          8           0        2.978077   -2.764474    0.290015
     34          8           0        2.528606   -2.056616   -1.724442
 ---------------------------------------------------------------------

 SCF Done:  E(RHF) =  -669.534878229     A.U. after   15 cycles
 E2 =    -0.2092736871D+01 EUMP2 =    -0.67162761510011D+03

 The electronic state is 1-A.
 Alpha  occ. eigenvalues --  -20.60817 -20.60812 -15.85869 -11.31247 -11.27787
 Alpha  occ. eigenvalues --  -11.27782 -11.27528 -11.26818 -11.26789 -11.21891
 Alpha  occ. eigenvalues --  -11.21626 -11.21612 -11.21557 -11.21443 -11.21037
 Alpha  occ. eigenvalues --   -1.59893  -1.39445  -1.19408  -1.08808  -1.08579
 Alpha  occ. eigenvalues --   -1.04812  -1.03717  -0.96195  -0.95636  -0.87232
 Alpha  occ. eigenvalues --   -0.86198  -0.82464  -0.79788  -0.78371  -0.77514
 Alpha  occ. eigenvalues --   -0.72087  -0.71217  -0.70508  -0.65215  -0.65057
 Alpha  occ. eigenvalues --   -0.64837  -0.62187  -0.61114  -0.59593  -0.57806
 Alpha  occ. eigenvalues --   -0.55500  -0.55298  -0.53265  -0.53009  -0.52715
 Alpha  occ. eigenvalues --   -0.52503  -0.50123  -0.48846  -0.48842  -0.48102
 Alpha  occ. eigenvalues --   -0.46795  -0.45923  -0.45819  -0.44849  -0.43976
 Alpha  occ. eigenvalues --   -0.37365  -0.36361
 Alpha virt. eigenvalues --    0.04998   0.11172   0.16482   0.20748   0.22837
 Alpha virt. eigenvalues --    0.24227   0.26355   0.26560   0.27150   0.27964
 Alpha virt. eigenvalues --    0.28716   0.30605   0.31079   0.31408   0.31968

 Mulliken charges:
               1
     1  C   -0.298933
     2  C   -0.300773
     3  C   -0.474462
     4  H    0.151726
     5  H    0.148961
     6  H    0.157090
     7  H    0.150014
     8  H    0.156248
     9  H    0.153071
    10  H    0.150172
    11  C   -0.298781
    12  C   -0.299985
    13  C   -0.476087
    14  H    0.152030
    15  H    0.148375
    16  H    0.153873
    17  H    0.151129
    18  H    0.154172
    19  H    0.157183
    20  H    0.160788
    21  C   -0.171873
    22  C   -0.213223
    23  C   -0.173562
    24  C    0.158265
    25  C   -0.171515
    26  C   -0.217811
    27  H    0.225731
    28  H    0.225806
    29  H    0.275607
    30  H    0.275671
    31  H    0.223737
    32  N    0.487978
    33  O   -0.460199
    34  O   -0.460422
 Sum of Mulliken charges =  -0.00000

 Dipole moment (field-independent basis, Debye):
    X=             -0.3534    Y=              4.8118    Z=              1.8122  Tot=              5.1538
 Quadrupole moment (field-independent basis, Debye-Ang):
   XX=            -97.0096   YY=           -100.0013   ZZ=            -90.8310
   XY=             12.0908   XZ=              5.9497   YZ=             -1.8084

 Normal termination of Gaussian 16 at Thu May  6 13:48:14 2021.
