 Gaussian 16, Revision A.03,
 Gaussian 16:  EM64L-G16RevA.03 25-Dec-2016

 -------------
 #p 6-31g* mp2
 -------------

 ------------------------------------------------------
 Input file generated by CHIRIPA (05-May-2021 14:51:08)
 ------------------------------------------------------
 Symbolic Z-matrix:
 Charge =  0 Multiplicity = 1

                         Standard orientation:
 ---------------------------------------------------------------------
 Center     Atomic      Atomic             Coordinates (Angstroms)
 Number     Number       Type             X           Y           Z
 ---------------------------------------------------------------------
      1          6           0        3.862542    0.731841   -0.116835
      2          6           0        3.294952    2.060473    0.383728
      3          6           0        4.350226    3.164576    0.455478
      4          1           0        4.680332    0.416900    0.545719
      5          1           0        4.305848    0.881793   -1.111012
      6          1           0        2.851620    1.907756    1.376074
      7          1           0        2.478292    2.372192   -0.279983
      8          1           0        4.785857    3.345893   -0.532424
      9          1           0        5.161306    2.878818    1.133043
     10          1           0        3.922882    4.105568    0.815714
     11          6           0        2.819658   -0.381783   -0.194048
     12          6           0        3.387248   -1.710415   -0.694611
     13          6           0        2.331974   -2.814518   -0.766361
     14          1           0        2.376352   -0.531736    0.800130
     15          1           0        2.001868   -0.066842   -0.856601
     16          1           0        4.203909   -2.022134   -0.030900
     17          1           0        3.830581   -1.557698   -1.686957
     18          1           0        1.520895   -2.528760   -1.443925
     19          1           0        1.896344   -2.995835    0.221541
     20          1           0        2.759319   -3.755511   -1.126596
     21          6           0       -3.068132   -0.678583    0.660766
     22          6           0       -1.821498   -1.415326    0.169747
     23          6           0       -1.287229   -2.419290    1.191708
     24          1           0       -2.832995   -0.158501    1.599472
     25          1           0       -3.850121   -1.413213    0.897849
     26          1           0       -1.042565   -0.679445   -0.067653
     27          1           0       -2.059577   -1.933559   -0.768000
     28          1           0       -2.045102   -3.175147    1.421731
     29          1           0       -1.022311   -1.913908    2.126058
     30          1           0       -0.395980   -2.934578    0.820205
     31          6           0       -3.614068    0.328526   -0.349883
     32          6           0       -4.860703    1.065268    0.141136
     33          6           0       -5.394972    2.069233   -0.880826
     34          1           0       -2.832081    1.063156   -0.586967
     35          1           0       -3.849206   -0.191557   -1.288589
     36          1           0       -4.622623    1.583501    1.078882
     37          1           0       -5.639636    0.329388    0.378536
     38          1           0       -5.659890    1.563851   -1.815174
     39          1           0       -4.637100    2.825090   -1.110849
     40          1           0       -6.286220    2.584520   -0.509322
 ---------------------------------------------------------------------

 SCF Done:  E(RHF) =  -470.733208731     A.U. after   11 cycles
 E2 =    -0.1582935435D+01 EUMP2 =    -0.47231614416599D+03

 The electronic state is 1-A.
 Alpha  occ. eigenvalues --  -11.21634 -11.21630 -11.21580 -11.21531 -11.21434
 Alpha  occ. eigenvalues --  -11.21375 -11.21368 -11.21306 -11.21096 -11.21088
 Alpha  occ. eigenvalues --  -11.21057 -11.20950  -1.08461  -1.08385  -1.03569
 Alpha  occ. eigenvalues --   -1.03470  -0.96031  -0.95912  -0.87062  -0.86918
 Alpha  occ. eigenvalues --   -0.79632  -0.79540  -0.78284  -0.78191  -0.65089
 Alpha  occ. eigenvalues --   -0.65017  -0.60966  -0.60876  -0.59474  -0.59249
 Alpha  occ. eigenvalues --   -0.57767  -0.57397  -0.55306  -0.55214  -0.52825
 Alpha  occ. eigenvalues --   -0.52697  -0.52451  -0.52149  -0.49946  -0.49872
 Alpha  occ. eigenvalues --   -0.47986  -0.47790  -0.46664  -0.46573  -0.45862
 Alpha  occ. eigenvalues --   -0.45752  -0.45714  -0.45606  -0.43814  -0.43709
 Alpha virt. eigenvalues --    0.21359   0.23164   0.23437   0.25094   0.25685
 Alpha virt. eigenvalues --    0.26590   0.26680   0.27422   0.28150   0.29245
 Alpha virt. eigenvalues --    0.30208   0.31292   0.31374   0.31839   0.32104

 Mulliken charges:
               1
     1  C   -0.298318
     2  C   -0.299664
     3  C   -0.475710
     4  H    0.149829
     5  H    0.149664
     6  H    0.151834
     7  H    0.151691
     8  H    0.155290
     9  H    0.155290
    10  H    0.160259
    11  C   -0.299806
    12  C   -0.299578
    13  C   -0.480753
    14  H    0.150298
    15  H    0.150526
    16  H    0.152053
    17  H    0.152033
    18  H    0.156795
    19  H    0.159270
    20  H    0.160464
    21  C   -0.298275
    22  C   -0.300603
    23  C   -0.482085
    24  H    0.149522
    25  H    0.149413
    26  H    0.153692
    27  H    0.151299
    28  H    0.154454
    29  H    0.153788
    30  H    0.167834
    31  C   -0.298211
    32  C   -0.299597
    33  C   -0.475678
    34  H    0.149323
    35  H    0.149450
    36  H    0.151924
    37  H    0.151908
    38  H    0.155101
    39  H    0.155083
    40  H    0.160188
 Sum of Mulliken charges =  -0.00000

 Dipole moment (field-independent basis, Debye):
    X=              0.0465    Y=             -0.0115    Z=             -0.0117  Tot=              0.0493
 Quadrupole moment (field-independent basis, Debye-Ang):
   XX=            -85.0964   YY=            -85.5523   ZZ=            -84.1228
   XY=              0.1373   XZ=              0.0960   YZ=              0.4559

 Normal termination of Gaussian 16 at Wed May  5 16:35:27 2021.
