 Gaussian 16, Revision A.03,
 Gaussian 16:  EM64L-G16RevA.03 25-Dec-2016

 -------------
 #p 6-31g* mp2
 -------------

 ------------------------------------------------------
 Input file generated by CHIRIPA (05-May-2021 14:57:27)
 ------------------------------------------------------
 Symbolic Z-matrix:
 Charge =  0 Multiplicity = 1

                         Standard orientation:
 ---------------------------------------------------------------------
 Center     Atomic      Atomic             Coordinates (Angstroms)
 Number     Number       Type             X           Y           Z
 ---------------------------------------------------------------------
      1          6           0        2.644987    2.535754    0.507149
      2          6           0        2.046844    1.874696   -0.570695
      3          6           0        2.342272    0.533749   -0.833624
      4          6           0        3.244419   -0.118528    0.005395
      5          6           0        3.856708    0.512690    1.087041
      6          6           0        3.546420    1.853843    1.331125
      7          1           0        2.409720    3.577514    0.704079
      8          1           0        1.346406    2.401768   -1.212277
      9          1           0        1.893631   -0.002206   -1.661206
     10          1           0        4.551014   -0.039160    1.708989
     11          1           0        4.012458    2.364694    2.168911
     12          7           0        3.565041   -1.538238   -0.262980
     13          8           0        4.363148   -2.090574    0.491067
     14          8           0        3.012167   -2.071787   -1.222298
     15          6           0       -5.587814   -0.232155    0.731622
     16          6           0       -5.245689    0.573631   -0.359331
     17          6           0       -3.921167    0.645956   -0.800872
     18          6           0       -2.959918   -0.104175   -0.125156
     19          6           0       -3.269405   -0.916192    0.964862
     20          6           0       -4.600321   -0.973189    1.389077
     21          1           0       -6.619219   -0.282386    1.067893
     22          1           0       -6.010497    1.150222   -0.871832
     23          1           0       -3.628614    1.261659   -1.642739
     24          1           0       -2.484966   -1.479446    1.455596
     25          1           0       -4.863119   -1.599824    2.236610
     26          7           0       -1.554321   -0.035722   -0.583425
     27          8           0       -0.726066   -0.706316    0.028897
     28          8           0       -1.307483    0.687228   -1.546259
 ---------------------------------------------------------------------

 SCF Done:  E(RHF) =  -868.339957430     A.U. after   16 cycles
 E2 =    -0.2600366948D+01 EUMP2 =    -0.87094032437839D+03

 The electronic state is 1-A.
 Alpha  occ. eigenvalues --  -20.61515 -20.61444 -20.59401 -20.59360 -15.86466
 Alpha  occ. eigenvalues --  -15.84429 -11.31610 -11.29560 -11.28169 -11.28119
 Alpha  occ. eigenvalues --  -11.27854 -11.27125 -11.27092 -11.26299 -11.26020
 Alpha  occ. eigenvalues --  -11.25999 -11.25305 -11.24997  -1.60521  -1.58458
 Alpha  occ. eigenvalues --   -1.40080  -1.38016  -1.19760  -1.17775  -1.09202
 Alpha  occ. eigenvalues --   -1.07245  -1.05126  -1.03132  -0.96074  -0.94099
 Alpha  occ. eigenvalues --   -0.86535  -0.84573  -0.82914  -0.80925  -0.77985
 Alpha  occ. eigenvalues --   -0.75964  -0.72706  -0.71805  -0.70866  -0.70671
 Alpha  occ. eigenvalues --   -0.69762  -0.68964  -0.65416  -0.65129  -0.63445
 Alpha  occ. eigenvalues --   -0.63167  -0.62473  -0.60483  -0.55642  -0.53772
 Alpha  occ. eigenvalues --   -0.53470  -0.53214  -0.51576  -0.51243  -0.49483
 Alpha  occ. eigenvalues --   -0.49367  -0.47427  -0.47399  -0.45519  -0.43471
 Alpha  occ. eigenvalues --   -0.37730  -0.36718  -0.35829  -0.34648
 Alpha virt. eigenvalues --    0.04520   0.06564   0.10941   0.12942   0.16059
 Alpha virt. eigenvalues --    0.18032   0.21101   0.22905   0.27031   0.27961
 Alpha virt. eigenvalues --    0.28916   0.29754   0.30710   0.32163   0.32398

 Mulliken charges:
               1
     1  C   -0.172848
     2  C   -0.222526
     3  C   -0.147982
     4  C    0.154847
     5  C   -0.172968
     6  C   -0.220885
     7  H    0.218124
     8  H    0.229095
     9  H    0.282878
    10  H    0.269609
    11  H    0.215702
    12  N    0.488851
    13  O   -0.468595
    14  O   -0.458892
    15  C   -0.169966
    16  C   -0.218653
    17  C   -0.170911
    18  C    0.158535
    19  C   -0.170021
    20  C   -0.218695
    21  H    0.227155
    22  H    0.224287
    23  H    0.274262
    24  H    0.278486
    25  H    0.225601
    26  N    0.489989
    27  O   -0.452866
    28  O   -0.471613
 Sum of Mulliken charges =  -0.00000

 Dipole moment (field-independent basis, Debye):
    X=             -6.6625    Y=              4.5551    Z=              2.4099  Tot=              8.4229
 Quadrupole moment (field-independent basis, Debye-Ang):
   XX=            -82.7830   YY=           -105.7484   ZZ=           -100.3912
   XY=             16.5352   XZ=              1.7489   YZ=             -3.2480

 Normal termination of Gaussian 16 at Wed May  5 16:33:39 2021.
