 Gaussian 16, Revision A.03,
 Gaussian 16:  EM64L-G16RevA.03 25-Dec-2016

 -------------
 #p 6-31g* mp2
 -------------

 ------------------------------------------------------
 Input file generated by CHIRIPA (05-May-2021 14:55:24)
 ------------------------------------------------------
 Symbolic Z-matrix:
 Charge =  0 Multiplicity = 1

                         Standard orientation:
 ---------------------------------------------------------------------
 Center     Atomic      Atomic             Coordinates (Angstroms)
 Number     Number       Type             X           Y           Z
 ---------------------------------------------------------------------
      1          6           0       -3.310265    1.725809   -1.042285
      2          6           0       -3.884796    0.464436   -1.230364
      3          6           0       -3.349358   -0.661189   -0.597257
      4          6           0       -2.233887   -0.488337    0.220751
      5          6           0       -1.638906    0.755179    0.428011
      6          6           0       -2.191126    1.866905   -0.215156
      7          1           0       -3.732725    2.594823   -1.538005
      8          1           0       -4.753974    0.351873   -1.872161
      9          1           0       -3.774232   -1.649368   -0.725328
     10          1           0       -0.772899    0.835934    1.073712
     11          1           0       -1.742852    2.845281   -0.067253
     12          7           0       -1.658159   -1.672629    0.896318
     13          8           0       -0.675062   -1.493792    1.611981
     14          8           0       -2.200902   -2.757289    0.697372
     15          6           0        2.824810   -0.361130   -0.269880
     16          6           0        4.038798   -1.165006   -0.736785
     17          6           0        3.710770   -2.636352   -0.992388
     18          1           0        2.424129   -0.813680    0.647507
     19          1           0        2.031788   -0.434810   -1.026902
     20          1           0        4.829800   -1.088696    0.020255
     21          1           0        4.436751   -0.710378   -1.653061
     22          1           0        2.939189   -2.730730   -1.763334
     23          1           0        3.334471   -3.111198   -0.080510
     24          1           0        4.592764   -3.192352   -1.325268
     25          6           0        3.136852    1.111598   -0.010208
     26          6           0        1.922863    1.915473    0.456696
     27          6           0        2.250892    3.386819    0.712300
     28          1           0        3.929873    1.185277    0.746814
     29          1           0        3.537532    1.564147   -0.927596
     30          1           0        1.524910    1.460845    1.372972
     31          1           0        1.131861    1.839164   -0.300345
     32          1           0        2.627190    3.861666   -0.199578
     33          1           0        3.022472    3.481197    1.483245
     34          1           0        1.368897    3.942819    1.045179
 ---------------------------------------------------------------------

 SCF Done:  E(RHF) =  -669.535321562     A.U. after   15 cycles
 E2 =    -0.2093039716D+01 EUMP2 =    -0.67162836127774D+03

 The electronic state is 1-A.
 Alpha  occ. eigenvalues --  -20.60785 -20.60780 -15.85825 -11.31131 -11.27735
 Alpha  occ. eigenvalues --  -11.27635 -11.27476 -11.26736 -11.26709 -11.21978
 Alpha  occ. eigenvalues --  -11.21534 -11.21391 -11.21231 -11.20975 -11.20548
 Alpha  occ. eigenvalues --   -1.59849  -1.39404  -1.19323  -1.08729  -1.08355
 Alpha  occ. eigenvalues --   -1.04723  -1.03498  -0.95911  -0.95569  -0.86937
 Alpha  occ. eigenvalues --   -0.86119  -0.82408  -0.79677  -0.78129  -0.77390
 Alpha  occ. eigenvalues --   -0.72048  -0.71163  -0.70434  -0.65037  -0.64930
 Alpha  occ. eigenvalues --   -0.64716  -0.62106  -0.60889  -0.59339  -0.57515
 Alpha  occ. eigenvalues --   -0.55233  -0.55172  -0.53075  -0.52874  -0.52640
 Alpha  occ. eigenvalues --   -0.52286  -0.49844  -0.48809  -0.48802  -0.47884
 Alpha  occ. eigenvalues --   -0.46669  -0.45654  -0.45497  -0.44756  -0.43711
 Alpha  occ. eigenvalues --   -0.37314  -0.36288
 Alpha virt. eigenvalues --    0.05039   0.11309   0.16439   0.20440   0.23117
 Alpha virt. eigenvalues --    0.24114   0.25685   0.26504   0.27260   0.28367
 Alpha virt. eigenvalues --    0.29601   0.30318   0.31489   0.31880   0.32460

 Mulliken charges:
               1
     1  C   -0.170482
     2  C   -0.219272
     3  C   -0.170351
     4  C    0.155700
     5  C   -0.172337
     6  C   -0.224240
     7  H    0.225473
     8  H    0.223201
     9  H    0.275379
    10  H    0.286569
    11  H    0.224646
    12  N    0.488160
    13  O   -0.461766
    14  O   -0.460126
    15  C   -0.303788
    16  C   -0.299818
    17  C   -0.476176
    18  H    0.166811
    19  H    0.146519
    20  H    0.151315
    21  H    0.148611
    22  H    0.154526
    23  H    0.162731
    24  H    0.158013
    25  C   -0.296578
    26  C   -0.312434
    27  C   -0.474582
    28  H    0.151113
    29  H    0.148439
    30  H    0.156340
    31  H    0.149741
    32  H    0.156678
    33  H    0.159780
    34  H    0.152204
 Sum of Mulliken charges =  -0.00000

 Dipole moment (field-independent basis, Debye):
    X=             -1.9602    Y=              4.0358    Z=             -2.3014  Tot=              5.0425
 Quadrupole moment (field-independent basis, Debye-Ang):
   XX=            -83.4963   YY=            -98.8943   ZZ=            -94.7921
   XY=             -6.3656   XZ=              7.2224   YZ=              2.8829

 Normal termination of Gaussian 16 at Thu May  6 01:36:31 2021.
