 Gaussian 16, Revision A.03,
 Gaussian 16:  EM64L-G16RevA.03 25-Dec-2016

 -------------
 #p 6-31g* mp2
 -------------

 ------------------------------------------------------
 Input file generated by CHIRIPA (05-May-2021 14:55:25)
 ------------------------------------------------------
 Symbolic Z-matrix:
 Charge =  0 Multiplicity = 1

                         Standard orientation:
 ---------------------------------------------------------------------
 Center     Atomic      Atomic             Coordinates (Angstroms)
 Number     Number       Type             X           Y           Z
 ---------------------------------------------------------------------
      1          6           0        1.529113    1.657339   -0.648404
      2          6           0        1.250443    0.392535   -0.120071
      3          6           0        2.281966   -0.520795    0.117283
      4          6           0        3.586433   -0.134460   -0.186692
      5          6           0        3.896070    1.118311   -0.713930
      6          6           0        2.848710    2.015558   -0.943128
      7          1           0        0.721650    2.360589   -0.829618
      8          1           0        0.226577    0.111615    0.109772
      9          1           0        2.094458   -1.506480    0.525553
     10          1           0        4.926729    1.369662   -0.932977
     11          1           0        3.068087    2.997139   -1.353517
     12          7           0        4.686843   -1.092849    0.060267
     13          8           0        5.827621   -0.728271   -0.216038
     14          8           0        4.387729   -2.190466    0.525461
     15          6           0       -4.049957    0.208054    0.947976
     16          6           0       -2.541114    0.439792    0.860360
     17          6           0       -1.938405    0.915929    2.182415
     18          1           0       -4.540038    1.139981    1.261469
     19          1           0       -4.255148   -0.532524    1.733364
     20          1           0       -2.338729    1.178687    0.074427
     21          1           0       -2.054587   -0.492743    0.546854
     22          1           0       -2.111140    0.177975    2.972470
     23          1           0       -2.396897    1.858902    2.497358
     24          1           0       -0.858968    1.075346    2.097200
     25          6           0       -4.667028   -0.268198   -0.365848
     26          6           0       -6.175870   -0.499936   -0.278232
     27          6           0       -6.778580   -0.976074   -1.600287
     28          1           0       -4.461836    0.472380   -1.151237
     29          1           0       -4.176947   -1.200125   -0.679341
     30          1           0       -6.662398    0.432599    0.035273
     31          1           0       -6.378256   -1.238830    0.507700
     32          1           0       -6.320088   -1.919045   -1.915231
     33          1           0       -6.605844   -0.238119   -2.390343
     34          1           0       -7.858017   -1.135491   -1.515073
 ---------------------------------------------------------------------

 SCF Done:  E(RHF) =  -669.535054666     A.U. after   15 cycles
 E2 =    -0.2092134392D+01 EUMP2 =    -0.67162718905843D+03

 The electronic state is 1-A.
 Alpha  occ. eigenvalues --  -20.60721 -20.60716 -15.85772 -11.31129 -11.27699
 Alpha  occ. eigenvalues --  -11.27679 -11.27429 -11.26714 -11.26608 -11.22865
 Alpha  occ. eigenvalues --  -11.22283 -11.22179 -11.22093 -11.22091 -11.21544
 Alpha  occ. eigenvalues --   -1.59796  -1.39350  -1.19297  -1.09291  -1.08692
 Alpha  occ. eigenvalues --   -1.04710  -1.04375  -0.96791  -0.95530  -0.87797
 Alpha  occ. eigenvalues --   -0.86098  -0.82365  -0.80504  -0.79073  -0.77409
 Alpha  occ. eigenvalues --   -0.71992  -0.71119  -0.70407  -0.65919  -0.64945
 Alpha  occ. eigenvalues --   -0.64773  -0.62166  -0.61749  -0.60104  -0.58384
 Alpha  occ. eigenvalues --   -0.56042  -0.55185  -0.53530  -0.53281  -0.52983
 Alpha  occ. eigenvalues --   -0.52660  -0.50713  -0.48813  -0.48748  -0.48721
 Alpha  occ. eigenvalues --   -0.47527  -0.46596  -0.46496  -0.44758  -0.44618
 Alpha  occ. eigenvalues --   -0.37273  -0.36288
 Alpha virt. eigenvalues --    0.05119   0.11239   0.16597   0.19998   0.22410
 Alpha virt. eigenvalues --    0.23968   0.25240   0.25988   0.26969   0.27759
 Alpha virt. eigenvalues --    0.29035   0.29990   0.31031   0.31045   0.31658

 Mulliken charges:
               1
     1  C   -0.175820
     2  C   -0.227255
     3  C   -0.174881
     4  C    0.159018
     5  C   -0.171259
     6  C   -0.218372
     7  H    0.225850
     8  H    0.242588
     9  H    0.275731
    10  H    0.275358
    11  H    0.223093
    12  N    0.488039
    13  O   -0.460690
    14  O   -0.460532
    15  C   -0.296646
    16  C   -0.308741
    17  C   -0.481870
    18  H    0.152508
    19  H    0.153459
    20  H    0.147582
    21  H    0.147874
    22  H    0.161182
    23  H    0.159811
    24  H    0.159994
    25  C   -0.299234
    26  C   -0.300436
    27  C   -0.476187
    28  H    0.148968
    29  H    0.150625
    30  H    0.152815
    31  H    0.153574
    32  H    0.156246
    33  H    0.155342
    34  H    0.162266
 Sum of Mulliken charges =  -0.00000

 Dipole moment (field-independent basis, Debye):
    X=             -4.1365    Y=              3.3643    Z=             -0.8162  Tot=              5.3940
 Quadrupole moment (field-independent basis, Debye-Ang):
   XX=           -120.1101   YY=            -92.9530   ZZ=            -95.1200
   XY=             14.9790   XZ=             -4.3683   YZ=             -2.4167

 Normal termination of Gaussian 16 at Thu May  6 07:59:00 2021.
