 Gaussian 16, Revision A.03,
 Gaussian 16:  EM64L-G16RevA.03 25-Dec-2016

 -------------
 #p 6-31g* mp2
 -------------

 ------------------------------------------------------
 Input file generated by CHIRIPA (05-May-2021 14:55:23)
 ------------------------------------------------------
 Symbolic Z-matrix:
 Charge =  0 Multiplicity = 1

                         Standard orientation:
 ---------------------------------------------------------------------
 Center     Atomic      Atomic             Coordinates (Angstroms)
 Number     Number       Type             X           Y           Z
 ---------------------------------------------------------------------
      1          6           0       -4.041048   -1.147957   -1.416419
      2          6           0       -4.441431   -0.108602   -0.570277
      3          6           0       -3.553698    0.423971    0.369320
      4          6           0       -2.267343   -0.109087    0.435879
      5          6           0       -1.838674   -1.144498   -0.393252
      6          6           0       -2.743236   -1.661682   -1.325367
      7          1           0       -4.737197   -1.555695   -2.143414
      8          1           0       -5.448711    0.292326   -0.638755
      9          1           0       -3.837404    1.228714    1.036641
     10          1           0       -0.828050   -1.523481   -0.301445
     11          1           0       -2.429541   -2.468846   -1.981206
     12          7           0       -1.318632    0.446578    1.426628
     13          8           0       -0.190855   -0.040508    1.465389
     14          8           0       -1.720773    1.358674    2.145655
     15          6           0        3.074847   -0.400483    0.039133
     16          6           0        4.307188   -1.280845   -0.171299
     17          6           0        4.237411   -2.592373    0.611529
     18          1           0        2.965242   -0.184200    1.110652
     19          1           0        2.177735   -0.959946   -0.260176
     20          1           0        5.201837   -0.719397    0.127016
     21          1           0        4.413980   -1.494900   -1.242463
     22          1           0        3.362236   -3.176007    0.308146
     23          1           0        4.154569   -2.396096    1.685407
     24          1           0        5.128370   -3.206254    0.446590
     25          6           0        3.129831    0.914192   -0.736968
     26          6           0        1.897489    1.794555   -0.526535
     27          6           0        1.967265    3.106083   -1.309364
     28          1           0        4.026942    1.473655   -0.437659
     29          1           0        3.239434    0.697909   -1.808488
     30          1           0        1.790697    2.008609    0.544629
     31          1           0        1.002840    1.233106   -0.824851
     32          1           0        2.050108    2.909806   -2.383242
     33          1           0        2.842441    3.689716   -1.005981
     34          1           0        1.076307    3.719962   -1.144425
 ---------------------------------------------------------------------

 SCF Done:  E(RHF) =  -669.535429788     A.U. after   15 cycles
 E2 =    -0.2093152596D+01 EUMP2 =    -0.67162858238392D+03

 The electronic state is 1-A.
 Alpha  occ. eigenvalues --  -20.60929 -20.60897 -15.85924 -11.31291 -11.27857
 Alpha  occ. eigenvalues --  -11.27844 -11.27588 -11.26865 -11.26855 -11.20930
 Alpha  occ. eigenvalues --  -11.20558 -11.20536 -11.20489 -11.20383 -11.20301
 Alpha  occ. eigenvalues --   -1.59970  -1.39527  -1.19456  -1.08855  -1.07562
 Alpha  occ. eigenvalues --   -1.04856  -1.02747  -0.95695  -0.95220  -0.86255
 Alpha  occ. eigenvalues --   -0.86242  -0.82534  -0.78789  -0.77691  -0.77222
 Alpha  occ. eigenvalues --   -0.72149  -0.71269  -0.70563  -0.65111  -0.64866
 Alpha  occ. eigenvalues --   -0.64212  -0.62203  -0.60162  -0.58587  -0.56809
 Alpha  occ. eigenvalues --   -0.55358  -0.54531  -0.53184  -0.52949  -0.51943
 Alpha  occ. eigenvalues --   -0.51639  -0.49185  -0.48957  -0.48926  -0.47159
 Alpha  occ. eigenvalues --   -0.45825  -0.45374  -0.44765  -0.44300  -0.42971
 Alpha  occ. eigenvalues --   -0.37430  -0.36456
 Alpha virt. eigenvalues --    0.04930   0.11141   0.16404   0.20769   0.23262
 Alpha virt. eigenvalues --    0.24935   0.25458   0.27553   0.27987   0.28487
 Alpha virt. eigenvalues --    0.29248   0.31295   0.31917   0.32362   0.32510

 Mulliken charges:
               1
     1  C   -0.170471
     2  C   -0.218532
     3  C   -0.170575
     4  C    0.157688
     5  C   -0.172879
     6  C   -0.219155
     7  H    0.226007
     8  H    0.223852
     9  H    0.275849
    10  H    0.278214
    11  H    0.223950
    12  N    0.490434
    13  O   -0.458887
    14  O   -0.459834
    15  C   -0.294585
    16  C   -0.299995
    17  C   -0.473675
    18  H    0.163274
    19  H    0.145407
    20  H    0.150663
    21  H    0.146645
    22  H    0.150314
    23  H    0.158372
    24  H    0.156942
    25  C   -0.299848
    26  C   -0.296105
    27  C   -0.475942
    28  H    0.147181
    29  H    0.142365
    30  H    0.168335
    31  H    0.143766
    32  H    0.149262
    33  H    0.153573
    34  H    0.158391
 Sum of Mulliken charges =  -0.00000

 Dipole moment (field-independent basis, Debye):
    X=             -3.5352    Y=             -1.9388    Z=             -3.2185  Tot=              5.1590
 Quadrupole moment (field-independent basis, Debye-Ang):
   XX=            -77.7645   YY=            -94.0635   ZZ=            -97.8068
   XY=              2.8002   XZ=              6.4179   YZ=              1.9713

 Normal termination of Gaussian 16 at Thu May  6 17:36:59 2021.
