 Gaussian 16, Revision A.03,
 Gaussian 16:  EM64L-G16RevA.03 25-Dec-2016

 -------------
 #p 6-31g* mp2
 -------------

 ------------------------------------------------------
 Input file generated by CHIRIPA (05-May-2021 14:51:12)
 ------------------------------------------------------
 Symbolic Z-matrix:
 Charge =  0 Multiplicity = 1

                         Standard orientation:
 ---------------------------------------------------------------------
 Center     Atomic      Atomic             Coordinates (Angstroms)
 Number     Number       Type             X           Y           Z
 ---------------------------------------------------------------------
      1          6           0        3.127723    1.279289   -0.105455
      2          6           0        1.677922    1.660376    0.195929
      3          6           0        1.473809    3.171968    0.301864
      4          1           0        3.777902    1.684215    0.682103
      5          1           0        3.438008    1.758794   -1.044174
      6          1           0        1.370023    1.179178    1.133086
      7          1           0        1.031097    1.254332   -0.592336
      8          1           0        1.754261    3.665127   -0.634480
      9          1           0        2.095113    3.589546    1.100745
     10          1           0        0.430383    3.422029    0.517717
     11          6           0        3.347680   -0.228521   -0.214338
     12          6           0        4.797482   -0.609608   -0.515722
     13          6           0        5.001595   -2.121200   -0.621657
     14          1           0        3.037395   -0.708027    0.724381
     15          1           0        2.697501   -0.633447   -1.001896
     16          1           0        5.444306   -0.203565    0.272544
     17          1           0        5.105380   -0.128410   -1.452879
     18          1           0        4.380291   -2.538778   -1.420538
     19          1           0        4.721142   -2.614360    0.314687
     20          1           0        6.045020   -2.371262   -0.837510
     21          6           0       -3.742538    0.001812   -0.065128
     22          6           0       -5.100735   -0.584984   -0.451075
     23          6           0       -6.099970    0.482088   -0.899050
     24          1           0       -3.882849    0.735895    0.740093
     25          1           0       -3.332050    0.552969   -0.922520
     26          1           0       -5.507910   -1.136035    0.406345
     27          1           0       -4.957152   -1.317895   -1.255338
     28          1           0       -5.718695    1.025677   -1.769533
     29          1           0       -6.272582    1.208571   -0.098407
     30          1           0       -7.064052    0.040679   -1.170281
     31          6           0       -2.732865   -1.052580    0.384921
     32          6           0       -1.374668   -0.465783    0.770868
     33          6           0       -0.375433   -1.532855    1.218843
     34          1           0       -3.143354   -1.603737    1.242313
     35          1           0       -2.592554   -1.786663   -0.420300
     36          1           0       -1.518252    0.267127    1.575131
     37          1           0       -0.967494    0.085267   -0.086552
     38          1           0       -0.202822   -2.259339    0.418200
     39          1           0       -0.756709   -2.076445    2.089326
     40          1           0        0.588649   -1.091447    1.490074
 ---------------------------------------------------------------------

 SCF Done:  E(RHF) =  -470.731805925     A.U. after   11 cycles
 E2 =    -0.1584503274D+01 EUMP2 =    -0.47231630919871D+03

 The electronic state is 1-A.
 Alpha  occ. eigenvalues --  -11.21598 -11.21582 -11.21555 -11.21481 -11.21398
 Alpha  occ. eigenvalues --  -11.21365 -11.21338 -11.21298 -11.21062 -11.21059
 Alpha  occ. eigenvalues --  -11.21055 -11.20951  -1.08460  -1.08358  -1.03574
 Alpha  occ. eigenvalues --   -1.03429  -0.95973  -0.95934  -0.86990  -0.86950
 Alpha  occ. eigenvalues --   -0.79739  -0.79428  -0.78354  -0.78092  -0.65119
 Alpha  occ. eigenvalues --   -0.64983  -0.61014  -0.60809  -0.59552  -0.59132
 Alpha  occ. eigenvalues --   -0.57641  -0.57487  -0.55271  -0.55213  -0.52770
 Alpha  occ. eigenvalues --   -0.52559  -0.52414  -0.52331  -0.49944  -0.49856
 Alpha  occ. eigenvalues --   -0.48083  -0.47765  -0.46790  -0.46430  -0.45940
 Alpha  occ. eigenvalues --   -0.45725  -0.45655  -0.45356  -0.43774  -0.43690
 Alpha virt. eigenvalues --    0.21453   0.23154   0.23720   0.24339   0.25127
 Alpha virt. eigenvalues --    0.26342   0.26948   0.27416   0.28297   0.29482
 Alpha virt. eigenvalues --    0.30491   0.31014   0.31598   0.31845   0.32398

 Mulliken charges:
               1
     1  C   -0.298004
     2  C   -0.304297
     3  C   -0.475910
     4  H    0.149207
     5  H    0.149207
     6  H    0.156218
     7  H    0.154254
     8  H    0.154805
     9  H    0.154937
    10  H    0.160815
    11  C   -0.300604
    12  C   -0.299491
    13  C   -0.475633
    14  H    0.151715
    15  H    0.149762
    16  H    0.151866
    17  H    0.151873
    18  H    0.155090
    19  H    0.155463
    20  H    0.160179
    21  C   -0.298070
    22  C   -0.299553
    23  C   -0.475673
    24  H    0.149447
    25  H    0.149000
    26  H    0.151942
    27  H    0.151834
    28  H    0.155066
    29  H    0.155130
    30  H    0.160185
    31  C   -0.298126
    32  C   -0.302064
    33  C   -0.481312
    34  H    0.149105
    35  H    0.149164
    36  H    0.150495
    37  H    0.157044
    38  H    0.154745
    39  H    0.154102
    40  H    0.166089
 Sum of Mulliken charges =  -0.00000

 Dipole moment (field-independent basis, Debye):
    X=              0.0301    Y=              0.0137    Z=             -0.0035  Tot=              0.0332
 Quadrupole moment (field-independent basis, Debye-Ang):
   XX=            -85.6198   YY=            -86.4381   ZZ=            -82.9598
   XY=              0.7536   XZ=             -0.3277   YZ=              0.2107

 Normal termination of Gaussian 16 at Thu May  6 05:29:16 2021.
