 Gaussian 16, Revision A.03,
 Gaussian 16:  EM64L-G16RevA.03 25-Dec-2016

 -------------
 #p 6-31g* mp2
 -------------

 ------------------------------------------------------
 Input file generated by CHIRIPA (05-May-2021 14:57:25)
 ------------------------------------------------------
 Symbolic Z-matrix:
 Charge =  0 Multiplicity = 1

                         Standard orientation:
 ---------------------------------------------------------------------
 Center     Atomic      Atomic             Coordinates (Angstroms)
 Number     Number       Type             X           Y           Z
 ---------------------------------------------------------------------
      1          6           0        2.034439    2.152453   -0.136963
      2          6           0        1.455636    0.894520    0.060803
      3          6           0        2.241800   -0.261196    0.032252
      4          6           0        3.609627   -0.121615   -0.197654
      5          6           0        4.215762    1.117605   -0.398213
      6          6           0        3.410229    2.259792   -0.365437
      7          1           0        1.416204    3.044986   -0.113143
      8          1           0        0.387448    0.808141    0.238450
      9          1           0        1.819704   -1.247478    0.182251
     10          1           0        5.283418    1.171905   -0.573086
     11          1           0        3.862460    3.235416   -0.519351
     12          7           0        4.452156   -1.337958   -0.230117
     13          8           0        5.654822   -1.188135   -0.434533
     14          8           0        3.893912   -2.418120   -0.050529
     15          6           0       -1.847652    0.345254    2.076860
     16          6           0       -2.173681    1.375451    1.188648
     17          6           0       -3.071794    1.151834    0.140824
     18          6           0       -3.627685   -0.119854    0.010113
     19          6           0       -3.322830   -1.166636    0.878790
     20          6           0       -2.422254   -0.920270    1.919374
     21          1           0       -1.149019    0.527801    2.888023
     22          1           0       -1.728973    2.359274    1.308532
     23          1           0       -3.341821    1.931403   -0.561156
     24          1           0       -3.782314   -2.136819    0.733754
     25          1           0       -2.170903   -1.722219    2.607667
     26          7           0       -4.579780   -0.368628   -1.095340
     27          8           0       -5.055864   -1.497885   -1.188942
     28          8           0       -4.831923    0.570349   -1.847259
 ---------------------------------------------------------------------

 SCF Done:  E(RHF) =  -868.336836647     A.U. after   16 cycles
 E2 =    -0.2601445286D+01 EUMP2 =    -0.87093828193210D+03

 The electronic state is 1-A.
 Alpha  occ. eigenvalues --  -20.61466 -20.61455 -20.61061 -20.61054 -15.86526
 Alpha  occ. eigenvalues --  -15.86111 -11.32122 -11.31523 -11.28782 -11.28684
 Alpha  occ. eigenvalues --  -11.28518 -11.28075 -11.28067 -11.27871 -11.27854
 Alpha  occ. eigenvalues --  -11.27708 -11.27130 -11.26971  -1.60534  -1.60133
 Alpha  occ. eigenvalues --   -1.40081  -1.39686  -1.20353  -1.19689  -1.09706
 Alpha  occ. eigenvalues --   -1.09089  -1.05782  -1.05085  -0.96479  -0.95921
 Alpha  occ. eigenvalues --   -0.87172  -0.86484  -0.83298  -0.82740  -0.78306
 Alpha  occ. eigenvalues --   -0.77776  -0.72738  -0.72330  -0.71862  -0.71457
 Alpha  occ. eigenvalues --   -0.71408  -0.70842  -0.65993  -0.65792  -0.65338
 Alpha  occ. eigenvalues --   -0.65086  -0.63092  -0.62449  -0.56238  -0.55665
 Alpha  occ. eigenvalues --   -0.54257  -0.53841  -0.53433  -0.52981  -0.49515
 Alpha  occ. eigenvalues --   -0.49478  -0.49090  -0.49083  -0.45434  -0.45081
 Alpha  occ. eigenvalues --   -0.38346  -0.37696  -0.37389  -0.36681
 Alpha virt. eigenvalues --    0.04210   0.04748   0.10114   0.10950   0.15582
 Alpha virt. eigenvalues --    0.16262   0.19829   0.21666   0.25592   0.27249
 Alpha virt. eigenvalues --    0.27668   0.28277   0.30164   0.31367   0.31961

 Mulliken charges:
               1
     1  C   -0.175339
     2  C   -0.229904
     3  C   -0.175222
     4  C    0.159809
     5  C   -0.171504
     6  C   -0.217620
     7  H    0.220455
     8  H    0.237275
     9  H    0.275246
    10  H    0.276487
    11  H    0.223988
    12  N    0.487972
    13  O   -0.459374
    14  O   -0.460418
    15  C   -0.175907
    16  C   -0.233025
    17  C   -0.169039
    18  C    0.159275
    19  C   -0.168955
    20  C   -0.219053
    21  H    0.231360
    22  H    0.222772
    23  H    0.278008
    24  H    0.280408
    25  H    0.229464
    26  N    0.488109
    27  O   -0.456617
    28  O   -0.458651
 Sum of Mulliken charges =  -0.00000

 Dipole moment (field-independent basis, Debye):
    X=              0.1019    Y=              4.9819    Z=              4.0216  Tot=              6.4033
 Quadrupole moment (field-independent basis, Debye-Ang):
   XX=           -147.0881   YY=           -100.4647   ZZ=           -105.3788
   XY=             15.8025   XZ=            -14.2849   YZ=             -3.7310

 Normal termination of Gaussian 16 at Fri May  7 00:23:20 2021.
