 Gaussian 16, Revision A.03,
 Gaussian 16:  EM64L-G16RevA.03 25-Dec-2016

 -------------
 #p 6-31g* mp2
 -------------

 ------------------------------------------------------
 Input file generated by CHIRIPA (05-May-2021 14:55:23)
 ------------------------------------------------------
 Symbolic Z-matrix:
 Charge =  0 Multiplicity = 1

                         Standard orientation:
 ---------------------------------------------------------------------
 Center     Atomic      Atomic             Coordinates (Angstroms)
 Number     Number       Type             X           Y           Z
 ---------------------------------------------------------------------
      1          6           0       -3.024789    2.006906    0.261564
      2          6           0       -1.799786    1.594629    0.796275
      3          6           0       -1.406147    0.255356    0.719171
      4          6           0       -2.265937   -0.648949    0.097654
      5          6           0       -3.492674   -0.268999   -0.444603
      6          6           0       -3.865841    1.075418   -0.356080
      7          1           0       -3.322626    3.049283    0.325896
      8          1           0       -1.144596    2.315837    1.276514
      9          1           0       -0.463294   -0.091002    1.124734
     10          1           0       -4.124527   -1.011090   -0.917342
     11          1           0       -4.817771    1.392748   -0.772223
     12          7           0       -1.860045   -2.069500    0.009982
     13          8           0       -2.635482   -2.846646   -0.542630
     14          8           0       -0.774156   -2.378885    0.495537
     15          6           0        2.928174    1.265345    0.058466
     16          6           0        1.776813    1.995664   -0.633622
     17          6           0        1.674016    3.463863   -0.219354
     18          1           0        2.794861    1.332225    1.146905
     19          1           0        3.871247    1.779525   -0.173108
     20          1           0        0.836356    1.479448   -0.401936
     21          1           0        1.912780    1.926874   -1.720542
     22          1           0        2.596695    3.999172   -0.465747
     23          1           0        1.514153    3.549205    0.860351
     24          1           0        0.844393    3.966803   -0.725947
     25          6           0        3.043876   -0.203393   -0.345450
     26          6           0        4.195239   -0.933712    0.346638
     27          6           0        4.298035   -2.401911   -0.067630
     28          1           0        2.100803   -0.717573   -0.113875
     29          1           0        3.177190   -0.270274   -1.433889
     30          1           0        4.059271   -0.864921    1.433559
     31          1           0        5.135695   -0.417496    0.114953
     32          1           0        4.457897   -2.487253   -1.147335
     33          1           0        3.375357   -2.937221    0.178763
     34          1           0        5.127658   -2.904852    0.438963
 ---------------------------------------------------------------------

 SCF Done:  E(RHF) =  -669.534797074     A.U. after   15 cycles
 E2 =    -0.2093974705D+01 EUMP2 =    -0.67162877177859D+03

 The electronic state is 1-A.
 Alpha  occ. eigenvalues --  -20.60897 -20.60890 -15.85937 -11.31279 -11.27837
 Alpha  occ. eigenvalues --  -11.27833 -11.27563 -11.26849 -11.26825 -11.21879
 Alpha  occ. eigenvalues --  -11.21686 -11.21552 -11.21343 -11.21199 -11.20565
 Alpha  occ. eigenvalues --   -1.59959  -1.39514  -1.19455  -1.08845  -1.08485
 Alpha  occ. eigenvalues --   -1.04868  -1.03567  -0.96029  -0.95688  -0.87043
 Alpha  occ. eigenvalues --   -0.86244  -0.82531  -0.79674  -0.78240  -0.77557
 Alpha  occ. eigenvalues --   -0.72157  -0.71274  -0.70563  -0.65242  -0.65047
 Alpha  occ. eigenvalues --   -0.64855  -0.62234  -0.60929  -0.59448  -0.57608
 Alpha  occ. eigenvalues --   -0.55367  -0.55316  -0.53215  -0.52920  -0.52724
 Alpha  occ. eigenvalues --   -0.52426  -0.49973  -0.48912  -0.48907  -0.47957
 Alpha  occ. eigenvalues --   -0.46730  -0.45774  -0.45671  -0.44882  -0.43810
 Alpha  occ. eigenvalues --   -0.37425  -0.36351
 Alpha virt. eigenvalues --    0.04904   0.11121   0.16304   0.19575   0.23139
 Alpha virt. eigenvalues --    0.23777   0.25716   0.26556   0.27712   0.28535
 Alpha virt. eigenvalues --    0.29429   0.30900   0.31396   0.32232   0.32623

 Mulliken charges:
               1
     1  C   -0.171834
     2  C   -0.218046
     3  C   -0.172956
     4  C    0.156901
     5  C   -0.171139
     6  C   -0.218309
     7  H    0.226344
     8  H    0.228712
     9  H    0.278779
    10  H    0.275848
    11  H    0.223853
    12  N    0.488759
    13  O   -0.459141
    14  O   -0.462217
    15  C   -0.298479
    16  C   -0.308343
    17  C   -0.476955
    18  H    0.144346
    19  H    0.150643
    20  H    0.154239
    21  H    0.155690
    22  H    0.159899
    23  H    0.147541
    24  H    0.157808
    25  C   -0.305346
    26  C   -0.298734
    27  C   -0.478305
    28  H    0.160169
    29  H    0.150672
    30  H    0.150620
    31  H    0.149640
    32  H    0.154229
    33  H    0.166543
    34  H    0.158569
 Sum of Mulliken charges =  -0.00000

 Dipole moment (field-independent basis, Debye):
    X=             -1.5125    Y=              4.8601    Z=              0.2418  Tot=              5.0958
 Quadrupole moment (field-independent basis, Debye-Ang):
   XX=            -84.3949   YY=           -102.7579   ZZ=            -93.7204
   XY=             -9.4099   XZ=              0.9255   YZ=              0.3714

 Normal termination of Gaussian 16 at Thu May  6 19:16:18 2021.
