 Gaussian 16, Revision A.03,
 Gaussian 16:  EM64L-G16RevA.03 25-Dec-2016

 -------------
 #p 6-31g* mp2
 -------------

 ------------------------------------------------------
 Input file generated by CHIRIPA (05-May-2021 14:51:11)
 ------------------------------------------------------
 Symbolic Z-matrix:
 Charge =  0 Multiplicity = 1

                         Standard orientation:
 ---------------------------------------------------------------------
 Center     Atomic      Atomic             Coordinates (Angstroms)
 Number     Number       Type             X           Y           Z
 ---------------------------------------------------------------------
      1          6           0        3.256057    0.737842   -0.166885
      2          6           0        3.680215    2.148126    0.244425
      3          6           0        2.608954    3.197877   -0.052588
      4          1           0        3.021320    0.730773   -1.240101
      5          1           0        2.327413    0.474063    0.357934
      6          1           0        4.608532    2.408634   -0.279960
      7          1           0        3.914154    2.151795    1.316747
      8          1           0        1.682700    2.965195    0.482681
      9          1           0        2.381023    3.223493   -1.123098
     10          1           0        2.933000    4.198728    0.249326
     11          6           0        4.316519   -0.322681    0.123699
     12          6           0        3.892361   -1.732965   -0.287611
     13          6           0        4.963622   -2.782716    0.009402
     14          1           0        5.245164   -0.058902   -0.401119
     15          1           0        4.551257   -0.315612    1.196915
     16          1           0        3.658422   -1.736634   -1.359933
     17          1           0        2.964045   -1.993473    0.236774
     18          1           0        5.191554   -2.808332    1.079912
     19          1           0        5.889877   -2.550034   -0.525867
     20          1           0        4.639576   -3.783567   -0.292512
     21          6           0       -4.464985   -0.482616    0.238750
     22          6           0       -5.647737    0.271800   -0.369478
     23          6           0       -6.998662   -0.290157    0.074368
     24          1           0       -4.532114   -1.543092   -0.040231
     25          1           0       -4.537758   -0.442440    1.334416
     26          1           0       -5.572005    0.231392   -1.463666
     27          1           0       -5.577680    1.330639   -0.089175
     28          1           0       -7.099904   -0.235039    1.163089
     29          1           0       -7.094196   -1.340531   -0.219212
     30          1           0       -7.830224    0.263893   -0.372166
     31          6           0       -3.107591    0.067456   -0.195564
     32          6           0       -1.924840   -0.686961    0.412663
     33          6           0       -0.573915   -0.125004   -0.031183
     34          1           0       -3.034818    0.027279   -1.291230
     35          1           0       -3.040462    1.127931    0.083418
     36          1           0       -1.994896   -1.745799    0.132361
     37          1           0       -2.000572   -0.646553    1.506852
     38          1           0       -0.478381    0.925370    0.262397
     39          1           0       -0.472673   -0.180122   -1.119903
     40          1           0        0.257648   -0.679054    0.415352
 ---------------------------------------------------------------------

 SCF Done:  E(RHF) =  -470.732798272     A.U. after   11 cycles
 E2 =    -0.1583191927D+01 EUMP2 =    -0.47231599019921D+03

 The electronic state is 1-A.
 Alpha  occ. eigenvalues --  -11.21603 -11.21602 -11.21577 -11.21523 -11.21409
 Alpha  occ. eigenvalues --  -11.21350 -11.21318 -11.21199 -11.21073 -11.21070
 Alpha  occ. eigenvalues --  -11.21050 -11.21019  -1.08439  -1.08355  -1.03541
 Alpha  occ. eigenvalues --   -1.03473  -0.96003  -0.95910  -0.87031  -0.86923
 Alpha  occ. eigenvalues --   -0.79652  -0.79511  -0.78276  -0.78118  -0.65075
 Alpha  occ. eigenvalues --   -0.64996  -0.60964  -0.60849  -0.59383  -0.59290
 Alpha  occ. eigenvalues --   -0.57647  -0.57486  -0.55274  -0.55217  -0.52809
 Alpha  occ. eigenvalues --   -0.52599  -0.52414  -0.52287  -0.49936  -0.49862
 Alpha  occ. eigenvalues --   -0.47971  -0.47802  -0.46688  -0.46526  -0.45855
 Alpha  occ. eigenvalues --   -0.45726  -0.45666  -0.45601  -0.43743  -0.43639
 Alpha virt. eigenvalues --    0.21497   0.23058   0.23556   0.24178   0.25780
 Alpha virt. eigenvalues --    0.26332   0.26903   0.27163   0.27818   0.29320
 Alpha virt. eigenvalues --    0.30178   0.31405   0.31772   0.31862   0.32339

 Mulliken charges:
               1
     1  C   -0.305701
     2  C   -0.299146
     3  C   -0.476763
     4  H    0.148965
     5  H    0.160607
     6  H    0.151398
     7  H    0.151201
     8  H    0.155972
     9  H    0.155296
    10  H    0.159771
    11  C   -0.297989
    12  C   -0.300695
    13  C   -0.475629
    14  H    0.149129
    15  H    0.148930
    16  H    0.152084
    17  H    0.152041
    18  H    0.155052
    19  H    0.155296
    20  H    0.160057
    21  C   -0.298253
    22  C   -0.299623
    23  C   -0.475701
    24  H    0.149651
    25  H    0.149451
    26  H    0.151955
    27  H    0.151982
    28  H    0.155161
    29  H    0.155171
    30  H    0.160278
    31  C   -0.298643
    32  C   -0.300105
    33  C   -0.478990
    34  H    0.149614
    35  H    0.149701
    36  H    0.151977
    37  H    0.151516
    38  H    0.156235
    39  H    0.156380
    40  H    0.162366
 Sum of Mulliken charges =  -0.00000

 Dipole moment (field-independent basis, Debye):
    X=             -0.0311    Y=             -0.0059    Z=             -0.0113  Tot=              0.0336
 Quadrupole moment (field-independent basis, Debye-Ang):
   XX=            -86.4293   YY=            -85.3011   ZZ=            -83.3369
   XY=              0.3001   XZ=             -0.2433   YZ=              0.5902

 Normal termination of Gaussian 16 at Wed May  5 15:12:43 2021.
