 Gaussian 16, Revision A.03,
 Gaussian 16:  EM64L-G16RevA.03 25-Dec-2016

 -------------
 #p 6-31g* mp2
 -------------

 ------------------------------------------------------
 Input file generated by CHIRIPA (05-May-2021 14:51:14)
 ------------------------------------------------------
 Symbolic Z-matrix:
 Charge =  0 Multiplicity = 1

                         Standard orientation:
 ---------------------------------------------------------------------
 Center     Atomic      Atomic             Coordinates (Angstroms)
 Number     Number       Type             X           Y           Z
 ---------------------------------------------------------------------
      1          6           0        4.219338   -0.342344   -0.325090
      2          6           0        5.213557    0.587473    0.371295
      3          6           0        6.558840    0.662450   -0.351468
      4          1           0        4.655572   -1.348125   -0.396142
      5          1           0        4.063886    0.004483   -1.356080
      6          1           0        5.366030    0.239801    1.401097
      7          1           0        4.774828    1.591112    0.440870
      8          1           0        6.426806    1.030762   -1.373972
      9          1           0        7.021367   -0.328228   -0.408288
     10          1           0        7.254369    1.332570    0.163351
     11          6           0        2.869759   -0.427786    0.385590
     12          6           0        1.875540   -1.357604   -0.310795
     13          6           0        0.530257   -1.432580    0.411968
     14          1           0        3.025210   -0.774614    1.416580
     15          1           0        2.433525    0.577995    0.456643
     16          1           0        2.314269   -2.361243   -0.380370
     17          1           0        1.723067   -1.009931   -1.340597
     18          1           0        0.067730   -0.441903    0.468789
     19          1           0        0.662291   -1.800893    1.434472
     20          1           0       -0.165272   -2.102700   -0.102851
     21          6           0       -3.951563   -0.203127   -0.298208
     22          6           0       -3.559271   -1.544555    0.322004
     23          6           0       -4.382373   -2.711612   -0.224143
     24          1           0       -5.018787   -0.019108   -0.113512
     25          1           0       -3.828522   -0.261239   -1.388566
     26          1           0       -3.681696   -1.483485    1.410994
     27          1           0       -2.492811   -1.725312    0.135975
     28          1           0       -4.252288   -2.801083   -1.307505
     29          1           0       -5.447928   -2.557881   -0.025241
     30          1           0       -4.085456   -3.660798    0.232744
     31          6           0       -3.137534    0.973257    0.237708
     32          6           0       -3.529826    2.314685   -0.382505
     33          6           0       -2.706723    3.481742    0.163642
     34          1           0       -3.260575    1.031369    1.328065
     35          1           0       -2.070310    0.789238    0.053012
     36          1           0       -4.596286    2.495442   -0.196475
     37          1           0       -3.407401    2.253616   -1.471494
     38          1           0       -1.641169    3.328012   -0.035258
     39          1           0       -2.836809    3.571214    1.247005
     40          1           0       -3.003641    4.430928   -0.293245
 ---------------------------------------------------------------------

 SCF Done:  E(RHF) =  -470.732665856     A.U. after   11 cycles
 E2 =    -0.1583382078D+01 EUMP2 =    -0.47231604793383D+03

 The electronic state is 1-A.
 Alpha  occ. eigenvalues --  -11.21647 -11.21621 -11.21582 -11.21451 -11.21438
 Alpha  occ. eigenvalues --  -11.21378 -11.21348 -11.21287 -11.21116 -11.21086
 Alpha  occ. eigenvalues --  -11.21075 -11.21004  -1.08468  -1.08374  -1.03573
 Alpha  occ. eigenvalues --   -1.03475  -0.96024  -0.95936  -0.87052  -0.86947
 Alpha  occ. eigenvalues --   -0.79677  -0.79513  -0.78300  -0.78154  -0.65134
 Alpha  occ. eigenvalues --   -0.64987  -0.60967  -0.60914  -0.59453  -0.59240
 Alpha  occ. eigenvalues --   -0.57678  -0.57502  -0.55371  -0.55176  -0.52801
 Alpha  occ. eigenvalues --   -0.52608  -0.52464  -0.52326  -0.50006  -0.49853
 Alpha  occ. eigenvalues --   -0.47993  -0.47817  -0.46730  -0.46564  -0.45903
 Alpha  occ. eigenvalues --   -0.45762  -0.45690  -0.45475  -0.43773  -0.43695
 Alpha virt. eigenvalues --    0.21588   0.23099   0.23969   0.24184   0.25715
 Alpha virt. eigenvalues --    0.26760   0.27061   0.27375   0.27859   0.29215
 Alpha virt. eigenvalues --    0.29724   0.31598   0.31702   0.31902   0.32134

 Mulliken charges:
               1
     1  C   -0.298302
     2  C   -0.299664
     3  C   -0.475721
     4  H    0.149748
     5  H    0.149480
     6  H    0.152018
     7  H    0.152024
     8  H    0.155189
     9  H    0.155203
    10  H    0.160360
    11  C   -0.298736
    12  C   -0.299524
    13  C   -0.483039
    14  H    0.149793
    15  H    0.149592
    16  H    0.152148
    17  H    0.151627
    18  H    0.160263
    19  H    0.156296
    20  H    0.162252
    21  C   -0.297365
    22  C   -0.308776
    23  C   -0.475384
    24  H    0.149278
    25  H    0.148733
    26  H    0.151331
    27  H    0.162935
    28  H    0.154440
    29  H    0.154872
    30  H    0.159784
    31  C   -0.304131
    32  C   -0.299263
    33  C   -0.475489
    34  H    0.149452
    35  H    0.155119
    36  H    0.152043
    37  H    0.151657
    38  H    0.154178
    39  H    0.155327
    40  H    0.160256
 Sum of Mulliken charges =  -0.00000

 Dipole moment (field-independent basis, Debye):
    X=              0.0494    Y=             -0.0106    Z=              0.0172  Tot=              0.0534
 Quadrupole moment (field-independent basis, Debye-Ang):
   XX=            -85.7088   YY=            -85.1181   ZZ=            -84.1799
   XY=             -1.0760   XZ=             -0.0683   YZ=             -0.5757

 Normal termination of Gaussian 16 at Wed May  5 15:23:13 2021.
