 Gaussian 16, Revision A.03,
 Gaussian 16:  EM64L-G16RevA.03 25-Dec-2016

 -------------
 #p 6-31g* mp2
 -------------

 ------------------------------------------------------
 Input file generated by CHIRIPA (05-May-2021 14:57:26)
 ------------------------------------------------------
 Symbolic Z-matrix:
 Charge =  0 Multiplicity = 1

                         Standard orientation:
 ---------------------------------------------------------------------
 Center     Atomic      Atomic             Coordinates (Angstroms)
 Number     Number       Type             X           Y           Z
 ---------------------------------------------------------------------
      1          6           0        2.756600    2.386013   -0.964739
      2          6           0        1.887288    1.658507   -0.145255
      3          6           0        2.256681    0.401470    0.342549
      4          6           0        3.508504   -0.100053   -0.010587
      5          6           0        4.396738    0.600577   -0.825109
      6          6           0        4.006347    1.855661   -1.301457
      7          1           0        2.461490    3.361751   -1.339227
      8          1           0        0.916101    2.067899    0.117877
      9          1           0        1.603205   -0.183096    0.978686
     10          1           0        5.358367    0.166278   -1.070206
     11          1           0        4.683512    2.418413   -1.937698
     12          7           0        3.910678   -1.429788    0.499765
     13          8           0        5.019022   -1.849514    0.174124
     14          8           0        3.109944   -2.027131    1.215755
     15          6           0       -2.608069    0.769475    2.303894
     16          6           0       -3.883026    1.117580    1.845825
     17          6           0       -4.355558    0.631124    0.623277
     18          6           0       -3.522863   -0.205008   -0.118878
     19          6           0       -2.247814   -0.569923    0.310515
     20          6           0       -1.795964   -0.071681    1.536131
     21          1           0       -2.249028    1.151943    3.254791
     22          1           0       -4.515898    1.770655    2.439972
     23          1           0       -5.338372    0.884653    0.244836
     24          1           0       -1.639910   -1.222824   -0.303969
     25          1           0       -0.805373   -0.343698    1.889377
     26          7           0       -4.012163   -0.726235   -1.414758
     27          8           0       -3.259162   -1.461277   -2.049848
     28          8           0       -5.139414   -0.389862   -1.770842
 ---------------------------------------------------------------------

 SCF Done:  E(RHF) =  -868.337498845     A.U. after   16 cycles
 E2 =    -0.2599822651D+01 EUMP2 =    -0.87093732149637D+03

 The electronic state is 1-A.
 Alpha  occ. eigenvalues --  -20.61221 -20.61196 -20.61082 -20.61074 -15.86264
 Alpha  occ. eigenvalues --  -15.86141 -11.31651 -11.31619 -11.28309 -11.28230
 Alpha  occ. eigenvalues --  -11.28216 -11.28149 -11.28005 -11.27889 -11.27314
 Alpha  occ. eigenvalues --  -11.27225 -11.27224 -11.27164  -1.60281  -1.60156
 Alpha  occ. eigenvalues --   -1.39839  -1.39705  -1.19827  -1.19800  -1.09196
 Alpha  occ. eigenvalues --   -1.09179  -1.05270  -1.05196  -0.96025  -0.96002
 Alpha  occ. eigenvalues --   -0.86648  -0.86597  -0.82888  -0.82812  -0.77969
 Alpha  occ. eigenvalues --   -0.77819  -0.72482  -0.72353  -0.71601  -0.71485
 Alpha  occ. eigenvalues --   -0.70934  -0.70895  -0.65481  -0.65460  -0.65320
 Alpha  occ. eigenvalues --   -0.65149  -0.62768  -0.62388  -0.55753  -0.55664
 Alpha  occ. eigenvalues --   -0.53584  -0.53516  -0.53430  -0.53201  -0.49250
 Alpha  occ. eigenvalues --   -0.49228  -0.49124  -0.49101  -0.45240  -0.45085
 Alpha  occ. eigenvalues --   -0.37818  -0.37749  -0.36914  -0.36765
 Alpha virt. eigenvalues --    0.04592   0.04709   0.10729   0.10840   0.16007
 Alpha virt. eigenvalues --    0.16172   0.18819   0.21868   0.24530   0.27349
 Alpha virt. eigenvalues --    0.27924   0.28965   0.29882   0.31161   0.31968

 Mulliken charges:
               1
     1  C   -0.170094
     2  C   -0.219509
     3  C   -0.177145
     4  C    0.161142
     5  C   -0.169764
     6  C   -0.217755
     7  H    0.227804
     8  H    0.224387
     9  H    0.269058
    10  H    0.277341
    11  H    0.225728
    12  N    0.487894
    13  O   -0.457115
    14  O   -0.463750
    15  C   -0.172112
    16  C   -0.219079
    17  C   -0.170064
    18  C    0.158133
    19  C   -0.172059
    20  C   -0.229164
    21  H    0.227665
    22  H    0.224987
    23  H    0.277168
    24  H    0.279843
    25  H    0.226392
    26  N    0.487918
    27  O   -0.458094
    28  O   -0.459757
 Sum of Mulliken charges =  -0.00000

 Dipole moment (field-independent basis, Debye):
    X=              0.3067    Y=              6.5723    Z=              2.6398  Tot=              7.0892
 Quadrupole moment (field-independent basis, Debye-Ang):
   XX=           -118.4265   YY=           -106.3131   ZZ=           -105.8198
   XY=              7.9842   XZ=            -26.1910   YZ=             -0.9495

 Normal termination of Gaussian 16 at Fri May  7 05:04:50 2021.
