 Gaussian 16, Revision A.03,
 Gaussian 16:  EM64L-G16RevA.03 25-Dec-2016

 -------------
 #p 6-31g* mp2
 -------------

 ------------------------------------------------------
 Input file generated by CHIRIPA (05-May-2021 14:53:17)
 ------------------------------------------------------
 Symbolic Z-matrix:
 Charge =  0 Multiplicity = 1

                         Standard orientation:
 ---------------------------------------------------------------------
 Center     Atomic      Atomic             Coordinates (Angstroms)
 Number     Number       Type             X           Y           Z
 ---------------------------------------------------------------------
      1          6           0       -3.860604    0.494950    0.250434
      2          6           0       -3.723009    1.962998   -0.154398
      3          6           0       -2.419342    2.592259    0.337818
      4          1           0       -3.804018    0.416117    1.344751
      5          1           0       -3.006416   -0.069710   -0.148207
      6          1           0       -4.577921    2.524465    0.243717
      7          1           0       -3.780122    2.038366   -1.247867
      8          1           0       -1.555434    2.057615   -0.070127
      9          1           0       -2.357767    2.546475    1.429932
     10          1           0       -2.341639    3.641800    0.037340
     11          6           0       -5.158775   -0.148051   -0.234364
     12          6           0       -5.296371   -1.616098    0.170468
     13          6           0       -6.600038   -2.245359   -0.321748
     14          1           0       -6.012964    0.416610    0.164278
     15          1           0       -5.215362   -0.069217   -1.328681
     16          1           0       -5.239258   -1.691467    1.263937
     17          1           0       -4.441459   -2.177565   -0.227647
     18          1           0       -6.661613   -2.199576   -1.413862
     19          1           0       -7.463946   -1.710715    0.086197
     20          1           0       -6.677741   -3.294900   -0.021270
     21          6           0        2.574100    2.201068   -0.080802
     22          6           0        3.940176    1.993158   -0.297898
     23          6           0        4.476983    0.702860   -0.258961
     24          6           0        3.614951   -0.361399    0.000927
     25          6           0        2.249608   -0.186561    0.221296
     26          6           0        1.734656    1.112464    0.177647
     27          1           0        2.165583    3.206793   -0.112879
     28          1           0        4.594474    2.836701   -0.498834
     29          1           0        5.530771    0.513396   -0.423439
     30          1           0        1.622392   -1.047274    0.419269
     31          1           0        0.673347    1.270941    0.346623
     32          7           0        4.171675   -1.732000    0.044642
     33          8           0        3.391100   -2.652875    0.275571
     34          8           0        5.378071   -1.859449   -0.152851
 ---------------------------------------------------------------------

 SCF Done:  E(RHF) =  -669.535619197     A.U. after   15 cycles
 E2 =    -0.2090740185D+01 EUMP2 =    -0.67162635938195D+03

 The electronic state is 1-A.
 Alpha  occ. eigenvalues --  -20.60727 -20.60722 -15.85780 -11.31135 -11.27706
 Alpha  occ. eigenvalues --  -11.27696 -11.27436 -11.26719 -11.26676 -11.22374
 Alpha  occ. eigenvalues --  -11.22178 -11.22025 -11.21934 -11.21822 -11.21317
 Alpha  occ. eigenvalues --   -1.59803  -1.39357  -1.19306  -1.09001  -1.08701
 Alpha  occ. eigenvalues --   -1.04708  -1.04124  -0.96600  -0.95538  -0.87625
 Alpha  occ. eigenvalues --   -0.86105  -0.82372  -0.80204  -0.78778  -0.77422
 Alpha  occ. eigenvalues --   -0.71999  -0.71126  -0.70411  -0.65636  -0.64956
 Alpha  occ. eigenvalues --   -0.64727  -0.62096  -0.61493  -0.59980  -0.58186
 Alpha  occ. eigenvalues --   -0.55910  -0.55200  -0.53302  -0.53132  -0.53037
 Alpha  occ. eigenvalues --   -0.52694  -0.50535  -0.48766  -0.48754  -0.48495
 Alpha  occ. eigenvalues --   -0.47216  -0.46328  -0.46223  -0.44765  -0.44362
 Alpha  occ. eigenvalues --   -0.37286  -0.36312
 Alpha virt. eigenvalues --    0.05113   0.11321   0.16602   0.20018   0.22511
 Alpha virt. eigenvalues --    0.23760   0.25277   0.26374   0.27163   0.28302
 Alpha virt. eigenvalues --    0.28723   0.30207   0.31038   0.31466   0.32043

 Mulliken charges:
               1
     1  C   -0.298778
     2  C   -0.299009
     3  C   -0.482409
     4  H    0.150610
     5  H    0.147041
     6  H    0.155449
     7  H    0.154381
     8  H    0.148337
     9  H    0.157708
    10  H    0.162654
    11  C   -0.298788
    12  C   -0.300364
    13  C   -0.476118
    14  H    0.150651
    15  H    0.150808
    16  H    0.152610
    17  H    0.153087
    18  H    0.155803
    19  H    0.155424
    20  H    0.162155
    21  C   -0.173087
    22  C   -0.218599
    23  C   -0.171273
    24  C    0.158901
    25  C   -0.172972
    26  C   -0.226546
    27  H    0.226092
    28  H    0.223191
    29  H    0.275383
    30  H    0.275857
    31  H    0.235000
    32  N    0.488021
    33  O   -0.460569
    34  O   -0.460651
 Sum of Mulliken charges =  -0.00000

 Dipole moment (field-independent basis, Debye):
    X=             -2.1805    Y=              4.8416    Z=             -0.1543  Tot=              5.3122
 Quadrupole moment (field-independent basis, Debye-Ang):
   XX=           -104.6170   YY=            -98.2688   ZZ=            -94.7579
   XY=             19.5631   XZ=             -2.2571   YZ=             -0.2773

 Normal termination of Gaussian 16 at Wed May  5 20:24:09 2021.
