 Gaussian 16, Revision A.03,
 Gaussian 16:  EM64L-G16RevA.03 25-Dec-2016

 -------------
 #p 6-31g* mp2
 -------------

 ------------------------------------------------------
 Input file generated by CHIRIPA (05-May-2021 14:57:24)
 ------------------------------------------------------
 Symbolic Z-matrix:
 Charge =  0 Multiplicity = 1

                         Standard orientation:
 ---------------------------------------------------------------------
 Center     Atomic      Atomic             Coordinates (Angstroms)
 Number     Number       Type             X           Y           Z
 ---------------------------------------------------------------------
      1          6           0        2.940978   -1.777398    1.272476
      2          6           0        2.693647   -1.776818   -0.104240
      3          6           0        2.313227   -0.600373   -0.756779
      4          6           0        2.189149    0.562687    0.001632
      5          6           0        2.428623    0.594184    1.374566
      6          6           0        2.807911   -0.593981    2.006192
      7          1           0        3.236058   -2.695841    1.771261
      8          1           0        2.796203   -2.694395   -0.676587
      9          1           0        2.115621   -0.571622   -1.821458
     10          1           0        2.318106    1.524470    1.918416
     11          1           0        2.999348   -0.591465    3.075486
     12          7           0        1.787014    1.814340   -0.678112
     13          8           0        1.684695    2.825827    0.012585
     14          8           0        1.581754    1.760199   -1.888721
     15          6           0       -3.390869    1.466940    1.210019
     16          6           0       -2.783189    1.765314   -0.013999
     17          6           0       -2.151158    0.762999   -0.755920
     18          6           0       -2.145655   -0.532673   -0.241630
     19          6           0       -2.742283   -0.861420    0.974615
     20          6           0       -3.368515    0.156834    1.699556
     21          1           0       -3.879593    2.251752    1.779766
     22          1           0       -2.798998    2.781869   -0.396635
     23          1           0       -1.672933    0.966224   -1.706404
     24          1           0       -2.710182   -1.884146    1.330167
     25          1           0       -3.839630   -0.077798    2.649841
     26          7           0       -1.479621   -1.602215   -1.018082
     27          8           0       -1.488571   -2.735790   -0.543144
     28          8           0       -0.961246   -1.286697   -2.086900
 ---------------------------------------------------------------------

 SCF Done:  E(RHF) =  -868.340723205     A.U. after   16 cycles
 E2 =    -0.2600738459D+01 EUMP2 =    -0.87094146166318D+03

 The electronic state is 1-A.
 Alpha  occ. eigenvalues --  -20.60835 -20.60826 -20.60644 -20.60622 -15.85853
 Alpha  occ. eigenvalues --  -15.85664 -11.30975 -11.30743 -11.27572 -11.27385
 Alpha  occ. eigenvalues --  -11.27377 -11.27224 -11.27146 -11.27013 -11.26550
 Alpha  occ. eigenvalues --  -11.26388 -11.26331 -11.26134  -1.59901  -1.59715
 Alpha  occ. eigenvalues --   -1.39459  -1.39268  -1.19126  -1.18909  -1.08575
 Alpha  occ. eigenvalues --   -1.08362  -1.04475  -1.04246  -0.95447  -0.95233
 Alpha  occ. eigenvalues --   -0.85889  -0.85661  -0.82275  -0.82062  -0.77350
 Alpha  occ. eigenvalues --   -0.77127  -0.72099  -0.71886  -0.71265  -0.70997
 Alpha  occ. eigenvalues --   -0.70215  -0.69992  -0.64775  -0.64554  -0.64463
 Alpha  occ. eigenvalues --   -0.64235  -0.61802  -0.61570  -0.55004  -0.54784
 Alpha  occ. eigenvalues --   -0.52845  -0.52627  -0.52545  -0.52317  -0.48857
 Alpha  occ. eigenvalues --   -0.48838  -0.48654  -0.48621  -0.44952  -0.44695
 Alpha  occ. eigenvalues --   -0.37158  -0.36858  -0.36069  -0.35822
 Alpha virt. eigenvalues --    0.05105   0.05364   0.11548   0.11836   0.16670
 Alpha virt. eigenvalues --    0.16880   0.21738   0.22028   0.27730   0.27942
 Alpha virt. eigenvalues --    0.28526   0.29004   0.31267   0.31526   0.32698

 Mulliken charges:
               1
     1  C   -0.169984
     2  C   -0.216678
     3  C   -0.168740
     4  C    0.151814
     5  C   -0.172034
     6  C   -0.220280
     7  H    0.225335
     8  H    0.230182
     9  H    0.286476
    10  H    0.271557
    11  H    0.220213
    12  N    0.487421
    13  O   -0.465723
    14  O   -0.460092
    15  C   -0.170674
    16  C   -0.216315
    17  C   -0.177039
    18  C    0.156498
    19  C   -0.171907
    20  C   -0.219439
    21  H    0.225782
    22  H    0.230363
    23  H    0.287091
    24  H    0.272253
    25  H    0.221298
    26  N    0.488653
    27  O   -0.464447
    28  O   -0.461580
 Sum of Mulliken charges =  -0.00000

 Dipole moment (field-independent basis, Debye):
    X=             -0.9445    Y=             -0.6711    Z=              4.9006  Tot=              5.0357
 Quadrupole moment (field-independent basis, Debye-Ang):
   XX=            -89.7393   YY=           -111.2085   ZZ=           -100.3808
   XY=            -15.8438   XZ=             -1.0791   YZ=             -1.2945

 Normal termination of Gaussian 16 at Thu May  6 16:22:38 2021.
