 Gaussian 16, Revision A.03,
 Gaussian 16:  EM64L-G16RevA.03 25-Dec-2016

 -------------
 #p 6-31g* mp2
 -------------

 ------------------------------------------------------
 Input file generated by CHIRIPA (05-May-2021 14:57:23)
 ------------------------------------------------------
 Symbolic Z-matrix:
 Charge =  0 Multiplicity = 1

                         Standard orientation:
 ---------------------------------------------------------------------
 Center     Atomic      Atomic             Coordinates (Angstroms)
 Number     Number       Type             X           Y           Z
 ---------------------------------------------------------------------
      1          6           0       -4.961399    1.312613   -1.236417
      2          6           0       -5.493101    0.464625   -0.259314
      3          6           0       -4.666826   -0.422898    0.436474
      4          6           0       -3.307353   -0.436066    0.128334
      5          6           0       -2.747704    0.396350   -0.839740
      6          6           0       -3.592810    1.275834   -1.523006
      7          1           0       -5.610583    1.998940   -1.772058
      8          1           0       -6.555587    0.491016   -0.034655
      9          1           0       -5.052069   -1.090372    1.197712
     10          1           0       -1.684583    0.347163   -1.041662
     11          1           0       -3.177117    1.933241   -2.281333
     12          7           0       -2.422645   -1.371391    0.858305
     13          8           0       -1.228310   -1.363677    0.568234
     14          8           0       -2.940298   -2.094503    1.706704
     15          6           0        2.033605    1.878307    1.334474
     16          6           0        3.364304    1.648584    1.699150
     17          6           0        4.160144    0.766159    0.962596
     18          6           0        3.590401    0.127580   -0.137813
     19          6           0        2.267860    0.335576   -0.526289
     20          6           0        1.490587    1.222225    0.224875
     21          1           0        1.422589    2.565436    1.912322
     22          1           0        3.788675    2.156709    2.560407
     23          1           0        5.193210    0.569890    1.222733
     24          1           0        1.872816   -0.185656   -1.389815
     25          1           0        0.457451    1.398699   -0.060662
     26          7           0        4.423093   -0.808841   -0.925303
     27          8           0        3.897518   -1.359013   -1.890559
     28          8           0        5.585565   -0.974903   -0.562373
 ---------------------------------------------------------------------

 SCF Done:  E(RHF) =  -868.337170183     A.U. after   16 cycles
 E2 =    -0.2600170035D+01 EUMP2 =    -0.87093734021842D+03

 The electronic state is 1-A.
 Alpha  occ. eigenvalues --  -20.61406 -20.61390 -20.60284 -20.60276 -15.86447
 Alpha  occ. eigenvalues --  -15.85336 -11.31887 -11.30658 -11.28537 -11.28383
 Alpha  occ. eigenvalues --  -11.28130 -11.27485 -11.27409 -11.27244 -11.27234
 Alpha  occ. eigenvalues --  -11.27011 -11.26305 -11.26269  -1.60467  -1.59356
 Alpha  occ. eigenvalues --   -1.40023  -1.38912  -1.20042  -1.18837  -1.09409
 Alpha  occ. eigenvalues --   -1.08251  -1.05459  -1.04248  -0.96244  -0.95090
 Alpha  occ. eigenvalues --   -0.86850  -0.85661  -0.83076  -0.81936  -0.78143
 Alpha  occ. eigenvalues --   -0.76975  -0.72658  -0.71792  -0.71562  -0.71145
 Alpha  occ. eigenvalues --   -0.70672  -0.69977  -0.65689  -0.65467  -0.64510
 Alpha  occ. eigenvalues --   -0.64304  -0.62828  -0.61598  -0.55920  -0.54786
 Alpha  occ. eigenvalues --   -0.53769  -0.53556  -0.52547  -0.52363  -0.49429
 Alpha  occ. eigenvalues --   -0.49410  -0.48317  -0.48312  -0.45406  -0.44327
 Alpha  occ. eigenvalues --   -0.37994  -0.37062  -0.36815  -0.35803
 Alpha virt. eigenvalues --    0.04382   0.05579   0.10524   0.11836   0.15912
 Alpha virt. eigenvalues --    0.17059   0.19347   0.21996   0.25086   0.27149
 Alpha virt. eigenvalues --    0.28628   0.28961   0.30609   0.31029   0.32712

 Mulliken charges:
               1
     1  C   -0.170697
     2  C   -0.217646
     3  C   -0.170393
     4  C    0.159591
     5  C   -0.176690
     6  C   -0.218575
     7  H    0.228057
     8  H    0.226116
     9  H    0.277781
    10  H    0.270872
    11  H    0.224492
    12  N    0.488127
    13  O   -0.463140
    14  O   -0.456346
    15  C   -0.171193
    16  C   -0.218277
    17  C   -0.170859
    18  C    0.157888
    19  C   -0.164799
    20  C   -0.208004
    21  H    0.223278
    22  H    0.221667
    23  H    0.274345
    24  H    0.273679
    25  H    0.214894
    26  N    0.488439
    27  O   -0.460637
    28  O   -0.461969
 Sum of Mulliken charges =  -0.00000

 Dipole moment (field-independent basis, Debye):
    X=             -6.3364    Y=              6.4846    Z=              0.2635  Tot=              9.0703
 Quadrupole moment (field-independent basis, Debye-Ang):
   XX=            -98.7367   YY=           -107.6274   ZZ=           -104.0293
   XY=              3.9994   XZ=             19.0497   YZ=              0.9118

 Normal termination of Gaussian 16 at Wed May  5 22:39:51 2021.
