 Gaussian 16, Revision A.03,
 Gaussian 16:  EM64L-G16RevA.03 25-Dec-2016

 -------------
 #p 6-31g* mp2
 -------------

 ------------------------------------------------------
 Input file generated by CHIRIPA (05-May-2021 14:55:23)
 ------------------------------------------------------
 Symbolic Z-matrix:
 Charge =  0 Multiplicity = 1

                         Standard orientation:
 ---------------------------------------------------------------------
 Center     Atomic      Atomic             Coordinates (Angstroms)
 Number     Number       Type             X           Y           Z
 ---------------------------------------------------------------------
      1          6           0       -1.298230    0.631000    1.769928
      2          6           0       -1.734472    1.456601    0.728488
      3          6           0       -2.737755    1.027145   -0.145318
      4          6           0       -3.285288   -0.239515    0.052345
      5          6           0       -2.871967   -1.085232    1.080556
      6          6           0       -1.867366   -0.635050    1.942334
      7          1           0       -0.518344    0.972662    2.444051
      8          1           0       -1.294278    2.440318    0.592201
      9          1           0       -3.094288    1.645870   -0.959862
     10          1           0       -3.329790   -2.060721    1.191182
     11          1           0       -1.530547   -1.278363    2.750261
     12          7           0       -4.348116   -0.705132   -0.866349
     13          8           0       -4.814439   -1.825392   -0.670905
     14          8           0       -4.694713    0.058993   -1.764469
     15          6           0        3.487317    0.671188    0.093506
     16          6           0        2.863259    1.715432   -0.832826
     17          6           0        1.877911    2.633892   -0.109422
     18          1           0        2.688484    0.069151    0.547776
     19          1           0        4.000542    1.183502    0.919054
     20          1           0        2.352540    1.201334   -1.657135
     21          1           0        3.663681    2.314927   -1.285092
     22          1           0        2.378010    3.172762    0.701826
     23          1           0        1.059419    2.052840    0.327669
     24          1           0        1.443677    3.372629   -0.790282
     25          6           0        4.474593   -0.254481   -0.615122
     26          6           0        5.098650   -1.298725    0.311210
     27          6           0        6.083998   -2.217186   -0.412195
     28          1           0        3.961367   -0.766794   -1.440670
     29          1           0        5.273426    0.347555   -1.069393
     30          1           0        4.298228   -1.898220    0.763475
     31          1           0        5.609370   -0.784627    1.135518
     32          1           0        6.902491   -1.636134   -0.849286
     33          1           0        5.583899   -2.756055   -1.223442
     34          1           0        6.518232   -2.955922    0.268665
 ---------------------------------------------------------------------

 SCF Done:  E(RHF) =  -669.535055085     A.U. after   15 cycles
 E2 =    -0.2091982726D+01 EUMP2 =    -0.67162703781051D+03

 The electronic state is 1-A.
 Alpha  occ. eigenvalues --  -20.60787 -20.60782 -15.85839 -11.31221 -11.27781
 Alpha  occ. eigenvalues --  -11.27765 -11.27516 -11.26804 -11.26750 -11.22255
 Alpha  occ. eigenvalues --  -11.22031 -11.21999 -11.21953 -11.21835 -11.21406
 Alpha  occ. eigenvalues --   -1.59862  -1.39415  -1.19390  -1.08983  -1.08783
 Alpha  occ. eigenvalues --   -1.04792  -1.04099  -0.96577  -0.95615  -0.87611
 Alpha  occ. eigenvalues --   -0.86185  -0.82441  -0.80180  -0.78783  -0.77488
 Alpha  occ. eigenvalues --   -0.72058  -0.71185  -0.70494  -0.65627  -0.65040
 Alpha  occ. eigenvalues --   -0.64805  -0.62181  -0.61450  -0.59945  -0.58170
 Alpha  occ. eigenvalues --   -0.55882  -0.55282  -0.53314  -0.53193  -0.52979
 Alpha  occ. eigenvalues --   -0.52784  -0.50485  -0.48818  -0.48812  -0.48484
 Alpha  occ. eigenvalues --   -0.47183  -0.46333  -0.46232  -0.44817  -0.44350
 Alpha  occ. eigenvalues --   -0.37347  -0.36373
 Alpha virt. eigenvalues --    0.05020   0.11120   0.16487   0.20816   0.22482
 Alpha virt. eigenvalues --    0.23936   0.25959   0.26298   0.26826   0.27914
 Alpha virt. eigenvalues --    0.28910   0.30177   0.31075   0.31540   0.31656

 Mulliken charges:
               1
     1  C   -0.172556
     2  C   -0.218716
     3  C   -0.172956
     4  C    0.158527
     5  C   -0.171173
     6  C   -0.218871
     7  H    0.227050
     8  H    0.228703
     9  H    0.275882
    10  H    0.275678
    11  H    0.223628
    12  N    0.488070
    13  O   -0.460358
    14  O   -0.460208
    15  C   -0.298974
    16  C   -0.298582
    17  C   -0.484441
    18  H    0.147495
    19  H    0.148750
    20  H    0.155742
    21  H    0.154642
    22  H    0.155349
    23  H    0.152602
    24  H    0.160551
    25  C   -0.298884
    26  C   -0.299842
    27  C   -0.476058
    28  H    0.151832
    29  H    0.151027
    30  H    0.150988
    31  H    0.151571
    32  H    0.156007
    33  H    0.156550
    34  H    0.160976
 Sum of Mulliken charges =  -0.00000

 Dipole moment (field-independent basis, Debye):
    X=              3.8293    Y=              1.6016    Z=              3.1793  Tot=              5.2285
 Quadrupole moment (field-independent basis, Debye-Ang):
   XX=           -119.6806   YY=            -92.1902   ZZ=            -93.7641
   XY=             -5.1240   XZ=            -10.4145   YZ=             -3.4114

 Normal termination of Gaussian 16 at Thu May  6 06:17:40 2021.
