 Gaussian 16, Revision A.03,
 Gaussian 16:  EM64L-G16RevA.03 25-Dec-2016

 -------------
 #p 6-31g* mp2
 -------------

 ------------------------------------------------------
 Input file generated by CHIRIPA (05-May-2021 14:51:08)
 ------------------------------------------------------
 Symbolic Z-matrix:
 Charge =  0 Multiplicity = 1

                         Standard orientation:
 ---------------------------------------------------------------------
 Center     Atomic      Atomic             Coordinates (Angstroms)
 Number     Number       Type             X           Y           Z
 ---------------------------------------------------------------------
      1          6           0        1.857988   -0.207203   -0.959691
      2          6           0        2.134262   -1.709923   -1.018752
      3          6           0        1.539185   -2.371978   -2.261878
      4          1           0        0.772529   -0.039234   -0.982276
      5          1           0        2.266860    0.269432   -1.861378
      6          1           0        1.726207   -2.183383   -0.116564
      7          1           0        3.219185   -1.874342   -0.995831
      8          1           0        1.954447   -1.926569   -3.171696
      9          1           0        0.452986   -2.237366   -2.287433
     10          1           0        1.748547   -3.446010   -2.283881
     11          6           0        2.446591    0.468819    0.277349
     12          6           0        2.170317    1.971539    0.336410
     13          6           0        2.765394    2.633594    1.579536
     14          1           0        2.037718   -0.007816    1.179036
     15          1           0        3.532050    0.300850    0.299934
     16          1           0        1.085394    2.135958    0.313489
     17          1           0        2.578372    2.444999   -0.565778
     18          1           0        3.851593    2.498982    1.605091
     19          1           0        2.350132    2.188185    2.489354
     20          1           0        2.556032    3.707625    1.601539
     21          6           0       -2.329205    0.603622    0.228274
     22          6           0       -2.786937    0.904551   -1.199279
     23          6           0       -3.137326    2.377920   -1.409524
     24          1           0       -3.121644    0.897317    0.930220
     25          1           0       -1.455503    1.226611    0.464754
     26          1           0       -3.658672    0.280174   -1.433477
     27          1           0       -1.993394    0.609927   -1.897922
     28          1           0       -2.270161    3.013429   -1.202753
     29          1           0       -3.944901    2.681801   -0.735669
     30          1           0       -3.462010    2.570739   -2.436784
     31          6           0       -1.975373   -0.865238    0.454068
     32          6           0       -1.517642   -1.166167    1.881621
     33          6           0       -1.167252   -2.639536    2.091866
     34          1           0       -2.849075   -1.488227    0.217588
     35          1           0       -1.182934   -1.158932   -0.247878
     36          1           0       -2.311185   -0.871544    2.580263
     37          1           0       -0.645906   -0.541790    2.115819
     38          1           0       -0.359677   -2.943418    1.418011
     39          1           0       -2.034418   -3.275044    1.885095
     40          1           0       -0.842570   -2.832355    3.119125
 ---------------------------------------------------------------------

 SCF Done:  E(RHF) =  -470.732787711     A.U. after   11 cycles
 E2 =    -0.1585963675D+01 EUMP2 =    -0.47231875138677D+03

 The electronic state is 1-A.
 Alpha  occ. eigenvalues --  -11.21680 -11.21677 -11.21674 -11.21654 -11.21469
 Alpha  occ. eigenvalues --  -11.21467 -11.21408 -11.21405 -11.21136 -11.21132
 Alpha  occ. eigenvalues --  -11.21122 -11.21100  -1.08585  -1.08429  -1.03618
 Alpha  occ. eigenvalues --   -1.03573  -0.96060  -0.96023  -0.87062  -0.87052
 Alpha  occ. eigenvalues --   -0.79690  -0.79630  -0.78379  -0.78271  -0.65743
 Alpha  occ. eigenvalues --   -0.64586  -0.61154  -0.60840  -0.59430  -0.59389
 Alpha  occ. eigenvalues --   -0.57671  -0.57632  -0.55447  -0.55235  -0.52735
 Alpha  occ. eigenvalues --   -0.52728  -0.52468  -0.52465  -0.50008  -0.49997
 Alpha  occ. eigenvalues --   -0.48066  -0.47929  -0.46869  -0.46582  -0.46227
 Alpha  occ. eigenvalues --   -0.45818  -0.45670  -0.45342  -0.43853  -0.43839
 Alpha virt. eigenvalues --    0.17988   0.21410   0.22564   0.24526   0.25483
 Alpha virt. eigenvalues --    0.26444   0.27005   0.27962   0.28479   0.29656
 Alpha virt. eigenvalues --    0.30894   0.31381   0.31830   0.31878   0.32301

 Mulliken charges:
               1
     1  C   -0.305647
     2  C   -0.304354
     3  C   -0.478020
     4  H    0.156499
     5  H    0.150033
     6  H    0.155315
     7  H    0.152936
     8  H    0.155654
     9  H    0.156539
    10  H    0.160869
    11  C   -0.300087
    12  C   -0.304339
    13  C   -0.475528
    14  H    0.151327
    15  H    0.150340
    16  H    0.154820
    17  H    0.152454
    18  H    0.155515
    19  H    0.155217
    20  H    0.160540
    21  C   -0.303943
    22  C   -0.301208
    23  C   -0.475791
    24  H    0.150613
    25  H    0.153669
    26  H    0.152362
    27  H    0.152867
    28  H    0.155396
    29  H    0.155277
    30  H    0.160598
    31  C   -0.305519
    32  C   -0.301580
    33  C   -0.479675
    34  H    0.150364
    35  H    0.156085
    36  H    0.152663
    37  H    0.153034
    38  H    0.158298
    39  H    0.155811
    40  H    0.160598
 Sum of Mulliken charges =  -0.00000

 Dipole moment (field-independent basis, Debye):
    X=             -0.0005    Y=             -0.0015    Z=             -0.0064  Tot=              0.0066
 Quadrupole moment (field-independent basis, Debye-Ang):
   XX=            -83.1853   YY=            -86.1144   ZZ=            -85.2306
   XY=              0.4122   XZ=             -1.1189   YZ=             -0.3495

 Normal termination of Gaussian 16 at Wed May  5 18:07:51 2021.
