 Gaussian 16, Revision A.03,
 Gaussian 16:  EM64L-G16RevA.03 25-Dec-2016

 -------------
 #p 6-31g* mp2
 -------------

 ------------------------------------------------------
 Input file generated by CHIRIPA (05-May-2021 14:57:23)
 ------------------------------------------------------
 Symbolic Z-matrix:
 Charge =  0 Multiplicity = 1

                         Standard orientation:
 ---------------------------------------------------------------------
 Center     Atomic      Atomic             Coordinates (Angstroms)
 Number     Number       Type             X           Y           Z
 ---------------------------------------------------------------------
      1          6           0       -3.690586    1.780324    1.039414
      2          6           0       -4.418438    0.585858    1.039343
      3          6           0       -3.928166   -0.544296    0.378334
      4          6           0       -2.701026   -0.444150   -0.275416
      5          6           0       -1.952394    0.731655   -0.293371
      6          6           0       -2.462052    1.849289    0.374229
      7          1           0       -4.078970    2.653392    1.555462
      8          1           0       -5.372822    0.529391    1.555103
      9          1           0       -4.470950   -1.481606    0.362374
     10          1           0       -1.004059    0.757308   -0.816268
     11          1           0       -1.894623    2.775608    0.372617
     12          7           0       -2.171736   -1.633966   -0.978685
     13          8           0       -1.088056   -1.519872   -1.547242
     14          8           0       -2.850580   -2.658108   -0.948035
     15          6           0        2.064487    2.315192   -1.093095
     16          6           0        1.458500    1.986042    0.123853
     17          6           0        1.851537    0.843093    0.826516
     18          6           0        2.858232    0.048210    0.280605
     19          6           0        3.481106    0.349542   -0.929567
     20          6           0        3.072080    1.497334   -1.615000
     21          1           0        1.752956    3.204943   -1.632249
     22          1           0        0.675732    2.619355    0.531568
     23          1           0        1.399268    0.564795    1.770667
     24          1           0        4.258675   -0.301240   -1.310735
     25          1           0        3.544466    1.750495   -2.559885
     26          7           0        3.282786   -1.164342    1.015364
     27          8           0        4.171992   -1.848202    0.513086
     28          8           0        2.718305   -1.407921    2.079632
 ---------------------------------------------------------------------

 SCF Done:  E(RHF) =  -868.336064713     A.U. after   16 cycles
 E2 =    -0.2602111721D+01 EUMP2 =    -0.87093817643435D+03

 The electronic state is 1-A.
 Alpha  occ. eigenvalues --  -20.60897 -20.60888 -20.60658 -20.60644 -15.85957
 Alpha  occ. eigenvalues --  -15.85719 -11.31455 -11.31280 -11.28061 -11.28036
 Alpha  occ. eigenvalues --  -11.27973 -11.27899 -11.27857 -11.27778 -11.27238
 Alpha  occ. eigenvalues --  -11.27108 -11.27080 -11.26908  -1.59966  -1.59718
 Alpha  occ. eigenvalues --   -1.39516  -1.39270  -1.19684  -1.19510  -1.09051
 Alpha  occ. eigenvalues --   -1.08885  -1.05173  -1.04927  -0.95850  -0.95670
 Alpha  occ. eigenvalues --   -0.86512  -0.86372  -0.82735  -0.82484  -0.77766
 Alpha  occ. eigenvalues --   -0.77459  -0.72176  -0.71945  -0.71292  -0.71029
 Alpha  occ. eigenvalues --   -0.70787  -0.70637  -0.65389  -0.65240  -0.65174
 Alpha  occ. eigenvalues --   -0.64939  -0.62623  -0.62142  -0.55636  -0.55483
 Alpha  occ. eigenvalues --   -0.53544  -0.53429  -0.53067  -0.52917  -0.48944
 Alpha  occ. eigenvalues --   -0.48915  -0.48716  -0.48678  -0.44893  -0.44634
 Alpha  occ. eigenvalues --   -0.37677  -0.37514  -0.36942  -0.36324
 Alpha virt. eigenvalues --    0.04721   0.05171   0.10825   0.11024   0.16105
 Alpha virt. eigenvalues --    0.16567   0.19424   0.22053   0.25138   0.28015
 Alpha virt. eigenvalues --    0.28043   0.28809   0.29628   0.31814   0.32246

 Mulliken charges:
               1
     1  C   -0.169691
     2  C   -0.218950
     3  C   -0.168614
     4  C    0.158936
     5  C   -0.175749
     6  C   -0.225603
     7  H    0.225785
     8  H    0.225100
     9  H    0.277770
    10  H    0.282098
    11  H    0.213607
    12  N    0.488435
    13  O   -0.459642
    14  O   -0.458241
    15  C   -0.171779
    16  C   -0.232383
    17  C   -0.167536
    18  C    0.164180
    19  C   -0.165607
    20  C   -0.216124
    21  H    0.224215
    22  H    0.217436
    23  H    0.277061
    24  H    0.278672
    25  H    0.225535
    26  N    0.489045
    27  O   -0.457823
    28  O   -0.460132
 Sum of Mulliken charges =  -0.00000

 Dipole moment (field-independent basis, Debye):
    X=             -3.1831    Y=              8.1177    Z=             -0.1749  Tot=              8.7212
 Quadrupole moment (field-independent basis, Debye-Ang):
   XX=            -97.1703   YY=           -108.2159   ZZ=           -105.6714
   XY=              3.3503   XZ=            -18.5186   YZ=             -1.2502

 Normal termination of Gaussian 16 at Thu May  6 14:36:11 2021.
