 Gaussian 16, Revision A.03,
 Gaussian 16:  EM64L-G16RevA.03 25-Dec-2016

 -------------
 #p 6-31g* mp2
 -------------

 ------------------------------------------------------
 Input file generated by CHIRIPA (05-May-2021 14:57:25)
 ------------------------------------------------------
 Symbolic Z-matrix:
 Charge =  0 Multiplicity = 1

                         Standard orientation:
 ---------------------------------------------------------------------
 Center     Atomic      Atomic             Coordinates (Angstroms)
 Number     Number       Type             X           Y           Z
 ---------------------------------------------------------------------
      1          6           0       -5.561237    1.695877   -1.001393
      2          6           0       -6.088940    0.413003   -0.821719
      3          6           0       -5.296548   -0.614075   -0.300397
      4          6           0       -3.974669   -0.321822    0.032039
      5          6           0       -3.419984    0.946101   -0.135248
      6          6           0       -4.230789    1.957870   -0.658189
      7          1           0       -6.183937    2.487789   -1.406998
      8          1           0       -7.121843    0.206648   -1.087376
      9          1           0       -5.679560   -1.616265   -0.150951
     10          1           0       -2.386750    1.121378    0.138838
     11          1           0       -3.818293    2.953221   -0.796642
     12          7           0       -3.126053   -1.401040    0.584796
     13          8           0       -1.964503   -1.117876    0.869851
     14          8           0       -3.638527   -2.509660    0.722526
     15          6           0        2.210812    1.036409    1.453803
     16          6           0        2.096284   -0.209495    0.828401
     17          6           0        3.144737   -0.713883    0.053233
     18          6           0        4.298577    0.057675   -0.075776
     19          6           0        4.442864    1.302506    0.534852
     20          6           0        3.381673    1.787110    1.305294
     21          1           0        1.391400    1.420546    2.054136
     22          1           0        1.188153   -0.794683    0.941982
     23          1           0        3.082701   -1.675327   -0.441939
     24          1           0        5.360528    1.862835    0.403157
     25          1           0        3.473409    2.755019    1.789835
     26          7           0        5.415269   -0.465827   -0.893910
     27          8           0        6.421338    0.233350   -0.991972
     28          8           0        5.263319   -1.565408   -1.421609
 ---------------------------------------------------------------------

 SCF Done:  E(RHF) =  -868.339640564     A.U. after   16 cycles
 E2 =    -0.2598396671D+01 EUMP2 =    -0.87093803723424D+03

 The electronic state is 1-A.
 Alpha  occ. eigenvalues --  -20.61697 -20.61633 -20.60316 -20.60304 -15.86716
 Alpha  occ. eigenvalues --  -15.85358 -11.31871 -11.30628 -11.28450 -11.28384
 Alpha  occ. eigenvalues --  -11.28099 -11.27390 -11.27353 -11.27207 -11.27080
 Alpha  occ. eigenvalues --  -11.26866 -11.26244 -11.25951  -1.60726  -1.59390
 Alpha  occ. eigenvalues --   -1.40292  -1.38946  -1.20018  -1.18769  -1.09446
 Alpha  occ. eigenvalues --   -1.08184  -1.05394  -1.04133  -0.96320  -0.95042
 Alpha  occ. eigenvalues --   -0.86800  -0.85530  -0.83168  -0.81860  -0.78241
 Alpha  occ. eigenvalues --   -0.76919  -0.72952  -0.72031  -0.71578  -0.71124
 Alpha  occ. eigenvalues --   -0.70712  -0.69887  -0.65679  -0.65392  -0.64408
 Alpha  occ. eigenvalues --   -0.64083  -0.62750  -0.61453  -0.55890  -0.54651
 Alpha  occ. eigenvalues --   -0.53728  -0.53484  -0.52503  -0.52181  -0.49710
 Alpha  occ. eigenvalues --   -0.49656  -0.48341  -0.48325  -0.45741  -0.44372
 Alpha  occ. eigenvalues --   -0.37977  -0.36986  -0.36768  -0.35739
 Alpha virt. eigenvalues --    0.04290   0.05570   0.10672   0.11904   0.15827
 Alpha virt. eigenvalues --    0.17098   0.20681   0.22101   0.26621   0.27257
 Alpha virt. eigenvalues --    0.28353   0.28887   0.30567   0.31640   0.31938

 Mulliken charges:
               1
     1  C   -0.169941
     2  C   -0.218292
     3  C   -0.170184
     4  C    0.158371
     5  C   -0.169984
     6  C   -0.218088
     7  H    0.227963
     8  H    0.225854
     9  H    0.277127
    10  H    0.270507
    11  H    0.224527
    12  N    0.493477
    13  O   -0.474822
    14  O   -0.454822
    15  C   -0.174636
    16  C   -0.227439
    17  C   -0.173213
    18  C    0.158536
    19  C   -0.173061
    20  C   -0.218777
    21  H    0.224113
    22  H    0.248398
    23  H    0.276745
    24  H    0.273052
    25  H    0.219777
    26  N    0.487991
    27  O   -0.462744
    28  O   -0.460437
 Sum of Mulliken charges =  -0.00000

 Dipole moment (field-independent basis, Debye):
    X=             -7.4107    Y=              5.5292    Z=              0.8960  Tot=              9.2895
 Quadrupole moment (field-independent basis, Debye-Ang):
   XX=           -110.9166   YY=           -102.1098   ZZ=           -106.8212
   XY=             -1.6208   XZ=             21.6508   YZ=              1.7538

 Normal termination of Gaussian 16 at Fri May  7 06:34:18 2021.
