 Gaussian 16, Revision A.03,
 Gaussian 16:  EM64L-G16RevA.03 25-Dec-2016

 -------------
 #p 6-31g* mp2
 -------------

 ------------------------------------------------------
 Input file generated by CHIRIPA (05-May-2021 14:55:22)
 ------------------------------------------------------
 Symbolic Z-matrix:
 Charge =  0 Multiplicity = 1

                         Standard orientation:
 ---------------------------------------------------------------------
 Center     Atomic      Atomic             Coordinates (Angstroms)
 Number     Number       Type             X           Y           Z
 ---------------------------------------------------------------------
      1          6           0        0.712739   -2.379244    1.091211
      2          6           0        1.399737   -2.625409   -0.102086
      3          6           0        2.223839   -1.644756   -0.662197
      4          6           0        2.338440   -0.423750    0.000601
      5          6           0        1.666924   -0.148335    1.190770
      6          6           0        0.848286   -1.143671    1.732700
      7          1           0        0.074679   -3.146741    1.519257
      8          1           0        1.296360   -3.584044   -0.602463
      9          1           0        2.767122   -1.808722   -1.584897
     10          1           0        1.789902    0.817050    1.666506
     11          1           0        0.315953   -0.949707    2.659546
     12          7           0        3.207988    0.622195   -0.582739
     13          8           0        3.292127    1.689654    0.020660
     14          8           0        3.788934    0.354743   -1.632314
     15          6           0       -2.615933    1.490245   -0.254413
     16          6           0       -1.431294    1.962839    0.588955
     17          6           0       -1.055437    3.419638    0.316442
     18          1           0       -2.373128    1.614862   -1.318585
     19          1           0       -3.481286    2.136907   -0.053446
     20          1           0       -0.568828    1.314625    0.387490
     21          1           0       -1.676873    1.836904    1.651239
     22          1           0       -1.898725    4.082532    0.535619
     23          1           0       -0.784385    3.557287   -0.735312
     24          1           0       -0.206321    3.736680    0.929912
     25          6           0       -3.003595    0.035859    0.006752
     26          6           0       -4.188234   -0.436734   -0.836617
     27          6           0       -4.564091   -1.893533   -0.564103
     28          1           0       -2.138242   -0.610802   -0.194216
     29          1           0       -3.246400   -0.088758    1.070923
     30          1           0       -3.942655   -0.310799   -1.898900
     31          1           0       -5.050700    0.211480   -0.635151
     32          1           0       -4.835143   -2.031182    0.487650
     33          1           0       -3.720803   -2.556427   -0.783280
     34          1           0       -5.413207   -2.210576   -1.177574
 ---------------------------------------------------------------------

 SCF Done:  E(RHF) =  -669.535009515     A.U. after   15 cycles
 E2 =    -0.2093466414D+01 EUMP2 =    -0.67162847592888D+03

 The electronic state is 1-A.
 Alpha  occ. eigenvalues --  -20.60828 -20.60822 -15.85882 -11.31263 -11.27829
 Alpha  occ. eigenvalues --  -11.27810 -11.27577 -11.26851 -11.26827 -11.21899
 Alpha  occ. eigenvalues --  -11.21662 -11.21651 -11.21510 -11.21494 -11.20955
 Alpha  occ. eigenvalues --   -1.59903  -1.39456  -1.19449  -1.08831  -1.08636
 Alpha  occ. eigenvalues --   -1.04853  -1.03715  -0.96158  -0.95663  -0.87169
 Alpha  occ. eigenvalues --   -0.86238  -0.82492  -0.79801  -0.78479  -0.77526
 Alpha  occ. eigenvalues --   -0.72098  -0.71231  -0.70541  -0.65279  -0.65090
 Alpha  occ. eigenvalues --   -0.64830  -0.62194  -0.61119  -0.59539  -0.57777
 Alpha  occ. eigenvalues --   -0.55447  -0.55331  -0.53267  -0.52924  -0.52803
 Alpha  occ. eigenvalues --   -0.52585  -0.50098  -0.48858  -0.48853  -0.48115
 Alpha  occ. eigenvalues --   -0.46842  -0.46003  -0.45896  -0.44850  -0.43961
 Alpha  occ. eigenvalues --   -0.37413  -0.36337
 Alpha virt. eigenvalues --    0.04977   0.11130   0.16443   0.21034   0.22744
 Alpha virt. eigenvalues --    0.23943   0.26148   0.26657   0.27134   0.28106
 Alpha virt. eigenvalues --    0.28535   0.30674   0.31341   0.31602   0.31761

 Mulliken charges:
               1
     1  C   -0.171209
     2  C   -0.219087
     3  C   -0.171403
     4  C    0.159728
     5  C   -0.175141
     6  C   -0.213855
     7  H    0.226701
     8  H    0.223862
     9  H    0.275834
    10  H    0.277425
    11  H    0.225105
    12  N    0.488313
    13  O   -0.460367
    14  O   -0.460257
    15  C   -0.297220
    16  C   -0.308216
    17  C   -0.475272
    18  H    0.151998
    19  H    0.149688
    20  H    0.159033
    21  H    0.143889
    22  H    0.153765
    23  H    0.159740
    24  H    0.163144
    25  C   -0.300594
    26  C   -0.299530
    27  C   -0.475269
    28  H    0.150965
    29  H    0.144705
    30  H    0.153636
    31  H    0.153118
    32  H    0.153462
    33  H    0.151472
    34  H    0.161837
 Sum of Mulliken charges =  -0.00000

 Dipole moment (field-independent basis, Debye):
    X=             -2.9734    Y=             -3.6652    Z=              2.0148  Tot=              5.1317
 Quadrupole moment (field-independent basis, Debye-Ang):
   XX=           -109.5872   YY=            -91.0033   ZZ=            -91.6393
   XY=             -8.7646   XZ=              3.6221   YZ=              1.9134

 Normal termination of Gaussian 16 at Wed May  5 17:31:18 2021.
