 Gaussian 16, Revision A.03,
 Gaussian 16:  EM64L-G16RevA.03 25-Dec-2016

 -------------
 #p 6-31g* mp2
 -------------

 ------------------------------------------------------
 Input file generated by CHIRIPA (05-May-2021 14:55:22)
 ------------------------------------------------------
 Symbolic Z-matrix:
 Charge =  0 Multiplicity = 1

                         Standard orientation:
 ---------------------------------------------------------------------
 Center     Atomic      Atomic             Coordinates (Angstroms)
 Number     Number       Type             X           Y           Z
 ---------------------------------------------------------------------
      1          6           0        0.793638   -2.078226    1.395759
      2          6           0        1.872926   -2.516066    0.621192
      3          6           0        2.671827   -1.597922   -0.066788
      4          6           0        2.361479   -0.243293    0.042548
      5          6           0        1.292991    0.224043    0.806237
      6          6           0        0.507619   -0.711978    1.485651
      7          1           0        0.178287   -2.798407    1.926871
      8          1           0        2.097400   -3.576502    0.549552
      9          1           0        3.513407   -1.909436   -0.673518
     10          1           0        1.093960    1.287568    0.858380
     11          1           0       -0.329938   -0.369070    2.086447
     12          7           0        3.200078    0.738168   -0.681252
     13          8           0        2.905777    1.926169   -0.568657
     14          8           0        4.135794    0.300852   -1.347456
     15          6           0       -2.763707    1.082307    0.301548
     16          6           0       -1.916708    2.246033   -0.214510
     17          6           0       -1.761619    3.366215    0.814535
     18          1           0       -3.755274    1.458001    0.588939
     19          1           0       -2.304598    0.680828    1.215565
     20          1           0       -2.376527    2.644308   -1.128054
     21          1           0       -0.927106    1.867492   -0.500886
     22          1           0       -1.282093    2.990132    1.724050
     23          1           0       -2.739749    3.771361    1.093319
     24          1           0       -1.152627    4.187873    0.424833
     25          6           0       -2.927858   -0.045380   -0.715854
     26          6           0       -3.774856   -1.209107   -0.199796
     27          6           0       -3.929946   -2.329289   -1.228842
     28          1           0       -3.386967    0.356099   -1.629871
     29          1           0       -1.936290   -0.421075   -1.003245
     30          1           0       -4.764458   -0.830565    0.086580
     31          1           0       -3.315038   -1.607381    0.713748
     32          1           0       -2.951816   -2.734435   -1.507625
     33          1           0       -4.409472   -1.953205   -2.138356
     34          1           0       -4.538938   -3.150947   -0.839140
 ---------------------------------------------------------------------

 SCF Done:  E(RHF) =  -669.534894838     A.U. after   15 cycles
 E2 =    -0.2093927362D+01 EUMP2 =    -0.67162882219970D+03

 The electronic state is 1-A.
 Alpha  occ. eigenvalues --  -20.60823 -20.60818 -15.85876 -11.31264 -11.27833
 Alpha  occ. eigenvalues --  -11.27821 -11.27580 -11.26853 -11.26842 -11.22157
 Alpha  occ. eigenvalues --  -11.22015 -11.21956 -11.21800 -11.21543 -11.21495
 Alpha  occ. eigenvalues --   -1.59897  -1.39450  -1.19445  -1.08951  -1.08823
 Alpha  occ. eigenvalues --   -1.04854  -1.04010  -0.96457  -0.95661  -0.87469
 Alpha  occ. eigenvalues --   -0.86247  -0.82496  -0.80065  -0.78757  -0.77547
 Alpha  occ. eigenvalues --   -0.72094  -0.71221  -0.70556  -0.65689  -0.65084
 Alpha  occ. eigenvalues --   -0.64839  -0.62282  -0.61294  -0.59808  -0.58051
 Alpha  occ. eigenvalues --   -0.55794  -0.55337  -0.53182  -0.53109  -0.53019
 Alpha  occ. eigenvalues --   -0.52784  -0.50412  -0.48857  -0.48847  -0.48372
 Alpha  occ. eigenvalues --   -0.47112  -0.46288  -0.46198  -0.44847  -0.44256
 Alpha  occ. eigenvalues --   -0.37416  -0.36413
 Alpha virt. eigenvalues --    0.04956   0.11080   0.16371   0.19018   0.23082
 Alpha virt. eigenvalues --    0.23351   0.24995   0.26378   0.27182   0.28497
 Alpha virt. eigenvalues --    0.29778   0.30259   0.31289   0.31430   0.31805

 Mulliken charges:
               1
     1  C   -0.172379
     2  C   -0.218483
     3  C   -0.170654
     4  C    0.158003
     5  C   -0.174741
     6  C   -0.219577
     7  H    0.226353
     8  H    0.223908
     9  H    0.275947
    10  H    0.280217
    11  H    0.227375
    12  N    0.488339
    13  O   -0.460514
    14  O   -0.460070
    15  C   -0.298042
    16  C   -0.307086
    17  C   -0.476966
    18  H    0.152291
    19  H    0.137573
    20  H    0.157534
    21  H    0.156036
    22  H    0.146024
    23  H    0.157427
    24  H    0.169195
    25  C   -0.300844
    26  C   -0.297921
    27  C   -0.476221
    28  H    0.152798
    29  H    0.154332
    30  H    0.153507
    31  H    0.143451
    32  H    0.155223
    33  H    0.158008
    34  H    0.159958
 Sum of Mulliken charges =  -0.00000

 Dipole moment (field-independent basis, Debye):
    X=             -2.9628    Y=             -3.3922    Z=              2.4049  Tot=              5.1058
 Quadrupole moment (field-independent basis, Debye-Ang):
   XX=           -106.8322   YY=            -90.6988   ZZ=            -94.9129
   XY=            -10.7199   XZ=              5.3079   YZ=             -0.1618

 Normal termination of Gaussian 16 at Wed May  5 19:03:39 2021.
