 Gaussian 16, Revision A.03,
 Gaussian 16:  EM64L-G16RevA.03 25-Dec-2016

 -------------
 #p 6-31g* mp2
 -------------

 ------------------------------------------------------
 Input file generated by CHIRIPA (05-May-2021 14:53:13)
 ------------------------------------------------------
 Symbolic Z-matrix:
 Charge =  0 Multiplicity = 1

                         Standard orientation:
 ---------------------------------------------------------------------
 Center     Atomic      Atomic             Coordinates (Angstroms)
 Number     Number       Type             X           Y           Z
 ---------------------------------------------------------------------
      1          6           0        3.586211    0.481462   -0.700803
      2          6           0        2.672778    1.631155   -0.274387
      3          6           0        1.961065    2.290260   -1.456267
      4          1           0        4.330862    0.858760   -1.415006
      5          1           0        2.991339   -0.270527   -1.237492
      6          1           0        3.268937    2.380097    0.262545
      7          1           0        1.930334    1.251117    0.439030
      8          1           0        1.342503    1.560744   -1.988985
      9          1           0        2.688711    2.696139   -2.166474
     10          1           0        1.313346    3.109440   -1.128753
     11          6           0        4.304728   -0.187497    0.469648
     12          6           0        5.218162   -1.337190    0.043232
     13          6           0        5.929875   -1.996295    1.225112
     14          1           0        4.899600    0.564492    1.006337
     15          1           0        3.560077   -0.564795    1.183851
     16          1           0        5.960605   -0.957152   -0.670186
     17          1           0        4.622003   -2.086132   -0.493700
     18          1           0        5.202228   -2.402174    1.935318
     19          1           0        6.548436   -1.266779    1.757830
     20          1           0        6.577593   -2.815475    0.897598
     21          6           0       -2.283042    2.132887    0.911708
     22          6           0       -3.377636    1.512910    1.523275
     23          6           0       -3.829197    0.267520    1.076461
     24          6           0       -3.159677   -0.332131    0.010884
     25          6           0       -2.066255    0.260193   -0.619093
     26          6           0       -1.631993    1.505656   -0.155642
     27          1           0       -1.938978    3.100365    1.265267
     28          1           0       -3.885179    1.997688    2.352392
     29          1           0       -4.674079   -0.234836    1.531687
     30          1           0       -1.580644   -0.247691   -1.443504
     31          1           0       -0.781653    1.984791   -0.632503
     32          7           0       -3.628568   -1.650608   -0.470945
     33          8           0       -3.021554   -2.158105   -1.411487
     34          8           0       -4.594219   -2.151569    0.101063
 ---------------------------------------------------------------------

 SCF Done:  E(RHF) =  -669.535330736     A.U. after   15 cycles
 E2 =    -0.2091594274D+01 EUMP2 =    -0.67162692501055D+03

 The electronic state is 1-A.
 Alpha  occ. eigenvalues --  -20.60740 -20.60735 -15.85791 -11.31143 -11.27708
 Alpha  occ. eigenvalues --  -11.27695 -11.27433 -11.26724 -11.26619 -11.22436
 Alpha  occ. eigenvalues --  -11.22242 -11.21958 -11.21875 -11.21770 -11.21270
 Alpha  occ. eigenvalues --   -1.59815  -1.39369  -1.19307  -1.08979  -1.08703
 Alpha  occ. eigenvalues --   -1.04709  -1.04130  -0.96605  -0.95545  -0.87631
 Alpha  occ. eigenvalues --   -0.86098  -0.82375  -0.80202  -0.78727  -0.77428
 Alpha  occ. eigenvalues --   -0.72010  -0.71138  -0.70421  -0.65648  -0.64955
 Alpha  occ. eigenvalues --   -0.64725  -0.62189  -0.61414  -0.59997  -0.58178
 Alpha  occ. eigenvalues --   -0.55907  -0.55187  -0.53396  -0.53040  -0.53035
 Alpha  occ. eigenvalues --   -0.52651  -0.50513  -0.48767  -0.48763  -0.48511
 Alpha  occ. eigenvalues --   -0.47218  -0.46282  -0.46168  -0.44778  -0.44361
 Alpha  occ. eigenvalues --   -0.37288  -0.36303
 Alpha virt. eigenvalues --    0.05099   0.11296   0.16561   0.19938   0.22751
 Alpha virt. eigenvalues --    0.23927   0.25815   0.26554   0.26611   0.27834
 Alpha virt. eigenvalues --    0.29410   0.30442   0.31032   0.31496   0.31867

 Mulliken charges:
               1
     1  C   -0.298974
     2  C   -0.302465
     3  C   -0.483577
     4  H    0.151445
     5  H    0.151647
     6  H    0.154628
     7  H    0.152761
     8  H    0.152701
     9  H    0.164967
    10  H    0.153235
    11  C   -0.299024
    12  C   -0.300442
    13  C   -0.476130
    14  H    0.149627
    15  H    0.151166
    16  H    0.152275
    17  H    0.154207
    18  H    0.156268
    19  H    0.154898
    20  H    0.161844
    21  C   -0.173775
    22  C   -0.218372
    23  C   -0.171453
    24  C    0.158937
    25  C   -0.175260
    26  C   -0.226602
    27  H    0.225457
    28  H    0.223117
    29  H    0.275349
    30  H    0.274876
    31  H    0.239924
    32  N    0.488094
    33  O   -0.460735
    34  O   -0.460615
 Sum of Mulliken charges =  -0.00000

 Dipole moment (field-independent basis, Debye):
    X=              1.8741    Y=              4.6172    Z=              1.6957  Tot=              5.2637
 Quadrupole moment (field-independent basis, Debye-Ang):
   XX=           -102.0963   YY=            -98.4537   ZZ=            -93.2556
   XY=            -14.5317   XZ=             -8.9350   YZ=             -0.1312

 Normal termination of Gaussian 16 at Thu May  6 05:46:28 2021.
