 Gaussian 16, Revision A.03,
 Gaussian 16:  EM64L-G16RevA.03 25-Dec-2016

 -------------
 #p 6-31g* mp2
 -------------

 ------------------------------------------------------
 Input file generated by CHIRIPA (05-May-2021 14:55:21)
 ------------------------------------------------------
 Symbolic Z-matrix:
 Charge =  0 Multiplicity = 1

                         Standard orientation:
 ---------------------------------------------------------------------
 Center     Atomic      Atomic             Coordinates (Angstroms)
 Number     Number       Type             X           Y           Z
 ---------------------------------------------------------------------
      1          6           0       -1.477435    1.530905    0.286209
      2          6           0       -2.439824    1.758839   -0.702919
      3          6           0       -3.527113    0.892193   -0.848780
      4          6           0       -3.621219   -0.197456    0.015569
      5          6           0       -2.678686   -0.451345    1.010788
      6          6           0       -1.599721    0.428484    1.138403
      7          1           0       -0.636036    2.209257    0.392430
      8          1           0       -2.347419    2.614187   -1.366159
      9          1           0       -4.286561    1.045011   -1.605948
     10          1           0       -2.797825   -1.312497    1.657039
     11          1           0       -0.853827    0.248990    1.907472
     12          7           0       -4.767877   -1.121913   -0.129189
     13          8           0       -4.827968   -2.074719    0.644882
     14          8           0       -5.584823   -0.876192   -1.013981
     15          6           0        3.747551    0.416863    0.143196
     16          6           0        3.808074    1.929867   -0.069265
     17          6           0        2.508862    2.634296    0.322682
     18          1           0        2.914106    0.003954   -0.441458
     19          1           0        3.521467    0.210562    1.198526
     20          1           0        4.035345    2.133237   -1.123591
     21          1           0        4.641591    2.339196    0.515813
     22          1           0        2.280127    2.460762    1.379169
     23          1           0        1.670437    2.253633   -0.269549
     24          1           0        2.574135    3.715049    0.162768
     25          6           0        5.038974   -0.301423   -0.244129
     26          6           0        4.978451   -1.814426   -0.031668
     27          6           0        6.277663   -2.518856   -0.423615
     28          1           0        5.265059   -0.095123   -1.299459
     29          1           0        5.872419    0.111486    0.340525
     30          1           0        4.144934   -2.223756   -0.616746
     31          1           0        4.751180   -2.017797    1.022658
     32          1           0        7.116089   -2.138193    0.168616
     33          1           0        6.506398   -2.345322   -1.480103
     34          1           0        6.212390   -3.599610   -0.263701
 ---------------------------------------------------------------------

 SCF Done:  E(RHF) =  -669.535625576     A.U. after   15 cycles
 E2 =    -0.2090920657D+01 EUMP2 =    -0.67162654623384D+03

 The electronic state is 1-A.
 Alpha  occ. eigenvalues --  -20.60722 -20.60717 -15.85775 -11.31129 -11.27697
 Alpha  occ. eigenvalues --  -11.27692 -11.27371 -11.26702 -11.26689 -11.22504
 Alpha  occ. eigenvalues --  -11.22316 -11.22148 -11.22075 -11.21948 -11.21445
 Alpha  occ. eigenvalues --   -1.59798  -1.39351  -1.19296  -1.09131  -1.08687
 Alpha  occ. eigenvalues --   -1.04699  -1.04260  -0.96740  -0.95525  -0.87766
 Alpha  occ. eigenvalues --   -0.86093  -0.82363  -0.80344  -0.78908  -0.77415
 Alpha  occ. eigenvalues --   -0.71992  -0.71121  -0.70404  -0.65754  -0.64944
 Alpha  occ. eigenvalues --   -0.64702  -0.62048  -0.61657  -0.60115  -0.58341
 Alpha  occ. eigenvalues --   -0.56090  -0.55185  -0.53419  -0.53138  -0.53006
 Alpha  occ. eigenvalues --   -0.52787  -0.50675  -0.48759  -0.48749  -0.48630
 Alpha  occ. eigenvalues --   -0.47351  -0.46458  -0.46351  -0.44760  -0.44493
 Alpha  occ. eigenvalues --   -0.37263  -0.36309
 Alpha virt. eigenvalues --    0.05098   0.11345   0.16517   0.20581   0.22322
 Alpha virt. eigenvalues --    0.23801   0.25749   0.25988   0.26935   0.27424
 Alpha virt. eigenvalues --    0.29206   0.30250   0.30936   0.31065   0.31976

 Mulliken charges:
               1
     1  C   -0.176575
     2  C   -0.220258
     3  C   -0.170874
     4  C    0.158357
     5  C   -0.171012
     6  C   -0.220338
     7  H    0.235623
     8  H    0.223317
     9  H    0.275276
    10  H    0.275315
    11  H    0.223628
    12  N    0.488061
    13  O   -0.460615
    14  O   -0.460640
    15  C   -0.299487
    16  C   -0.299277
    17  C   -0.482521
    18  H    0.150599
    19  H    0.147775
    20  H    0.155103
    21  H    0.155457
    22  H    0.153149
    23  H    0.150606
    24  H    0.164063
    25  C   -0.298787
    26  C   -0.300290
    27  C   -0.476125
    28  H    0.151057
    29  H    0.150813
    30  H    0.153117
    31  H    0.151738
    32  H    0.155662
    33  H    0.156062
    34  H    0.162022
 Sum of Mulliken charges =  -0.00000

 Dipole moment (field-independent basis, Debye):
    X=              4.2707    Y=              3.2433    Z=              0.4812  Tot=              5.3842
 Quadrupole moment (field-independent basis, Debye-Ang):
   XX=           -123.9980   YY=            -95.3538   ZZ=            -91.3771
   XY=            -13.1539   XZ=              0.1759   YZ=             -2.5613

 Normal termination of Gaussian 16 at Thu May  6 15:48:37 2021.
