 Gaussian 16, Revision A.03,
 Gaussian 16:  EM64L-G16RevA.03 25-Dec-2016

 -------------
 #p 6-31g* mp2
 -------------

 ------------------------------------------------------
 Input file generated by CHIRIPA (05-May-2021 14:51:09)
 ------------------------------------------------------
 Symbolic Z-matrix:
 Charge =  0 Multiplicity = 1

                         Standard orientation:
 ---------------------------------------------------------------------
 Center     Atomic      Atomic             Coordinates (Angstroms)
 Number     Number       Type             X           Y           Z
 ---------------------------------------------------------------------
      1          6           0        2.623944   -0.773864   -0.145251
      2          6           0        2.300204   -1.723403    1.008678
      3          6           0        1.983929   -3.142516    0.535516
      4          1           0        1.773927   -0.749096   -0.840810
      5          1           0        3.478353   -1.172075   -0.709881
      6          1           0        1.447535   -1.322811    1.571792
      7          1           0        3.151014   -1.745767    1.701671
      8          1           0        2.834635   -3.565875   -0.008237
      9          1           0        1.121478   -3.140516   -0.138854
     10          1           0        1.755427   -3.804559    1.376556
     11          6           0        2.942281    0.648620    0.311837
     12          6           0        3.266021    1.598159   -0.842092
     13          6           0        3.582297    3.017272   -0.368930
     14          1           0        2.087872    1.046831    0.876468
     15          1           0        3.792298    0.623852    1.007397
     16          1           0        2.415212    1.620522   -1.535085
     17          1           0        4.118691    1.197567   -1.405206
     18          1           0        4.444748    3.015272    0.305440
     19          1           0        2.731590    3.440631    0.174823
     20          1           0        3.810798    3.679314   -1.209969
     21          6           0       -3.269148    0.628119    0.082283
     22          6           0       -2.587865    1.988745    0.232397
     23          6           0       -3.573274    3.109937    0.563597
     24          1           0       -4.032190    0.692167   -0.705505
     25          1           0       -3.800617    0.387258    1.013368
     26          1           0       -2.056692    2.226339   -0.698206
     27          1           0       -1.826223    1.921398    1.019787
     28          1           0       -4.094897    2.899384    1.502840
     29          1           0       -4.326675    3.206055   -0.224914
     30          1           0       -3.064998    4.073747    0.666486
     31          6           0       -2.297078   -0.502874   -0.248869
     32          6           0       -2.978360   -1.863501   -0.398983
     33          6           0       -1.992952   -2.984692   -0.730184
     34          1           0       -1.765608   -0.262015   -1.179955
     35          1           0       -1.534035   -0.566923    0.538918
     36          1           0       -3.740002   -1.796155   -1.186373
     37          1           0       -3.509534   -2.101094    0.531619
     38          1           0       -1.239551   -3.080812    0.058327
     39          1           0       -1.471328   -2.774140   -1.669426
     40          1           0       -2.501227   -3.948503   -0.833073
 ---------------------------------------------------------------------

 SCF Done:  E(RHF) =  -470.733250886     A.U. after   11 cycles
 E2 =    -0.1583243841D+01 EUMP2 =    -0.47231649472720D+03

 The electronic state is 1-A.
 Alpha  occ. eigenvalues --  -11.21669 -11.21660 -11.21574 -11.21573 -11.21484
 Alpha  occ. eigenvalues --  -11.21421 -11.21364 -11.21304 -11.21119 -11.21102
 Alpha  occ. eigenvalues --  -11.21048 -11.20970  -1.08501  -1.08389  -1.03597
 Alpha  occ. eigenvalues --   -1.03486  -0.96058  -0.95923  -0.87090  -0.86925
 Alpha  occ. eigenvalues --   -0.79683  -0.79532  -0.78319  -0.78201  -0.65157
 Alpha  occ. eigenvalues --   -0.64997  -0.61073  -0.60828  -0.59403  -0.59306
 Alpha  occ. eigenvalues --   -0.57709  -0.57516  -0.55450  -0.55124  -0.52732
 Alpha  occ. eigenvalues --   -0.52643  -0.52557  -0.52271  -0.50110  -0.49734
 Alpha  occ. eigenvalues --   -0.48073  -0.47771  -0.46704  -0.46535  -0.45947
 Alpha  occ. eigenvalues --   -0.45814  -0.45644  -0.45593  -0.43847  -0.43747
 Alpha virt. eigenvalues --    0.20292   0.23150   0.23617   0.24861   0.25742
 Alpha virt. eigenvalues --    0.25975   0.26691   0.28037   0.28946   0.29407
 Alpha virt. eigenvalues --    0.30739   0.31143   0.31527   0.31879   0.32040

 Mulliken charges:
               1
     1  C   -0.298836
     2  C   -0.300158
     3  C   -0.482248
     4  H    0.150986
     5  H    0.149300
     6  H    0.151241
     7  H    0.151832
     8  H    0.154961
     9  H    0.163004
    10  H    0.159095
    11  C   -0.298227
    12  C   -0.299520
    13  C   -0.475741
    14  H    0.149535
    15  H    0.149392
    16  H    0.151935
    17  H    0.151769
    18  H    0.155062
    19  H    0.155326
    20  H    0.160077
    21  C   -0.298294
    22  C   -0.299695
    23  C   -0.475745
    24  H    0.150060
    25  H    0.149859
    26  H    0.151846
    27  H    0.151468
    28  H    0.155375
    29  H    0.155389
    30  H    0.160451
    31  C   -0.299924
    32  C   -0.299582
    33  C   -0.481314
    34  H    0.149297
    35  H    0.150244
    36  H    0.152209
    37  H    0.152216
    38  H    0.161638
    39  H    0.154745
    40  H    0.160972
 Sum of Mulliken charges =  -0.00000

 Dipole moment (field-independent basis, Debye):
    X=             -0.0466    Y=             -0.0101    Z=             -0.0140  Tot=              0.0497
 Quadrupole moment (field-independent basis, Debye-Ang):
   XX=            -84.1813   YY=            -86.6431   ZZ=            -83.8958
   XY=              0.0427   XZ=              0.2669   YZ=             -0.5816

 Normal termination of Gaussian 16 at Thu May  6 05:20:23 2021.
