 Gaussian 16, Revision A.03,
 Gaussian 16:  EM64L-G16RevA.03 25-Dec-2016

 -------------
 #p 6-31g* mp2
 -------------

 ------------------------------------------------------
 Input file generated by CHIRIPA (05-May-2021 14:55:19)
 ------------------------------------------------------
 Symbolic Z-matrix:
 Charge =  0 Multiplicity = 1

                         Standard orientation:
 ---------------------------------------------------------------------
 Center     Atomic      Atomic             Coordinates (Angstroms)
 Number     Number       Type             X           Y           Z
 ---------------------------------------------------------------------
      1          6           0       -0.805166   -0.800311    1.355973
      2          6           0       -1.873807   -0.258176    2.077512
      3          6           0       -3.025447    0.181445    1.417962
      4          6           0       -3.074859    0.063464    0.029823
      5          6           0       -2.026748   -0.472201   -0.717048
      6          6           0       -0.884907   -0.905408   -0.036549
      7          1           0        0.085649   -1.139328    1.876464
      8          1           0       -1.814657   -0.175329    3.159030
      9          1           0       -3.867401    0.605100    1.951861
     10          1           0       -2.114983   -0.541854   -1.794443
     11          1           0       -0.056523   -1.326023   -0.599493
     12          7           0       -4.288862    0.525477   -0.679502
     13          8           0       -4.307682    0.410617   -1.903058
     14          8           0       -5.198590    0.993714    0.001517
     15          6           0        3.773714    0.700897   -0.513127
     16          6           0        4.198225    1.788323    0.474435
     17          6           0        4.382260    3.152370   -0.191373
     18          1           0        4.526759    0.623286   -1.309271
     19          1           0        2.835328    1.002480   -0.998796
     20          1           0        5.134804    1.484142    0.959108
     21          1           0        3.444176    1.863221    1.268424
     22          1           0        3.449039    3.481467   -0.659770
     23          1           0        5.149273    3.100234   -0.970844
     24          1           0        4.685718    3.914886    0.532740
     25          6           0        3.585715   -0.668434    0.137503
     26          6           0        3.161205   -1.755861   -0.850060
     27          6           0        2.977169   -3.119907   -0.184251
     28          1           0        4.524102   -0.970017    0.623171
     29          1           0        2.832670   -0.590824    0.933646
     30          1           0        3.915253   -1.830759   -1.644048
     31          1           0        2.224625   -1.451679   -1.334732
     32          1           0        2.210156   -3.067772    0.595220
     33          1           0        3.910390   -3.449004    0.284146
     34          1           0        2.673712   -3.882424   -0.908365
 ---------------------------------------------------------------------

 SCF Done:  E(RHF) =  -669.535425880     A.U. after   15 cycles
 E2 =    -0.2091974043D+01 EUMP2 =    -0.67162739992228D+03

 The electronic state is 1-A.
 Alpha  occ. eigenvalues --  -20.60765 -20.60759 -15.85818 -11.31190 -11.27757
 Alpha  occ. eigenvalues --  -11.27749 -11.27503 -11.26776 -11.26742 -11.22764
 Alpha  occ. eigenvalues --  -11.22428 -11.22242 -11.22218 -11.22140 -11.21548
 Alpha  occ. eigenvalues --   -1.59840  -1.39393  -1.19361  -1.09346  -1.08754
 Alpha  occ. eigenvalues --   -1.04766  -1.04401  -0.96833  -0.95590  -0.87846
 Alpha  occ. eigenvalues --   -0.86164  -0.82424  -0.80486  -0.79119  -0.77469
 Alpha  occ. eigenvalues --   -0.72036  -0.71163  -0.70480  -0.66081  -0.65010
 Alpha  occ. eigenvalues --   -0.64729  -0.62229  -0.61659  -0.60219  -0.58432
 Alpha  occ. eigenvalues --   -0.56136  -0.55274  -0.53515  -0.53249  -0.53090
 Alpha  occ. eigenvalues --   -0.52857  -0.50783  -0.48825  -0.48791  -0.48751
 Alpha  occ. eigenvalues --   -0.47539  -0.46656  -0.46562  -0.44797  -0.44646
 Alpha  occ. eigenvalues --   -0.37342  -0.36364
 Alpha virt. eigenvalues --    0.05057   0.11236   0.16521   0.17777   0.22895
 Alpha virt. eigenvalues --    0.23852   0.24174   0.25451   0.27177   0.28221
 Alpha virt. eigenvalues --    0.29179   0.29789   0.30873   0.31608   0.31725

 Mulliken charges:
               1
     1  C   -0.175705
     2  C   -0.218540
     3  C   -0.171030
     4  C    0.158936
     5  C   -0.172729
     6  C   -0.225512
     7  H    0.227623
     8  H    0.223552
     9  H    0.275600
    10  H    0.275972
    11  H    0.234168
    12  N    0.488013
    13  O   -0.460359
    14  O   -0.460449
    15  C   -0.298941
    16  C   -0.299987
    17  C   -0.476441
    18  H    0.152590
    19  H    0.150551
    20  H    0.152850
    21  H    0.150966
    22  H    0.157197
    23  H    0.156433
    24  H    0.162064
    25  C   -0.298712
    26  C   -0.305254
    27  C   -0.476958
    28  H    0.153791
    29  H    0.142095
    30  H    0.159367
    31  H    0.145736
    32  H    0.147521
    33  H    0.160948
    34  H    0.164645
 Sum of Mulliken charges =  -0.00000

 Dipole moment (field-independent basis, Debye):
    X=              4.4997    Y=             -1.5955    Z=              2.4500  Tot=              5.3662
 Quadrupole moment (field-independent basis, Debye-Ang):
   XX=           -118.9032   YY=            -96.0846   ZZ=            -90.9965
   XY=              4.1822   XZ=             -9.9924   YZ=              1.9203

 Normal termination of Gaussian 16 at Thu May  6 04:30:31 2021.
