 Gaussian 16, Revision A.03,
 Gaussian 16:  EM64L-G16RevA.03 25-Dec-2016

 -------------
 #p 6-31g* mp2
 -------------

 ------------------------------------------------------
 Input file generated by CHIRIPA (05-May-2021 14:51:13)
 ------------------------------------------------------
 Symbolic Z-matrix:
 Charge =  0 Multiplicity = 1

                         Standard orientation:
 ---------------------------------------------------------------------
 Center     Atomic      Atomic             Coordinates (Angstroms)
 Number     Number       Type             X           Y           Z
 ---------------------------------------------------------------------
      1          6           0        1.921749   -0.655665    0.790938
      2          6           0        1.562877   -2.115812    1.068730
      3          6           0        0.549636   -2.269964    2.203356
      4          1           0        2.323814   -0.202768    1.707547
      5          1           0        1.006001   -0.100899    0.543884
      6          1           0        2.479213   -2.667960    1.313835
      7          1           0        1.161797   -2.565339    0.151301
      8          1           0       -0.380159   -1.744027    1.963619
      9          1           0        0.944742   -1.847231    3.132758
     10          1           0        0.307340   -3.321688    2.385093
     11          6           0        2.933664   -0.485276   -0.340752
     12          6           0        3.292537    0.974870   -0.618544
     13          6           0        4.305777    1.129022   -1.753169
     14          1           0        3.849412   -1.040042   -0.093697
     15          1           0        2.531599   -0.938174   -1.257361
     16          1           0        3.693616    1.424398    0.298885
     17          1           0        2.376200    1.527018   -0.863649
     18          1           0        3.910671    0.706289   -2.682572
     19          1           0        5.235572    0.603086   -1.513432
     20          1           0        4.548073    2.180747   -1.934907
     21          6           0       -2.973619    0.103042   -0.483787
     22          6           0       -2.426593   -1.180431   -1.109444
     23          6           0       -3.530832   -2.105319   -1.622309
     24          1           0       -3.648384   -0.158248    0.342871
     25          1           0       -3.582423    0.634905   -1.228013
     26          1           0       -1.817866   -1.709020   -0.364689
     27          1           0       -1.752901   -0.916050   -1.934586
     28          1           0       -4.133259   -1.600364   -2.384348
     29          1           0       -4.198594   -2.397840   -0.805530
     30          1           0       -3.117522   -3.016680   -2.065543
     31          6           0       -1.881795    1.037900    0.033600
     32          6           0       -2.428820    2.321372    0.659257
     33          6           0       -1.324581    3.246261    1.172123
     34          1           0       -1.272990    0.506036    0.777827
     35          1           0       -1.207030    1.299190   -0.793058
     36          1           0       -3.102512    2.056992    1.484400
     37          1           0       -3.037547    2.849962   -0.085498
     38          1           0       -0.656819    3.538781    0.355344
     39          1           0       -0.722154    2.741306    1.934162
     40          1           0       -1.737891    4.157621    1.615356
 ---------------------------------------------------------------------

 SCF Done:  E(RHF) =  -470.732906857     A.U. after   11 cycles
 E2 =    -0.1584540101D+01 EUMP2 =    -0.47231744695876D+03

 The electronic state is 1-A.
 Alpha  occ. eigenvalues --  -11.21675 -11.21652 -11.21573 -11.21561 -11.21479
 Alpha  occ. eigenvalues --  -11.21419 -11.21332 -11.21243 -11.21122 -11.21109
 Alpha  occ. eigenvalues --  -11.21095 -11.21046  -1.08521  -1.08369  -1.03586
 Alpha  occ. eigenvalues --   -1.03509  -0.96037  -0.95957  -0.87055  -0.86973
 Alpha  occ. eigenvalues --   -0.79661  -0.79568  -0.78468  -0.78068  -0.65257
 Alpha  occ. eigenvalues --   -0.64916  -0.61017  -0.60877  -0.59405  -0.59327
 Alpha  occ. eigenvalues --   -0.57655  -0.57565  -0.55323  -0.55255  -0.52725
 Alpha  occ. eigenvalues --   -0.52660  -0.52495  -0.52361  -0.50001  -0.49890
 Alpha  occ. eigenvalues --   -0.47985  -0.47932  -0.46780  -0.46641  -0.46294
 Alpha  occ. eigenvalues --   -0.45789  -0.45699  -0.44979  -0.43843  -0.43745
 Alpha virt. eigenvalues --    0.19927   0.22639   0.23465   0.24099   0.25790
 Alpha virt. eigenvalues --    0.26343   0.27272   0.27713   0.28325   0.30064
 Alpha virt. eigenvalues --    0.30314   0.31286   0.31703   0.31814   0.32209

 Mulliken charges:
               1
     1  C   -0.307593
     2  C   -0.299842
     3  C   -0.481065
     4  H    0.148466
     5  H    0.160331
     6  H    0.151902
     7  H    0.152714
     8  H    0.158055
     9  H    0.155333
    10  H    0.160504
    11  C   -0.297609
    12  C   -0.299875
    13  C   -0.475687
    14  H    0.149095
    15  H    0.149412
    16  H    0.152006
    17  H    0.151937
    18  H    0.154919
    19  H    0.155178
    20  H    0.160068
    21  C   -0.297272
    22  C   -0.305212
    23  C   -0.475470
    24  H    0.149785
    25  H    0.149944
    26  H    0.156644
    27  H    0.151556
    28  H    0.155413
    29  H    0.155536
    30  H    0.160432
    31  C   -0.307984
    32  C   -0.298841
    33  C   -0.476450
    34  H    0.158150
    35  H    0.149385
    36  H    0.152148
    37  H    0.152084
    38  H    0.155132
    39  H    0.156217
    40  H    0.160555
 Sum of Mulliken charges =  -0.00000

 Dipole moment (field-independent basis, Debye):
    X=             -0.0464    Y=              0.0180    Z=              0.0040  Tot=              0.0499
 Quadrupole moment (field-independent basis, Debye-Ang):
   XX=            -85.2198   YY=            -85.2474   ZZ=            -84.3198
   XY=             -0.7374   XZ=              0.7744   YZ=             -0.5132

 Normal termination of Gaussian 16 at Thu May  6 05:32:42 2021.
