 Gaussian 16, Revision A.03,
 Gaussian 16:  EM64L-G16RevA.03 25-Dec-2016

 -------------
 #p 6-31g* mp2
 -------------

 ------------------------------------------------------
 Input file generated by CHIRIPA (05-May-2021 14:53:11)
 ------------------------------------------------------
 Symbolic Z-matrix:
 Charge =  0 Multiplicity = 1

                         Standard orientation:
 ---------------------------------------------------------------------
 Center     Atomic      Atomic             Coordinates (Angstroms)
 Number     Number       Type             X           Y           Z
 ---------------------------------------------------------------------
      1          6           0       -3.410877    0.794735   -0.212498
      2          6           0       -4.404248    1.851463    0.271780
      3          6           0       -3.838298    3.270201    0.203382
      4          1           0       -2.496187    0.855737    0.392949
      5          1           0       -3.117315    1.023946   -1.246267
      6          1           0       -4.696908    1.619546    1.303856
      7          1           0       -5.316754    1.787811   -0.334765
      8          1           0       -3.563227    3.526068   -0.824951
      9          1           0       -2.939859    3.356847    0.822980
     10          1           0       -4.564948    4.009644    0.554185
     11          6           0       -3.962124   -0.628629   -0.150136
     12          6           0       -2.968754   -1.685358   -0.634414
     13          6           0       -3.534704   -3.104095   -0.566016
     14          1           0       -4.255687   -0.857841    0.883633
     15          1           0       -4.876815   -0.689631   -0.755583
     16          1           0       -2.056248   -1.621706   -0.027869
     17          1           0       -2.676094   -1.453441   -1.666489
     18          1           0       -4.433142   -3.190741   -1.185613
     19          1           0       -3.809774   -3.359962    0.462318
     20          1           0       -2.808053   -3.843539   -0.916819
     21          6           0        0.867145   -1.364661    0.931972
     22          6           0        2.081154   -2.022268    0.707789
     23          6           0        3.202986   -1.312170    0.269836
     24          6           0        3.074682    0.060773    0.065249
     25          6           0        1.878909    0.744438    0.279771
     26          6           0        0.770069    0.014162    0.717625
     27          1           0        0.000724   -1.924120    1.272146
     28          1           0        2.159466   -3.093004    0.873422
     29          1           0        4.154985   -1.796140    0.088483
     30          1           0        1.831625    1.812594    0.105914
     31          1           0       -0.171473    0.527501    0.890911
     32          7           0        4.255439    0.823202   -0.398340
     33          8           0        4.116415    2.032098   -0.571200
     34          8           0        5.297582    0.197461   -0.580062
 ---------------------------------------------------------------------

 SCF Done:  E(RHF) =  -669.534830595     A.U. after   15 cycles
 E2 =    -0.2092569467D+01 EUMP2 =    -0.67162740006224D+03

 The electronic state is 1-A.
 Alpha  occ. eigenvalues --  -20.60735 -20.60729 -15.85788 -11.31152 -11.27720
 Alpha  occ. eigenvalues --  -11.27709 -11.27449 -11.26735 -11.26705 -11.22601
 Alpha  occ. eigenvalues --  -11.22420 -11.22352 -11.22291 -11.21956 -11.21742
 Alpha  occ. eigenvalues --   -1.59810  -1.39364  -1.19323  -1.09362  -1.08719
 Alpha  occ. eigenvalues --   -1.04724  -1.04392  -0.96832  -0.95558  -0.87844
 Alpha  occ. eigenvalues --   -0.86129  -0.82391  -0.80457  -0.79199  -0.77430
 Alpha  occ. eigenvalues --   -0.72006  -0.71133  -0.70460  -0.66054  -0.64974
 Alpha  occ. eigenvalues --   -0.64696  -0.62079  -0.61799  -0.60203  -0.58448
 Alpha  occ. eigenvalues --   -0.56147  -0.55226  -0.53501  -0.53274  -0.53053
 Alpha  occ. eigenvalues --   -0.52808  -0.50766  -0.48797  -0.48762  -0.48726
 Alpha  occ. eigenvalues --   -0.47494  -0.46709  -0.46619  -0.44769  -0.44661
 Alpha  occ. eigenvalues --   -0.37282  -0.36320
 Alpha virt. eigenvalues --    0.05077   0.11265   0.16508   0.19016   0.22794
 Alpha virt. eigenvalues --    0.22904   0.24901   0.26263   0.26762   0.27671
 Alpha virt. eigenvalues --    0.29267   0.30707   0.30929   0.31235   0.31820

 Mulliken charges:
               1
     1  C   -0.302720
     2  C   -0.299913
     3  C   -0.475988
     4  H    0.141473
     5  H    0.154242
     6  H    0.152738
     7  H    0.155457
     8  H    0.157707
     9  H    0.151976
    10  H    0.163920
    11  C   -0.298850
    12  C   -0.302909
    13  C   -0.476860
    14  H    0.149475
    15  H    0.154360
    16  H    0.142945
    17  H    0.157602
    18  H    0.159737
    19  H    0.154502
    20  H    0.160865
    21  C   -0.173637
    22  C   -0.219233
    23  C   -0.171167
    24  C    0.158845
    25  C   -0.173287
    26  C   -0.222706
    27  H    0.226942
    28  H    0.223367
    29  H    0.275437
    30  H    0.276091
    31  H    0.232582
    32  N    0.488020
    33  O   -0.460403
    34  O   -0.460609
 Sum of Mulliken charges =  -0.00000

 Dipole moment (field-independent basis, Debye):
    X=             -4.3806    Y=             -2.6599    Z=              1.5260  Tot=              5.3473
 Quadrupole moment (field-independent basis, Debye-Ang):
   XX=           -118.3416   YY=            -92.5924   ZZ=            -94.4229
   XY=            -11.6617   XZ=              5.4444   YZ=             -0.1309

 Normal termination of Gaussian 16 at Wed May  5 20:04:43 2021.
