 Gaussian 16, Revision A.03,
 Gaussian 16:  EM64L-G16RevA.03 25-Dec-2016

 -------------
 #p 6-31g* mp2
 -------------

 ------------------------------------------------------
 Input file generated by CHIRIPA (05-May-2021 14:51:08)
 ------------------------------------------------------
 Symbolic Z-matrix:
 Charge =  0 Multiplicity = 1

                         Standard orientation:
 ---------------------------------------------------------------------
 Center     Atomic      Atomic             Coordinates (Angstroms)
 Number     Number       Type             X           Y           Z
 ---------------------------------------------------------------------
      1          6           0        3.909677    0.724329   -0.421224
      2          6           0        2.875738    1.481082    0.413211
      3          6           0        2.327060    2.715537   -0.302937
      4          1           0        4.736831    1.402580   -0.671695
      5          1           0        3.452545    0.423636   -1.374119
      6          1           0        3.334272    1.779055    1.364828
      7          1           0        2.051041    0.800898    0.661886
      8          1           0        1.844671    2.432311   -1.244045
      9          1           0        3.135193    3.416026   -0.537110
     10          1           0        1.589626    3.241446    0.311449
     11          6           0        4.467457   -0.512248    0.281262
     12          6           0        5.501395   -1.269002   -0.553173
     13          6           0        6.050074   -2.503457    0.162975
     14          1           0        4.924589   -0.211555    1.234157
     15          1           0        3.640302   -1.190500    0.531733
     16          1           0        6.326093   -0.588817   -0.801848
     17          1           0        5.042861   -1.566975   -1.504790
     18          1           0        5.241941   -3.203946    0.397148
     19          1           0        6.532463   -2.220231    1.104083
     20          1           0        6.787508   -3.029366   -0.451411
     21          6           0       -4.751879   -0.592630    0.241273
     22          6           0       -6.040953   -0.326000   -0.536664
     23          6           0       -7.158593   -1.307650   -0.183054
     24          1           0       -4.416524   -1.619616    0.041819
     25          1           0       -4.963405   -0.536464    1.318072
     26          1           0       -5.826765   -0.381288   -1.611690
     27          1           0       -6.373174    0.700533   -0.335484
     28          1           0       -7.400953   -1.247765    0.882909
     29          1           0       -6.851439   -2.335732   -0.400548
     30          1           0       -8.070798   -1.098833   -0.750626
     31          6           0       -3.625254    0.380550   -0.101311
     32          6           0       -2.336181    0.113921    0.676625
     33          6           0       -1.218540    1.095569    0.323016
     34          1           0       -3.413728    0.324383   -1.178110
     35          1           0       -3.960610    1.407535    0.098143
     36          1           0       -2.003959   -0.912614    0.475446
     37          1           0       -2.550368    0.169207    1.751652
     38          1           0       -1.525694    2.123652    0.540511
     39          1           0       -0.976181    1.035685   -0.742947
     40          1           0       -0.306336    0.886752    0.890588
 ---------------------------------------------------------------------

 SCF Done:  E(RHF) =  -470.733062513     A.U. after   11 cycles
 E2 =    -0.1582749874D+01 EUMP2 =    -0.47231581238695D+03

 The electronic state is 1-A.
 Alpha  occ. eigenvalues --  -11.21608 -11.21607 -11.21586 -11.21528 -11.21412
 Alpha  occ. eigenvalues --  -11.21375 -11.21353 -11.21313 -11.21077 -11.21061
 Alpha  occ. eigenvalues --  -11.21054 -11.20973  -1.08440  -1.08392  -1.03557
 Alpha  occ. eigenvalues --   -1.03468  -0.96024  -0.95897  -0.87022  -0.86932
 Alpha  occ. eigenvalues --   -0.79610  -0.79547  -0.78252  -0.78211  -0.65077
 Alpha  occ. eigenvalues --   -0.65027  -0.60990  -0.60880  -0.59480  -0.59177
 Alpha  occ. eigenvalues --   -0.57662  -0.57476  -0.55317  -0.55185  -0.52738
 Alpha  occ. eigenvalues --   -0.52555  -0.52415  -0.52347  -0.49937  -0.49864
 Alpha  occ. eigenvalues --   -0.47981  -0.47822  -0.46632  -0.46571  -0.45794
 Alpha  occ. eigenvalues --   -0.45753  -0.45714  -0.45673  -0.43755  -0.43727
 Alpha virt. eigenvalues --    0.21713   0.23028   0.23521   0.24877   0.26389
 Alpha virt. eigenvalues --    0.26515   0.26986   0.27290   0.27791   0.29117
 Alpha virt. eigenvalues --    0.30086   0.30511   0.31559   0.32103   0.32443

 Mulliken charges:
               1
     1  C   -0.297672
     2  C   -0.305095
     3  C   -0.474966
     4  H    0.149512
     5  H    0.149335
     6  H    0.151378
     7  H    0.156197
     8  H    0.155586
     9  H    0.154156
    10  H    0.161609
    11  C   -0.298332
    12  C   -0.299600
    13  C   -0.475689
    14  H    0.149457
    15  H    0.149415
    16  H    0.151950
    17  H    0.151838
    18  H    0.155095
    19  H    0.155164
    20  H    0.160187
    21  C   -0.298210
    22  C   -0.299626
    23  C   -0.475701
    24  H    0.149559
    25  H    0.149548
    26  H    0.151908
    27  H    0.151982
    28  H    0.155198
    29  H    0.155153
    30  H    0.160277
    31  C   -0.298553
    32  C   -0.300046
    33  C   -0.480046
    34  H    0.149423
    35  H    0.149745
    36  H    0.151488
    37  H    0.151896
    38  H    0.155245
    39  H    0.155103
    40  H    0.166131
 Sum of Mulliken charges =  -0.00000

 Dipole moment (field-independent basis, Debye):
    X=             -0.0170    Y=              0.0126    Z=              0.0024  Tot=              0.0213
 Quadrupole moment (field-independent basis, Debye-Ang):
   XX=            -85.3305   YY=            -85.3185   ZZ=            -84.2464
   XY=              0.0850   XZ=              0.0072   YZ=              1.1784

 Normal termination of Gaussian 16 at Wed May  5 16:34:53 2021.
