 Gaussian 16, Revision A.03,
 Gaussian 16:  EM64L-G16RevA.03 25-Dec-2016

 -------------
 #p 6-31g* mp2
 -------------

 ------------------------------------------------------
 Input file generated by CHIRIPA (05-May-2021 14:57:26)
 ------------------------------------------------------
 Symbolic Z-matrix:
 Charge =  0 Multiplicity = 1

                         Standard orientation:
 ---------------------------------------------------------------------
 Center     Atomic      Atomic             Coordinates (Angstroms)
 Number     Number       Type             X           Y           Z
 ---------------------------------------------------------------------
      1          6           0       -0.984223   -0.108398    2.127491
      2          6           0       -2.023352    0.826665    2.176355
      3          6           0       -3.029232    0.821678    1.205413
      4          6           0       -2.964563   -0.136749    0.195202
      5          6           0       -1.942287   -1.081466    0.119361
      6          6           0       -0.947072   -1.057806    1.100960
      7          1           0       -0.206973   -0.097271    2.885881
      8          1           0       -2.054762    1.565145    2.972412
      9          1           0       -3.845193    1.534022    1.219280
     10          1           0       -1.937929   -1.805429   -0.686416
     11          1           0       -0.141276   -1.785199    1.060499
     12          7           0       -4.023798   -0.151913   -0.838332
     13          8           0       -3.944069   -1.006580   -1.718004
     14          8           0       -4.913698    0.691156   -0.749172
     15          6           0        2.334130    2.584118   -0.760837
     16          6           0        1.590824    1.614904   -1.442482
     17          6           0        1.834790    0.254599   -1.231295
     18          6           0        2.834058   -0.102595   -0.327325
     19          6           0        3.591585    0.839388    0.367018
     20          6           0        3.330382    2.193955    0.140150
     21          1           0        2.137916    3.638607   -0.930982
     22          1           0        0.816504    1.914993   -2.142781
     23          1           0        1.274304   -0.516619   -1.745588
     24          1           0        4.356956    0.509511    1.058977
     25          1           0        3.909211    2.944471    0.670930
     26          7           0        3.101458   -1.539651   -0.095451
     27          8           0        3.987312   -1.828393    0.706129
     28          8           0        2.420129   -2.350064   -0.719677
 ---------------------------------------------------------------------

 SCF Done:  E(RHF) =  -868.339270860     A.U. after   16 cycles
 E2 =    -0.2600656501D+01 EUMP2 =    -0.87093992736154D+03

 The electronic state is 1-A.
 Alpha  occ. eigenvalues --  -20.61643 -20.61627 -20.60904 -20.60898 -15.86655
 Alpha  occ. eigenvalues --  -15.85952 -11.31796 -11.31260 -11.28359 -11.28323
 Alpha  occ. eigenvalues --  -11.28018 -11.27828 -11.27748 -11.27490 -11.27311
 Alpha  occ. eigenvalues --  -11.27236 -11.26838 -11.26675  -1.60710  -1.59984
 Alpha  occ. eigenvalues --   -1.40266  -1.39537  -1.19952  -1.19409  -1.09385
 Alpha  occ. eigenvalues --   -1.08810  -1.05310  -1.04784  -0.96254  -0.95658
 Alpha  occ. eigenvalues --   -0.86721  -0.86183  -0.83084  -0.82478  -0.78170
 Alpha  occ. eigenvalues --   -0.77540  -0.72867  -0.72168  -0.72042  -0.71315
 Alpha  occ. eigenvalues --   -0.71047  -0.70497  -0.65598  -0.65297  -0.65044
 Alpha  occ. eigenvalues --   -0.64747  -0.62662  -0.62107  -0.55810  -0.55273
 Alpha  occ. eigenvalues --   -0.53762  -0.53392  -0.53042  -0.52845  -0.49648
 Alpha  occ. eigenvalues --   -0.49608  -0.48929  -0.48920  -0.45698  -0.44955
 Alpha  occ. eigenvalues --   -0.37976  -0.37402  -0.37002  -0.36207
 Alpha virt. eigenvalues --    0.04300   0.04967   0.10572   0.11389   0.15851
 Alpha virt. eigenvalues --    0.16480   0.20798   0.21531   0.26472   0.27176
 Alpha virt. eigenvalues --    0.27908   0.28526   0.30600   0.31102   0.32001

 Mulliken charges:
               1
     1  C   -0.170430
     2  C   -0.218836
     3  C   -0.173090
     4  C    0.157600
     5  C   -0.177947
     6  C   -0.224516
     7  H    0.226900
     8  H    0.222112
     9  H    0.274304
    10  H    0.278219
    11  H    0.237372
    12  N    0.487503
    13  O   -0.460082
    14  O   -0.461360
    15  C   -0.170359
    16  C   -0.217470
    17  C   -0.167965
    18  C    0.154055
    19  C   -0.173242
    20  C   -0.219514
    21  H    0.228120
    22  H    0.228700
    23  H    0.275192
    24  H    0.275270
    25  H    0.224392
    26  N    0.485998
    27  O   -0.457685
    28  O   -0.463243
 Sum of Mulliken charges =  -0.00000

 Dipole moment (field-independent basis, Debye):
    X=              2.9173    Y=              5.1707    Z=              2.7876  Tot=              6.5588
 Quadrupole moment (field-independent basis, Debye-Ang):
   XX=           -130.0901   YY=           -103.1694   ZZ=           -100.6052
   XY=             13.1688   XZ=            -10.5898   YZ=              0.5930

 Normal termination of Gaussian 16 at Wed May  5 21:14:30 2021.
