 Gaussian 16, Revision A.03,
 Gaussian 16:  EM64L-G16RevA.03 25-Dec-2016

 -------------
 #p 6-31g* mp2
 -------------

 ------------------------------------------------------
 Input file generated by CHIRIPA (05-May-2021 14:57:21)
 ------------------------------------------------------
 Symbolic Z-matrix:
 Charge =  0 Multiplicity = 1

                         Standard orientation:
 ---------------------------------------------------------------------
 Center     Atomic      Atomic             Coordinates (Angstroms)
 Number     Number       Type             X           Y           Z
 ---------------------------------------------------------------------
      1          6           0        4.707548    1.652750    0.620115
      2          6           0        3.804787    2.073393   -0.362028
      3          6           0        2.873095    1.180218   -0.899368
      4          6           0        2.872088   -0.132179   -0.429363
      5          6           0        3.758629   -0.581462    0.548123
      6          6           0        4.681633    0.328999    1.071260
      7          1           0        5.427934    2.353304    1.032017
      8          1           0        3.822618    3.100835   -0.714290
      9          1           0        2.162824    1.479230   -1.660633
     10          1           0        3.716673   -1.611992    0.879280
     11          1           0        5.381536   -0.000470    1.833908
     12          7           0        1.890346   -1.086893   -0.990703
     13          8           0        1.909874   -2.237777   -0.559748
     14          8           0        1.119917   -0.666237   -1.851009
     15          6           0       -4.851668    1.168532   -0.942483
     16          6           0       -4.632479    1.468100    0.406123
     17          6           0       -3.628101    0.812938    1.124827
     18          6           0       -2.858155   -0.140572    0.460529
     19          6           0       -3.052185   -0.461057   -0.882204
     20          6           0       -4.062214    0.206605   -1.581216
     21          1           0       -5.634089    1.682332   -1.493140
     22          1           0       -5.244044    2.214693    0.904753
     23          1           0       -3.436922    1.025426    2.169680
     24          1           0       -2.426361   -1.210055   -1.352061
     25          1           0       -4.230186   -0.028079   -2.628475
     26          7           0       -1.791873   -0.840779    1.210965
     27          8           0       -1.127215   -1.676807    0.602751
     28          8           0       -1.640971   -0.540317    2.393161
 ---------------------------------------------------------------------

 SCF Done:  E(RHF) =  -868.337421966     A.U. after   16 cycles
 E2 =    -0.2600468407D+01 EUMP2 =    -0.87093789037285D+03

 The electronic state is 1-A.
 Alpha  occ. eigenvalues --  -20.59987 -20.59939 -20.59901 -20.59809 -15.84983
 Alpha  occ. eigenvalues --  -15.84928 -11.30501 -11.30439 -11.27142 -11.27113
 Alpha  occ. eigenvalues --  -11.27055 -11.26925 -11.26902 -11.26867 -11.26203
 Alpha  occ. eigenvalues --  -11.26147 -11.26143 -11.26042  -1.59040  -1.58903
 Alpha  occ. eigenvalues --   -1.38574  -1.38472  -1.18693  -1.18648  -1.08057
 Alpha  occ. eigenvalues --   -1.08038  -1.04136  -1.04058  -0.94881  -0.94824
 Alpha  occ. eigenvalues --   -0.85527  -0.85454  -0.81710  -0.81658  -0.76709
 Alpha  occ. eigenvalues --   -0.76681  -0.71287  -0.71158  -0.70503  -0.69999
 Alpha  occ. eigenvalues --   -0.69821  -0.69752  -0.64357  -0.64297  -0.64153
 Alpha  occ. eigenvalues --   -0.64070  -0.61488  -0.61382  -0.54647  -0.54594
 Alpha  occ. eigenvalues --   -0.52444  -0.52401  -0.52243  -0.52147  -0.48067
 Alpha  occ. eigenvalues --   -0.47995  -0.47870  -0.47850  -0.43950  -0.43814
 Alpha  occ. eigenvalues --   -0.36690  -0.36664  -0.35745  -0.35666
 Alpha virt. eigenvalues --    0.05753   0.05922   0.11907   0.11984   0.17263
 Alpha virt. eigenvalues --    0.17306   0.21956   0.22092   0.27852   0.27992
 Alpha virt. eigenvalues --    0.28859   0.29060   0.31456   0.31615   0.33128

 Mulliken charges:
               1
     1  C   -0.171435
     2  C   -0.218486
     3  C   -0.172115
     4  C    0.161255
     5  C   -0.167885
     6  C   -0.218325
     7  H    0.223080
     8  H    0.219993
     9  H    0.271609
    10  H    0.277943
    11  H    0.222318
    12  N    0.493068
    13  O   -0.448387
    14  O   -0.472202
    15  C   -0.171500
    16  C   -0.219708
    17  C   -0.172314
    18  C    0.155421
    19  C   -0.168474
    20  C   -0.220169
    21  H    0.222674
    22  H    0.219878
    23  H    0.272543
    24  H    0.288815
    25  H    0.223314
    26  N    0.485690
    27  O   -0.447947
    28  O   -0.468654
 Sum of Mulliken charges =  -0.00000

 Dipole moment (field-independent basis, Debye):
    X=             -0.1853    Y=              5.4326    Z=             -0.7183  Tot=              5.4830
 Quadrupole moment (field-independent basis, Debye-Ang):
   XX=            -65.1431   YY=           -103.1534   ZZ=           -105.1216
   XY=              0.3917   XZ=             11.0146   YZ=             -0.1330

 Normal termination of Gaussian 16 at Thu May  6 03:19:43 2021.
