 Gaussian 16, Revision A.03,
 Gaussian 16:  EM64L-G16RevA.03 25-Dec-2016

 -------------
 #p 6-31g* mp2
 -------------

 ------------------------------------------------------
 Input file generated by CHIRIPA (05-May-2021 14:51:08)
 ------------------------------------------------------
 Symbolic Z-matrix:
 Charge =  0 Multiplicity = 1

                         Standard orientation:
 ---------------------------------------------------------------------
 Center     Atomic      Atomic             Coordinates (Angstroms)
 Number     Number       Type             X           Y           Z
 ---------------------------------------------------------------------
      1          6           0       -3.227086    1.044256    0.150010
      2          6           0       -2.336040    2.276456   -0.010319
      3          6           0       -2.900880    3.510177    0.694439
      4          1           0       -4.227040    1.268723   -0.245784
      5          1           0       -3.355342    0.829848    1.220045
      6          1           0       -2.208373    2.487654   -1.079764
      7          1           0       -1.338036    2.048967    0.385729
      8          1           0       -3.012064    3.323722    1.767506
      9          1           0       -3.887346    3.764900    0.293687
     10          1           0       -2.248130    4.379389    0.566973
     11          6           0       -2.675746   -0.197151   -0.549031
     12          6           0       -3.566793   -1.429351   -0.388702
     13          6           0       -3.001953   -2.663072   -1.093460
     14          1           0       -2.547490    0.017256   -1.619066
     15          1           0       -1.675793   -0.421618   -0.153237
     16          1           0       -4.564796   -1.201863   -0.784749
     17          1           0       -3.694459   -1.640549    0.680743
     18          1           0       -2.015487   -2.917796   -0.692708
     19          1           0       -2.890769   -2.476617   -2.166527
     20          1           0       -3.654703   -3.532284   -0.965994
     21          6           0        2.679302   -0.941196    0.690866
     22          6           0        1.217637   -1.310216    0.435240
     23          6           0        0.687613   -2.346838    1.426343
     24          1           0        3.294866   -1.849605    0.637784
     25          1           0        2.779118   -0.555380    1.714867
     26          1           0        1.120362   -1.693925   -0.588440
     27          1           0        0.605506   -0.400794    0.488747
     28          1           0        0.755660   -1.969427    2.451784
     29          1           0        1.273442   -3.269907    1.368478
     30          1           0       -0.358967   -2.596072    1.225314
     31          6           0        3.223531    0.094092   -0.291845
     32          6           0        4.685197    0.463111   -0.036219
     33          6           0        5.215219    1.499733   -1.027322
     34          1           0        3.123715   -0.291725   -1.315846
     35          1           0        2.607966    1.002500   -0.238764
     36          1           0        5.297328   -0.446312   -0.089726
     37          1           0        4.782470    0.846822    0.987461
     38          1           0        4.629390    2.422801   -0.969457
     39          1           0        5.147173    1.122322   -2.052764
     40          1           0        6.261800    1.748967   -0.826294
 ---------------------------------------------------------------------

 SCF Done:  E(RHF) =  -470.732841653     A.U. after   11 cycles
 E2 =    -0.1583982982D+01 EUMP2 =    -0.47231682463440D+03

 The electronic state is 1-A.
 Alpha  occ. eigenvalues --  -11.21661 -11.21621 -11.21619 -11.21577 -11.21440
 Alpha  occ. eigenvalues --  -11.21377 -11.21369 -11.21275 -11.21156 -11.21085
 Alpha  occ. eigenvalues --  -11.21081 -11.21056  -1.08484  -1.08400  -1.03595
 Alpha  occ. eigenvalues --   -1.03511  -0.96029  -0.95970  -0.87051  -0.86978
 Alpha  occ. eigenvalues --   -0.79668  -0.79577  -0.78381  -0.78121  -0.65187
 Alpha  occ. eigenvalues --   -0.64992  -0.60981  -0.60978  -0.59449  -0.59264
 Alpha  occ. eigenvalues --   -0.57632  -0.57582  -0.55372  -0.55213  -0.52739
 Alpha  occ. eigenvalues --   -0.52666  -0.52483  -0.52355  -0.49974  -0.49919
 Alpha  occ. eigenvalues --   -0.47972  -0.47897  -0.46761  -0.46613  -0.46077
 Alpha  occ. eigenvalues --   -0.45768  -0.45716  -0.45272  -0.43824  -0.43767
 Alpha virt. eigenvalues --    0.20201   0.22583   0.23360   0.24415   0.25715
 Alpha virt. eigenvalues --    0.26651   0.26944   0.27395   0.28148   0.29503
 Alpha virt. eigenvalues --    0.30274   0.31391   0.31579   0.31807   0.32420

 Mulliken charges:
               1
     1  C   -0.297678
     2  C   -0.300790
     3  C   -0.475683
     4  H    0.149591
     5  H    0.149174
     6  H    0.152277
     7  H    0.151577
     8  H    0.155152
     9  H    0.155462
    10  H    0.160110
    11  C   -0.309134
    12  C   -0.298962
    13  C   -0.480553
    14  H    0.149079
    15  H    0.162291
    16  H    0.151916
    17  H    0.151428
    18  H    0.159106
    19  H    0.155323
    20  H    0.160287
    21  C   -0.297542
    22  C   -0.304704
    23  C   -0.481637
    24  H    0.149868
    25  H    0.149475
    26  H    0.153328
    27  H    0.154843
    28  H    0.155460
    29  H    0.156232
    30  H    0.164178
    31  C   -0.298441
    32  C   -0.299699
    33  C   -0.475736
    34  H    0.149848
    35  H    0.149802
    36  H    0.152001
    37  H    0.151903
    38  H    0.155278
    39  H    0.155267
    40  H    0.160301
 Sum of Mulliken charges =  -0.00000

 Dipole moment (field-independent basis, Debye):
    X=              0.0346    Y=             -0.0063    Z=             -0.0066  Tot=              0.0358
 Quadrupole moment (field-independent basis, Debye-Ang):
   XX=            -84.8758   YY=            -85.6704   ZZ=            -84.2805
   XY=             -0.5259   XZ=              0.6928   YZ=              0.2767

 Normal termination of Gaussian 16 at Wed May  5 22:57:01 2021.
