 Gaussian 16, Revision A.03,
 Gaussian 16:  EM64L-G16RevA.03 25-Dec-2016

 -------------
 #p 6-31g* mp2
 -------------

 ------------------------------------------------------
 Input file generated by CHIRIPA (05-May-2021 14:57:24)
 ------------------------------------------------------
 Symbolic Z-matrix:
 Charge =  0 Multiplicity = 1

                         Standard orientation:
 ---------------------------------------------------------------------
 Center     Atomic      Atomic             Coordinates (Angstroms)
 Number     Number       Type             X           Y           Z
 ---------------------------------------------------------------------
      1          6           0       -4.082564    2.029351    0.840910
      2          6           0       -3.079697    2.072254   -0.133224
      3          6           0       -2.534016    0.890346   -0.643004
      4          6           0       -3.016904   -0.322457   -0.153906
      5          6           0       -4.015099   -0.398029    0.816242
      6          6           0       -4.546247    0.796520    1.311704
      7          1           0       -4.500818    2.952395    1.231358
      8          1           0       -2.717661    3.028253   -0.500702
      9          1           0       -1.756759    0.894595   -1.397504
     10          1           0       -4.355617   -1.366119    1.163037
     11          1           0       -5.324996    0.760165    2.068191
     12          7           0       -2.446909   -1.580381   -0.686008
     13          8           0       -2.889538   -2.636111   -0.238628
     14          8           0       -1.568311   -1.486792   -1.540375
     15          6           0        3.231042   -2.339471    0.637508
     16          6           0        2.103711   -1.826417   -0.012431
     17          6           0        2.026271   -0.468020   -0.333849
     18          6           0        3.099226    0.352438    0.010977
     19          6           0        4.235922   -0.128793    0.658767
     20          6           0        4.291680   -1.490517    0.970446
     21          1           0        3.282778   -3.395998    0.883410
     22          1           0        1.278505   -2.483378   -0.272207
     23          1           0        1.165447   -0.044416   -0.836799
     24          1           0        5.042723    0.550828    0.904946
     25          1           0        5.168430   -1.886193    1.475218
     26          7           0        3.028722    1.792273   -0.324138
     27          8           0        3.987337    2.494221   -0.009556
     28          8           0        2.016178    2.191607   -0.895037
 ---------------------------------------------------------------------

 SCF Done:  E(RHF) =  -868.341504099     A.U. after   16 cycles
 E2 =    -0.2598840956D+01 EUMP2 =    -0.87094034505487D+03

 The electronic state is 1-A.
 Alpha  occ. eigenvalues --  -20.61518 -20.61470 -20.60583 -20.60557 -15.86494
 Alpha  occ. eigenvalues --  -15.85612 -11.31438 -11.30675 -11.27974 -11.27907
 Alpha  occ. eigenvalues --  -11.27606 -11.27250 -11.27093 -11.26908 -11.26872
 Alpha  occ. eigenvalues --  -11.26800 -11.26230 -11.25966  -1.60551  -1.59647
 Alpha  occ. eigenvalues --   -1.40116  -1.39211  -1.19568  -1.18809  -1.09043
 Alpha  occ. eigenvalues --   -1.08265  -1.04892  -1.04136  -0.95945  -0.95151
 Alpha  occ. eigenvalues --   -0.86319  -0.85560  -0.82790  -0.81975  -0.77885
 Alpha  occ. eigenvalues --   -0.77054  -0.72723  -0.71867  -0.71829  -0.70960
 Alpha  occ. eigenvalues --   -0.70668  -0.69917  -0.65217  -0.64884  -0.64448
 Alpha  occ. eigenvalues --   -0.64106  -0.62242  -0.61458  -0.55418  -0.54673
 Alpha  occ. eigenvalues --   -0.53259  -0.52972  -0.52526  -0.52194  -0.49497
 Alpha  occ. eigenvalues --   -0.49439  -0.48610  -0.48563  -0.45601  -0.44682
 Alpha  occ. eigenvalues --   -0.37530  -0.36800  -0.36473  -0.35740
 Alpha virt. eigenvalues --    0.04548   0.05421   0.11135   0.11906   0.16135
 Alpha virt. eigenvalues --    0.16991   0.20867   0.22268   0.25890   0.27652
 Alpha virt. eigenvalues --    0.28495   0.29315   0.31037   0.31410   0.31986

 Mulliken charges:
               1
     1  C   -0.169841
     2  C   -0.217913
     3  C   -0.172720
     4  C    0.156712
     5  C   -0.171187
     6  C   -0.218624
     7  H    0.227944
     8  H    0.231693
     9  H    0.279868
    10  H    0.274437
    11  H    0.224037
    12  N    0.488617
    13  O   -0.457948
    14  O   -0.470225
    15  C   -0.171266
    16  C   -0.224932
    17  C   -0.175723
    18  C    0.158489
    19  C   -0.172379
    20  C   -0.218983
    21  H    0.225798
    22  H    0.241509
    23  H    0.279050
    24  H    0.272718
    25  H    0.221135
    26  N    0.488631
    27  O   -0.461477
    28  O   -0.467419
 Sum of Mulliken charges =  -0.00000

 Dipole moment (field-independent basis, Debye):
    X=             -2.0926    Y=             -0.6390    Z=              3.0662  Tot=              3.7668
 Quadrupole moment (field-independent basis, Debye-Ang):
   XX=            -85.9975   YY=           -110.3388   ZZ=           -104.0985
   XY=            -26.8765   XZ=             -1.9419   YZ=             -2.3748

 Normal termination of Gaussian 16 at Thu May  6 14:41:55 2021.
