 Gaussian 16, Revision A.03,
 Gaussian 16:  EM64L-G16RevA.03 25-Dec-2016

 -------------
 #p 6-31g* mp2
 -------------

 ------------------------------------------------------
 Input file generated by CHIRIPA (05-May-2021 14:51:14)
 ------------------------------------------------------
 Symbolic Z-matrix:
 Charge =  0 Multiplicity = 1

                         Standard orientation:
 ---------------------------------------------------------------------
 Center     Atomic      Atomic             Coordinates (Angstroms)
 Number     Number       Type             X           Y           Z
 ---------------------------------------------------------------------
      1          6           0       -3.368434   -0.304087   -0.082351
      2          6           0       -3.093819   -1.685199    0.513553
      3          6           0       -4.317769   -2.283586    1.207580
      4          1           0       -3.706454    0.371715    0.715133
      5          1           0       -4.197241   -0.380170   -0.799766
      6          1           0       -2.264863   -1.606792    1.228606
      7          1           0       -2.756230   -2.357740   -0.285407
      8          1           0       -5.147249   -2.390680    0.501114
      9          1           0       -4.653091   -1.635466    2.023730
     10          1           0       -4.099164   -3.270869    1.626323
     11          6           0       -2.154366    0.307192   -0.779564
     12          6           0       -2.428981    1.688304   -1.375468
     13          6           0       -1.205031    2.286692   -2.069495
     14          1           0       -1.325559    0.383276   -0.062149
     15          1           0       -1.816347   -0.368610   -1.577047
     16          1           0       -2.766570    2.360845   -0.576507
     17          1           0       -3.257937    1.609898   -2.090521
     18          1           0       -0.869710    1.638572   -2.885645
     19          1           0       -0.375551    2.393786   -1.363029
     20          1           0       -1.423637    3.273974   -2.488237
     21          6           0        3.043580   -0.225493   -0.242584
     22          6           0        3.590289   -1.653370   -0.226441
     23          6           0        4.151313   -2.086916   -1.581094
     24          1           0        2.258847   -0.148744   -1.007599
     25          1           0        3.844422    0.462914   -0.546133
     26          1           0        2.789025   -2.338722    0.078327
     27          1           0        4.373679   -1.726780    0.538757
     28          1           0        4.968655   -1.426671   -1.888714
     29          1           0        3.374997   -2.042091   -2.351760
     30          1           0        4.536744   -3.110702   -1.546946
     31          6           0        2.479220    0.222389    1.104498
     32          6           0        1.932511    1.650265    1.088356
     33          6           0        1.371487    2.083810    2.443009
     34          1           0        1.678379   -0.466019    1.408048
     35          1           0        3.263953    0.145638    1.869514
     36          1           0        1.149121    1.723675    0.323158
     37          1           0        2.733776    2.335617    0.783588
     38          1           0        2.147804    2.038985    3.213675
     39          1           0        0.554145    1.423566    2.750628
     40          1           0        0.986056    3.107596    2.408861
 ---------------------------------------------------------------------

 SCF Done:  E(RHF) =  -470.733324905     A.U. after   11 cycles
 E2 =    -0.1583403133D+01 EUMP2 =    -0.47231672803826D+03

 The electronic state is 1-A.
 Alpha  occ. eigenvalues --  -11.21655 -11.21644 -11.21623 -11.21586 -11.21465
 Alpha  occ. eigenvalues --  -11.21407 -11.21403 -11.21339 -11.21123 -11.21107
 Alpha  occ. eigenvalues --  -11.21094 -11.21057  -1.08489  -1.08430  -1.03586
 Alpha  occ. eigenvalues --   -1.03533  -0.96025  -0.95988  -0.87044  -0.87002
 Alpha  occ. eigenvalues --   -0.79683  -0.79568  -0.78327  -0.78219  -0.65232
 Alpha  occ. eigenvalues --   -0.64963  -0.61112  -0.60817  -0.59411  -0.59337
 Alpha  occ. eigenvalues --   -0.57655  -0.57583  -0.55336  -0.55258  -0.52713
 Alpha  occ. eigenvalues --   -0.52688  -0.52466  -0.52402  -0.50034  -0.49890
 Alpha  occ. eigenvalues --   -0.48092  -0.47841  -0.46859  -0.46484  -0.45999
 Alpha  occ. eigenvalues --   -0.45798  -0.45726  -0.45423  -0.43831  -0.43790
 Alpha virt. eigenvalues --    0.19735   0.23353   0.23565   0.24329   0.25878
 Alpha virt. eigenvalues --    0.26544   0.26932   0.27956   0.28510   0.29471
 Alpha virt. eigenvalues --    0.30295   0.31528   0.31691   0.31763   0.32012

 Mulliken charges:
               1
     1  C   -0.298274
     2  C   -0.299581
     3  C   -0.475748
     4  H    0.149999
     5  H    0.149910
     6  H    0.151289
     7  H    0.151952
     8  H    0.155348
     9  H    0.155371
    10  H    0.160394
    11  C   -0.301718
    12  C   -0.299265
    13  C   -0.483243
    14  H    0.151812
    15  H    0.149450
    16  H    0.152198
    17  H    0.152222
    18  H    0.155032
    19  H    0.162130
    20  H    0.160842
    21  C   -0.298895
    22  C   -0.299729
    23  C   -0.475695
    24  H    0.150800
    25  H    0.149468
    26  H    0.152156
    27  H    0.151796
    28  H    0.155160
    29  H    0.155242
    30  H    0.160164
    31  C   -0.297718
    32  C   -0.310997
    33  C   -0.475475
    34  H    0.149399
    35  H    0.149768
    36  H    0.161600
    37  H    0.152401
    38  H    0.155735
    39  H    0.154445
    40  H    0.160255
 Sum of Mulliken charges =  -0.00000

 Dipole moment (field-independent basis, Debye):
    X=             -0.0092    Y=              0.0063    Z=             -0.0084  Tot=              0.0139
 Quadrupole moment (field-independent basis, Debye-Ang):
   XX=            -84.6072   YY=            -84.9777   ZZ=            -85.0733
   XY=              0.2297   XZ=              1.3347   YZ=              0.3670

 Normal termination of Gaussian 16 at Wed May  5 15:23:29 2021.
