 Gaussian 16, Revision A.03,
 Gaussian 16:  EM64L-G16RevA.03 25-Dec-2016

 -------------
 #p 6-31g* mp2
 -------------

 ------------------------------------------------------
 Input file generated by CHIRIPA (05-May-2021 14:57:22)
 ------------------------------------------------------
 Symbolic Z-matrix:
 Charge =  0 Multiplicity = 1

                         Standard orientation:
 ---------------------------------------------------------------------
 Center     Atomic      Atomic             Coordinates (Angstroms)
 Number     Number       Type             X           Y           Z
 ---------------------------------------------------------------------
      1          6           0        4.202165    1.319596   -0.849414
      2          6           0        4.490900    0.584808    0.305245
      3          6           0        3.573847   -0.346049    0.802305
      4          6           0        2.372341   -0.517512    0.116540
      5          6           0        2.055657    0.199370   -1.036318
      6          6           0        2.987606    1.124876   -1.515337
      7          1           0        4.920339    2.040630   -1.228535
      8          1           0        5.433348    0.733946    0.824471
      9          1           0        3.771779   -0.928314    1.694049
     10          1           0        1.107809    0.028734   -1.532184
     11          1           0        2.760688    1.694116   -2.412286
     12          7           0        1.393613   -1.500135    0.633206
     13          8           0        0.342151   -1.632647    0.010707
     14          8           0        1.696481   -2.119198    1.650884
     15          6           0       -2.158514    2.456389    1.314617
     16          6           0       -2.509392    1.265506    1.958977
     17          6           0       -2.719694    0.095444    1.223261
     18          6           0       -2.569914    0.152463   -0.161514
     19          6           0       -2.221198    1.323560   -0.832498
     20          6           0       -2.015788    2.481572   -0.076612
     21          1           0       -1.997046    3.360641    1.893973
     22          1           0       -2.620937    1.242996    3.039299
     23          1           0       -2.992104   -0.840095    1.696523
     24          1           0       -2.117392    1.314882   -1.910722
     25          1           0       -1.743372    3.405003   -0.579712
     26          7           0       -2.789961   -1.079850   -0.951061
     27          8           0       -2.651768   -1.003345   -2.169948
     28          8           0       -3.096461   -2.098908   -0.336069
 ---------------------------------------------------------------------

 SCF Done:  E(RHF) =  -868.337689460     A.U. after   16 cycles
 E2 =    -0.2602070714D+01 EUMP2 =    -0.87093976017382D+03

 The electronic state is 1-A.
 Alpha  occ. eigenvalues --  -20.60820 -20.60805 -20.59831 -20.59739 -15.85863
 Alpha  occ. eigenvalues --  -15.84848 -11.31246 -11.30478 -11.27837 -11.27805
 Alpha  occ. eigenvalues --  -11.27597 -11.27175 -11.26986 -11.26929 -11.26860
 Alpha  occ. eigenvalues --  -11.26849 -11.26291 -11.26154  -1.59876  -1.58820
 Alpha  occ. eigenvalues --   -1.39435  -1.38385  -1.19431  -1.18684  -1.08825
 Alpha  occ. eigenvalues --   -1.08031  -1.04840  -1.04158  -0.95655  -0.94831
 Alpha  occ. eigenvalues --   -0.86237  -0.85537  -0.82501  -0.81685  -0.77541
 Alpha  occ. eigenvalues --   -0.76672  -0.72185  -0.71207  -0.71102  -0.70554
 Alpha  occ. eigenvalues --   -0.69955  -0.69831  -0.65085  -0.64849  -0.64358
 Alpha  occ. eigenvalues --   -0.64191  -0.62185  -0.61510  -0.55350  -0.54674
 Alpha  occ. eigenvalues --   -0.53170  -0.52943  -0.52446  -0.52270  -0.48837
 Alpha  occ. eigenvalues --   -0.48835  -0.47873  -0.47814  -0.44843  -0.43734
 Alpha  occ. eigenvalues --   -0.37432  -0.36624  -0.36462  -0.35758
 Alpha virt. eigenvalues --    0.04990   0.05943   0.11192   0.11835   0.16453
 Alpha virt. eigenvalues --    0.17376   0.21226   0.21920   0.26922   0.27707
 Alpha virt. eigenvalues --    0.28151   0.28957   0.30571   0.31408   0.32291

 Mulliken charges:
               1
     1  C   -0.171019
     2  C   -0.219012
     3  C   -0.171178
     4  C    0.157958
     5  C   -0.170471
     6  C   -0.219836
     7  H    0.225096
     8  H    0.223122
     9  H    0.275401
    10  H    0.278493
    11  H    0.222482
    12  N    0.491505
    13  O   -0.462127
    14  O   -0.460126
    15  C   -0.173036
    16  C   -0.220043
    17  C   -0.164967
    18  C    0.173276
    19  C   -0.179517
    20  C   -0.219446
    21  H    0.221684
    22  H    0.222386
    23  H    0.279683
    24  H    0.269114
    25  H    0.217335
    26  N    0.495892
    27  O   -0.470118
    28  O   -0.452531
 Sum of Mulliken charges =  -0.00000

 Dipole moment (field-independent basis, Debye):
    X=              4.2266    Y=              7.4150    Z=              1.0875  Tot=              8.6040
 Quadrupole moment (field-independent basis, Debye-Ang):
   XX=            -91.5806   YY=           -107.1316   ZZ=           -100.6032
   XY=             -4.0497   XZ=             -9.9475   YZ=             -2.4248

 Normal termination of Gaussian 16 at Thu May  6 09:41:42 2021.
