 Gaussian 16, Revision A.03,
 Gaussian 16:  EM64L-G16RevA.03 25-Dec-2016

 -------------
 #p 6-31g* mp2
 -------------

 ------------------------------------------------------
 Input file generated by CHIRIPA (05-May-2021 14:57:23)
 ------------------------------------------------------
 Symbolic Z-matrix:
 Charge =  0 Multiplicity = 1

                         Standard orientation:
 ---------------------------------------------------------------------
 Center     Atomic      Atomic             Coordinates (Angstroms)
 Number     Number       Type             X           Y           Z
 ---------------------------------------------------------------------
      1          6           0        6.087346    0.229078    0.058473
      2          6           0        5.585456   -0.975004   -0.446317
      3          6           0        4.206644   -1.193592   -0.521444
      4          6           0        3.354607   -0.181987   -0.081013
      5          6           0        3.824003    1.028391    0.426867
      6          6           0        5.206570    1.225177    0.492688
      7          1           0        7.159898    0.390415    0.113219
      8          1           0        6.267120   -1.750360   -0.784257
      9          1           0        3.791055   -2.116293   -0.907872
     10          1           0        3.119634    1.782624    0.756130
     11          1           0        5.593509    2.161275    0.885173
     12          7           0        1.892933   -0.401856   -0.155621
     13          8           0        1.163271    0.505139    0.238826
     14          8           0        1.504613   -1.477022   -0.607132
     15          6           0       -4.335972   -2.251527    0.334606
     16          6           0       -5.126810   -1.350436   -0.385902
     17          6           0       -4.726402   -0.019802   -0.539636
     18          6           0       -3.523924    0.377511    0.043012
     19          6           0       -2.714117   -0.496465    0.766662
     20          6           0       -3.134268   -1.822422    0.907578
     21          1           0       -4.654688   -3.283379    0.449051
     22          1           0       -6.060550   -1.680890   -0.831969
     23          1           0       -5.319339    0.698797   -1.092321
     24          1           0       -1.788378   -0.137604    1.199842
     25          1           0       -2.518071   -2.520020    1.467670
     26          7           0       -3.089579    1.783717   -0.112955
     27          8           0       -2.025923    2.108889    0.410052
     28          8           0       -3.821020    2.534105   -0.755255
 ---------------------------------------------------------------------

 SCF Done:  E(RHF) =  -868.338582380     A.U. after   16 cycles
 E2 =    -0.2599387009D+01 EUMP2 =    -0.87093796938933D+03

 The electronic state is 1-A.
 Alpha  occ. eigenvalues --  -20.60878 -20.60793 -20.59521 -20.59440 -15.85849
 Alpha  occ. eigenvalues --  -15.84530 -11.31156 -11.29878 -11.27748 -11.27677
 Alpha  occ. eigenvalues --  -11.27466 -11.26743 -11.26698 -11.26571 -11.26326
 Alpha  occ. eigenvalues --  -11.26319 -11.25600 -11.25456  -1.59909  -1.58562
 Alpha  occ. eigenvalues --   -1.39454  -1.38106  -1.19328  -1.18086  -1.08741
 Alpha  occ. eigenvalues --   -1.07507  -1.04717  -1.03483  -0.95580  -0.94328
 Alpha  occ. eigenvalues --   -0.86119  -0.84891  -0.82403  -0.81155  -0.77460
 Alpha  occ. eigenvalues --   -0.76175  -0.72058  -0.71223  -0.70753  -0.70434
 Alpha  occ. eigenvalues --   -0.69880  -0.69219  -0.64978  -0.64722  -0.63748
 Alpha  occ. eigenvalues --   -0.63511  -0.62059  -0.60811  -0.55232  -0.54052
 Alpha  occ. eigenvalues --   -0.53057  -0.52807  -0.51829  -0.51589  -0.48856
 Alpha  occ. eigenvalues --   -0.48824  -0.47542  -0.47479  -0.44869  -0.43508
 Alpha  occ. eigenvalues --   -0.37314  -0.36319  -0.36116  -0.35074
 Alpha virt. eigenvalues --    0.05052   0.06347   0.11336   0.12571   0.16549
 Alpha virt. eigenvalues --    0.17804   0.21479   0.22614   0.27402   0.28346
 Alpha virt. eigenvalues --    0.28551   0.29565   0.31045   0.32082   0.32646

 Mulliken charges:
               1
     1  C   -0.170565
     2  C   -0.218779
     3  C   -0.171226
     4  C    0.157345
     5  C   -0.170904
     6  C   -0.218833
     7  H    0.225654
     8  H    0.222839
     9  H    0.274120
    10  H    0.280644
    11  H    0.224706
    12  N    0.487555
    13  O   -0.453510
    14  O   -0.466325
    15  C   -0.171188
    16  C   -0.219910
    17  C   -0.171990
    18  C    0.154724
    19  C   -0.165528
    20  C   -0.218514
    21  H    0.220871
    22  H    0.218275
    23  H    0.271536
    24  H    0.290371
    25  H    0.222432
    26  N    0.487225
    27  O   -0.452209
    28  O   -0.468817
 Sum of Mulliken charges =  -0.00000

 Dipole moment (field-independent basis, Debye):
    X=              4.0470    Y=             -4.0380    Z=              0.9220  Tot=              5.7909
 Quadrupole moment (field-independent basis, Debye-Ang):
   XX=            -58.7342   YY=           -105.6884   ZZ=           -104.0892
   XY=             17.2754   XZ=              0.4995   YZ=              1.4526

 Normal termination of Gaussian 16 at Wed May  5 17:50:55 2021.
