 Gaussian 16, Revision A.03,
 Gaussian 16:  EM64L-G16RevA.03 25-Dec-2016

 -------------
 #p 6-31g* mp2
 -------------

 ------------------------------------------------------
 Input file generated by CHIRIPA (05-May-2021 14:51:14)
 ------------------------------------------------------
 Symbolic Z-matrix:
 Charge =  0 Multiplicity = 1

                         Standard orientation:
 ---------------------------------------------------------------------
 Center     Atomic      Atomic             Coordinates (Angstroms)
 Number     Number       Type             X           Y           Z
 ---------------------------------------------------------------------
      1          6           0        2.703478   -1.110345    0.060740
      2          6           0        3.079477    0.349209    0.318249
      3          6           0        4.588629    0.556551    0.449633
      4          1           0        3.090521   -1.732023    0.879678
      5          1           0        3.202916   -1.454181   -0.855630
      6          1           0        2.578377    0.690605    1.233106
      7          1           0        2.691328    0.967509   -0.501301
      8          1           0        5.101698    0.242608   -0.465136
      9          1           0        4.988106   -0.035869    1.279126
     10          1           0        4.835057    1.606965    0.633383
     11          6           0        1.198153   -1.333627   -0.072940
     12          6           0        0.822154   -2.793181   -0.330449
     13          6           0       -0.686998   -3.000523   -0.461834
     14          1           0        0.698715   -0.989791    0.843429
     15          1           0        0.811110   -0.711950   -0.891878
     16          1           0        1.210303   -3.411482    0.489100
     17          1           0        1.323254   -3.134578   -1.245307
     18          1           0       -1.086475   -2.408104   -1.291326
     19          1           0       -1.200067   -2.686581    0.452935
     20          1           0       -0.933426   -4.050937   -0.645584
     21          6           0       -1.559235    1.830712    0.250127
     22          6           0       -0.574515    2.373514   -0.786057
     23          6           0        0.201360    3.591254   -0.283143
     24          1           0       -2.263522    2.626313    0.529313
     25          1           0       -1.009804    1.564844    1.163821
     26          1           0       -1.125447    2.636985   -1.698018
     27          1           0        0.127391    1.576473   -1.062950
     28          1           0        0.775930    3.338432    0.613823
     29          1           0       -0.484027    4.404970   -0.024852
     30          1           0        0.899483    3.962960   -1.039660
     31          6           0       -2.342397    0.613260   -0.237926
     32          6           0       -3.327116    0.070458    0.798258
     33          6           0       -4.102990   -1.147282    0.295344
     34          1           0       -2.891828    0.879128   -1.151620
     35          1           0       -1.638110   -0.182340   -0.517113
     36          1           0       -4.029022    0.867499    1.075151
     37          1           0       -2.776183   -0.193013    1.710219
     38          1           0       -3.417605   -1.960997    0.037053
     39          1           0       -4.677561   -0.894460   -0.601622
     40          1           0       -4.801114   -1.518987    1.051861
 ---------------------------------------------------------------------

 SCF Done:  E(RHF) =  -470.730519599     A.U. after   11 cycles
 E2 =    -0.1587368201D+01 EUMP2 =    -0.47231788779996D+03

 The electronic state is 1-A.
 Alpha  occ. eigenvalues --  -11.21726 -11.21684 -11.21522 -11.21484 -11.21477
 Alpha  occ. eigenvalues --  -11.21457 -11.21260 -11.21191 -11.21133 -11.21127
 Alpha  occ. eigenvalues --  -11.20989 -11.20869  -1.08594  -1.08268  -1.03672
 Alpha  occ. eigenvalues --   -1.03393  -0.96119  -0.95842  -0.87134  -0.86871
 Alpha  occ. eigenvalues --   -0.79795  -0.79446  -0.78578  -0.77949  -0.65225
 Alpha  occ. eigenvalues --   -0.64923  -0.61065  -0.60895  -0.59467  -0.59231
 Alpha  occ. eigenvalues --   -0.57715  -0.57459  -0.55494  -0.55076  -0.52800
 Alpha  occ. eigenvalues --   -0.52556  -0.52548  -0.52245  -0.50108  -0.49735
 Alpha  occ. eigenvalues --   -0.48294  -0.47683  -0.46808  -0.46686  -0.46416
 Alpha  occ. eigenvalues --   -0.45804  -0.45544  -0.44636  -0.43890  -0.43644
 Alpha virt. eigenvalues --    0.20477   0.21938   0.23579   0.24013   0.25203
 Alpha virt. eigenvalues --    0.25929   0.26999   0.28063   0.28806   0.29519
 Alpha virt. eigenvalues --    0.30726   0.31235   0.31595   0.31931   0.32721

 Mulliken charges:
               1
     1  C   -0.297892
     2  C   -0.303324
     3  C   -0.475810
     4  H    0.149994
     5  H    0.149752
     6  H    0.151723
     7  H    0.156124
     8  H    0.155343
     9  H    0.155309
    10  H    0.160933
    11  C   -0.306411
    12  C   -0.299163
    13  C   -0.482326
    14  H    0.150667
    15  H    0.155173
    16  H    0.152405
    17  H    0.152373
    18  H    0.158292
    19  H    0.158203
    20  H    0.161904
    21  C   -0.297054
    22  C   -0.307159
    23  C   -0.475778
    24  H    0.149032
    25  H    0.148739
    26  H    0.150938
    27  H    0.158908
    28  H    0.156392
    29  H    0.154739
    30  H    0.159055
    31  C   -0.309780
    32  C   -0.298874
    33  C   -0.483348
    34  H    0.147778
    35  H    0.164050
    36  H    0.151565
    37  H    0.149465
    38  H    0.164953
    39  H    0.154177
    40  H    0.158932
 Sum of Mulliken charges =  -0.00000

 Dipole moment (field-independent basis, Debye):
    X=              0.0992    Y=             -0.0988    Z=             -0.0304  Tot=              0.1432
 Quadrupole moment (field-independent basis, Debye-Ang):
   XX=            -86.0610   YY=            -85.2862   ZZ=            -83.7137
   XY=             -1.2115   XZ=             -0.0134   YZ=             -0.5537

 Normal termination of Gaussian 16 at Wed May  5 20:02:11 2021.
