 Gaussian 16, Revision A.03,
 Gaussian 16:  EM64L-G16RevA.03 25-Dec-2016

 -------------
 #p 6-31g* mp2
 -------------

 ------------------------------------------------------
 Input file generated by CHIRIPA (05-May-2021 14:51:11)
 ------------------------------------------------------
 Symbolic Z-matrix:
 Charge =  0 Multiplicity = 1

                         Standard orientation:
 ---------------------------------------------------------------------
 Center     Atomic      Atomic             Coordinates (Angstroms)
 Number     Number       Type             X           Y           Z
 ---------------------------------------------------------------------
      1          6           0       -3.400091   -0.254255   -0.018460
      2          6           0       -4.121331   -1.250314   -0.927121
      3          6           0       -4.747599   -2.410575   -0.152927
      4          1           0       -2.620643   -0.782149    0.547873
      5          1           0       -4.111666    0.138744    0.720870
      6          1           0       -3.408939   -1.640278   -1.665390
      7          1           0       -4.899026   -0.719951   -1.491497
      8          1           0       -5.479122   -2.039540    0.572200
      9          1           0       -3.980568   -2.965097    0.397319
     10          1           0       -5.257965   -3.110505   -0.821871
     11          6           0       -2.768802    0.911332   -0.777807
     12          6           0       -2.047562    1.907391    0.130853
     13          6           0       -1.421294    3.067653   -0.643341
     14          1           0       -2.057226    0.518334   -1.517137
     15          1           0       -3.548250    1.439226   -1.344140
     16          1           0       -1.269867    1.377028    0.695230
     17          1           0       -2.759954    2.297355    0.869123
     18          1           0       -2.188325    3.622174   -1.193587
     19          1           0       -0.689771    2.696617   -1.368467
     20          1           0       -0.910928    3.767582    0.025603
     21          6           0        2.731324    0.027325    0.974412
     22          6           0        1.410119   -0.630167    1.374546
     23          6           0        0.715540    0.093193    2.528714
     24          1           0        3.398825    0.054744    1.846557
     25          1           0        2.542199    1.072405    0.692572
     26          1           0        1.601476   -1.674092    1.654222
     27          1           0        0.745757   -0.656196    0.501298
     28          1           0        0.495948    1.130678    2.256675
     29          1           0        1.356530    0.107000    3.416150
     30          1           0       -0.226890   -0.393553    2.798462
     31          6           0        3.437569   -0.684403   -0.178146
     32          6           0        4.758774   -0.026910   -0.578278
     33          6           0        5.453353   -0.750271   -1.732446
     34          1           0        3.626694   -1.729483    0.103694
     35          1           0        2.770067   -0.711821   -1.050290
     36          1           0        5.423136   -0.000881    0.294969
     37          1           0        4.567417    1.017014   -0.857955
     38          1           0        4.812363   -0.764077   -2.619883
     39          1           0        5.672945   -1.787755   -1.460408
     40          1           0        6.395783   -0.263524   -2.002195
 ---------------------------------------------------------------------

 SCF Done:  E(RHF) =  -470.733044793     A.U. after   11 cycles
 E2 =    -0.1583393360D+01 EUMP2 =    -0.47231643815249D+03

 The electronic state is 1-A.
 Alpha  occ. eigenvalues --  -11.21682 -11.21631 -11.21600 -11.21531 -11.21452
 Alpha  occ. eigenvalues --  -11.21401 -11.21392 -11.21342 -11.21114 -11.21095
 Alpha  occ. eigenvalues --  -11.21090 -11.21069  -1.08489  -1.08416  -1.03603
 Alpha  occ. eigenvalues --   -1.03505  -0.96034  -0.95977  -0.87056  -0.86985
 Alpha  occ. eigenvalues --   -0.79672  -0.79560  -0.78291  -0.78238  -0.65259
 Alpha  occ. eigenvalues --   -0.64941  -0.61208  -0.60720  -0.59400  -0.59338
 Alpha  occ. eigenvalues --   -0.57667  -0.57565  -0.55376  -0.55223  -0.52732
 Alpha  occ. eigenvalues --   -0.52660  -0.52452  -0.52400  -0.50076  -0.49850
 Alpha  occ. eigenvalues --   -0.48002  -0.47850  -0.46759  -0.46506  -0.45884
 Alpha  occ. eigenvalues --   -0.45757  -0.45742  -0.45617  -0.43832  -0.43777
 Alpha virt. eigenvalues --    0.19958   0.23173   0.23769   0.24601   0.26137
 Alpha virt. eigenvalues --    0.26576   0.26841   0.27584   0.28204   0.29459
 Alpha virt. eigenvalues --    0.30636   0.31272   0.31625   0.31801   0.32232

 Mulliken charges:
               1
     1  C   -0.299858
     2  C   -0.299569
     3  C   -0.475739
     4  H    0.150706
     5  H    0.149664
     6  H    0.151848
     7  H    0.152006
     8  H    0.155175
     9  H    0.155208
    10  H    0.160262
    11  C   -0.297407
    12  C   -0.310375
    13  C   -0.475647
    14  H    0.148596
    15  H    0.149547
    16  H    0.164663
    17  H    0.151746
    18  H    0.155496
    19  H    0.154261
    20  H    0.159691
    21  C   -0.298362
    22  C   -0.302440
    23  C   -0.479848
    24  H    0.150034
    25  H    0.150000
    26  H    0.152525
    27  H    0.152347
    28  H    0.157576
    29  H    0.156513
    30  H    0.161182
    31  C   -0.298282
    32  C   -0.299747
    33  C   -0.475734
    34  H    0.149610
    35  H    0.149359
    36  H    0.152056
    37  H    0.152147
    38  H    0.155170
    39  H    0.155209
    40  H    0.160415
 Sum of Mulliken charges =  -0.00000

 Dipole moment (field-independent basis, Debye):
    X=              0.0229    Y=             -0.0054    Z=              0.0306  Tot=              0.0386
 Quadrupole moment (field-independent basis, Debye-Ang):
   XX=            -84.3889   YY=            -85.1823   ZZ=            -85.1628
   XY=             -0.9539   XZ=              0.9634   YZ=             -0.2813

 Normal termination of Gaussian 16 at Thu May  6 05:28:27 2021.
