 Gaussian 16, Revision A.03,
 Gaussian 16:  EM64L-G16RevA.03 25-Dec-2016

 -------------
 #p 6-31g* mp2
 -------------

 ------------------------------------------------------
 Input file generated by CHIRIPA (05-May-2021 14:51:09)
 ------------------------------------------------------
 Symbolic Z-matrix:
 Charge =  0 Multiplicity = 1

                         Standard orientation:
 ---------------------------------------------------------------------
 Center     Atomic      Atomic             Coordinates (Angstroms)
 Number     Number       Type             X           Y           Z
 ---------------------------------------------------------------------
      1          6           0       -2.426222   -1.425249    0.169768
      2          6           0       -1.010229   -1.510869   -0.400862
      3          6           0       -0.278171   -2.784605    0.022789
      4          1           0       -2.376416   -1.473805    1.266174
      5          1           0       -2.999232   -2.304291   -0.156330
      6          1           0       -0.440478   -0.631230   -0.074924
      7          1           0       -1.063397   -1.461910   -1.496030
      8          1           0       -0.822077   -3.672309   -0.315956
      9          1           0       -0.195619   -2.836910    1.113225
     10          1           0        0.732077   -2.825277   -0.396263
     11          6           0       -3.170851   -0.157453   -0.244901
     12          6           0       -4.586844   -0.071833    0.325729
     13          6           0       -5.318903    1.201903   -0.097922
     14          1           0       -2.597842    0.721589    0.081196
     15          1           0       -3.220657   -0.108897   -1.341307
     16          1           0       -4.533676   -0.120792    1.420897
     17          1           0       -5.156595   -0.951471   -0.000210
     18          1           0       -5.401455    1.254208   -1.188358
     19          1           0       -4.774996    2.089607    0.240823
     20          1           0       -6.329151    1.242575    0.321130
     21          6           0        2.322419    1.291138    0.364609
     22          6           0        2.141073    2.575200   -0.445505
     23          6           0        1.185752    3.565152    0.221692
     24          1           0        1.342769    0.815846    0.510652
     25          1           0        2.697950    1.547004    1.365061
     26          1           0        1.767309    2.316877   -1.444597
     27          1           0        3.121293    3.047390   -0.589799
     28          1           0        1.556997    3.851662    1.210979
     29          1           0        0.195320    3.116999    0.351325
     30          1           0        1.070676    4.475859   -0.374321
     31          6           0        3.274655    0.291563   -0.289476
     32          6           0        3.456001   -0.992498    0.520638
     33          6           0        4.411321   -1.982450   -0.146558
     34          1           0        2.899124    0.035697   -1.289928
     35          1           0        4.254304    0.766856   -0.435519
     36          1           0        2.475780   -1.464688    0.664933
     37          1           0        3.829764   -0.734176    1.519731
     38          1           0        5.401752   -1.534297   -0.276191
     39          1           0        4.040076   -2.268959   -1.135846
     40          1           0        4.526398   -2.893157    0.449454
 ---------------------------------------------------------------------

 SCF Done:  E(RHF) =  -470.732816738     A.U. after   11 cycles
 E2 =    -0.1584152788D+01 EUMP2 =    -0.47231696952532D+03

 The electronic state is 1-A.
 Alpha  occ. eigenvalues --  -11.21678 -11.21638 -11.21600 -11.21528 -11.21465
 Alpha  occ. eigenvalues --  -11.21406 -11.21389 -11.21329 -11.21141 -11.21094
 Alpha  occ. eigenvalues --  -11.21090 -11.21058  -1.08503  -1.08408  -1.03599
 Alpha  occ. eigenvalues --   -1.03511  -0.96040  -0.95973  -0.87069  -0.86976
 Alpha  occ. eigenvalues --   -0.79694  -0.79545  -0.78344  -0.78201  -0.65287
 Alpha  occ. eigenvalues --   -0.64934  -0.61020  -0.60932  -0.59423  -0.59299
 Alpha  occ. eigenvalues --   -0.57641  -0.57583  -0.55337  -0.55271  -0.52745
 Alpha  occ. eigenvalues --   -0.52658  -0.52488  -0.52377  -0.50077  -0.49836
 Alpha  occ. eigenvalues --   -0.48051  -0.47833  -0.46843  -0.46504  -0.46041
 Alpha  occ. eigenvalues --   -0.45816  -0.45735  -0.45339  -0.43830  -0.43766
 Alpha virt. eigenvalues --    0.19866   0.22487   0.23541   0.24598   0.25913
 Alpha virt. eigenvalues --    0.26806   0.27206   0.27378   0.27803   0.29675
 Alpha virt. eigenvalues --    0.31022   0.31419   0.31714   0.31861   0.32217

 Mulliken charges:
               1
     1  C   -0.297614
     2  C   -0.309316
     3  C   -0.478712
     4  H    0.149947
     5  H    0.149955
     6  H    0.159320
     7  H    0.152166
     8  H    0.156103
     9  H    0.155460
    10  H    0.163079
    11  C   -0.298415
    12  C   -0.299734
    13  C   -0.475802
    14  H    0.148881
    15  H    0.149836
    16  H    0.152156
    17  H    0.152087
    18  H    0.155218
    19  H    0.155406
    20  H    0.160425
    21  C   -0.306022
    22  C   -0.299344
    23  C   -0.475721
    24  H    0.156213
    25  H    0.149583
    26  H    0.152356
    27  H    0.152062
    28  H    0.155174
    29  H    0.154312
    30  H    0.160510
    31  C   -0.297684
    32  C   -0.307472
    33  C   -0.475919
    34  H    0.149463
    35  H    0.149671
    36  H    0.160470
    37  H    0.151590
    38  H    0.155292
    39  H    0.154590
    40  H    0.160433
 Sum of Mulliken charges =  -0.00000

 Dipole moment (field-independent basis, Debye):
    X=             -0.0279    Y=             -0.0192    Z=              0.0015  Tot=              0.0339
 Quadrupole moment (field-independent basis, Debye-Ang):
   XX=            -84.9342   YY=            -85.7703   ZZ=            -84.0231
   XY=              1.6502   XZ=              0.7891   YZ=              0.4949

 Normal termination of Gaussian 16 at Wed May  5 16:39:14 2021.
