 Gaussian 16, Revision A.03,
 Gaussian 16:  EM64L-G16RevA.03 25-Dec-2016

 -------------
 #p 6-31g* mp2
 -------------

 ------------------------------------------------------
 Input file generated by CHIRIPA (05-May-2021 14:53:12)
 ------------------------------------------------------
 Symbolic Z-matrix:
 Charge =  0 Multiplicity = 1

                         Standard orientation:
 ---------------------------------------------------------------------
 Center     Atomic      Atomic             Coordinates (Angstroms)
 Number     Number       Type             X           Y           Z
 ---------------------------------------------------------------------
      1          6           0        4.991011   -0.467826   -0.113046
      2          6           0        6.466375   -0.079739   -0.009732
      3          6           0        7.394599   -1.106435   -0.659417
      4          1           0        4.842565   -1.448782    0.358796
      5          1           0        4.723650   -0.586757   -1.172182
      6          1           0        6.730521    0.039775    1.048833
      7          1           0        6.611291    0.900493   -0.481706
      8          1           0        7.159429   -1.219965   -1.722623
      9          1           0        7.279337   -2.085574   -0.183389
     10          1           0        8.444458   -0.809173   -0.574033
     11          6           0        4.050591    0.548735    0.531890
     12          6           0        2.575227    0.160648    0.428576
     13          6           0        1.647004    1.187343    1.078261
     14          1           0        4.317952    0.667665    1.591026
     15          1           0        4.199037    1.529690    0.060048
     16          1           0        2.430311   -0.819585    0.900550
     17          1           0        2.311081    0.041134   -0.629989
     18          1           0        1.762265    2.166482    0.602233
     19          1           0        1.882173    1.300873    2.141468
     20          1           0        0.597144    0.890082    0.992877
     21          6           0       -2.436405    2.202716   -0.580357
     22          6           0       -1.702586    1.022669   -0.740099
     23          6           0       -2.299287   -0.220886   -0.511916
     24          6           0       -3.637782   -0.247611   -0.123321
     25          6           0       -4.395344    0.910535    0.044270
     26          6           0       -3.778077    2.142989   -0.189370
     27          1           0       -1.964886    3.164427   -0.759736
     28          1           0       -0.660463    1.066022   -1.043656
     29          1           0       -1.754517   -1.149938   -0.628140
     30          1           0       -5.432473    0.835368    0.347801
     31          1           0       -4.350417    3.057804   -0.064532
     32          7           0       -4.280368   -1.558230    0.121135
     33          8           0       -5.461029   -1.554801    0.462701
     34          8           0       -3.591201   -2.564106   -0.033455
 ---------------------------------------------------------------------

 SCF Done:  E(RHF) =  -669.535028302     A.U. after   15 cycles
 E2 =    -0.2091708871D+01 EUMP2 =    -0.67162673717381D+03

 The electronic state is 1-A.
 Alpha  occ. eigenvalues --  -20.60765 -20.60760 -15.85819 -11.31194 -11.27763
 Alpha  occ. eigenvalues --  -11.27758 -11.27497 -11.26780 -11.26733 -11.22312
 Alpha  occ. eigenvalues --  -11.21937 -11.21918 -11.21784 -11.21775 -11.21332
 Alpha  occ. eigenvalues --   -1.59840  -1.39393  -1.19370  -1.08931  -1.08758
 Alpha  occ. eigenvalues --   -1.04781  -1.04044  -0.96493  -0.95591  -0.87516
 Alpha  occ. eigenvalues --   -0.86161  -0.82426  -0.80117  -0.78718  -0.77475
 Alpha  occ. eigenvalues --   -0.72036  -0.71163  -0.70466  -0.65571  -0.65018
 Alpha  occ. eigenvalues --   -0.64804  -0.62188  -0.61425  -0.59848  -0.58096
 Alpha  occ. eigenvalues --   -0.55777  -0.55259  -0.53455  -0.53016  -0.52962
 Alpha  occ. eigenvalues --   -0.52577  -0.50424  -0.48795  -0.48791  -0.48422
 Alpha  occ. eigenvalues --   -0.47155  -0.46263  -0.46175  -0.44797  -0.44287
 Alpha  occ. eigenvalues --   -0.37334  -0.36341
 Alpha virt. eigenvalues --    0.05049   0.11225   0.16452   0.20196   0.22649
 Alpha virt. eigenvalues --    0.23852   0.25944   0.26617   0.27096   0.28240
 Alpha virt. eigenvalues --    0.28922   0.30172   0.30943   0.31461   0.31827

 Mulliken charges:
               1
     1  C   -0.298812
     2  C   -0.300022
     3  C   -0.476014
     4  H    0.151640
     5  H    0.149174
     6  H    0.152801
     7  H    0.151655
     8  H    0.155370
     9  H    0.156325
    10  H    0.161201
    11  C   -0.298046
    12  C   -0.301663
    13  C   -0.484654
    14  H    0.151949
    15  H    0.148937
    16  H    0.156795
    17  H    0.145877
    18  H    0.150068
    19  H    0.160829
    20  H    0.163244
    21  C   -0.172551
    22  C   -0.219826
    23  C   -0.173403
    24  C    0.158928
    25  C   -0.170788
    26  C   -0.218444
    27  H    0.226122
    28  H    0.230642
    29  H    0.276107
    30  H    0.275681
    31  H    0.223537
    32  N    0.488092
    33  O   -0.460429
    34  O   -0.460321
 Sum of Mulliken charges =  -0.00000

 Dipole moment (field-independent basis, Debye):
    X=              2.3497    Y=              4.6039    Z=             -0.8168  Tot=              5.2330
 Quadrupole moment (field-independent basis, Debye-Ang):
   XX=           -107.7679   YY=            -96.6590   ZZ=            -94.4314
   XY=            -19.5226   XZ=              2.3087   YZ=             -0.5181

 Normal termination of Gaussian 16 at Thu May  6 08:52:07 2021.
