 Gaussian 16, Revision A.03,
 Gaussian 16:  EM64L-G16RevA.03 25-Dec-2016

 -------------
 #p 6-31g* mp2
 -------------

 ------------------------------------------------------
 Input file generated by CHIRIPA (05-May-2021 14:55:21)
 ------------------------------------------------------
 Symbolic Z-matrix:
 Charge =  0 Multiplicity = 1

                         Standard orientation:
 ---------------------------------------------------------------------
 Center     Atomic      Atomic             Coordinates (Angstroms)
 Number     Number       Type             X           Y           Z
 ---------------------------------------------------------------------
      1          6           0        0.779652   -1.957129    1.452290
      2          6           0        0.985142   -2.109798    0.077158
      3          6           0        1.714652   -1.158157   -0.641690
      4          6           0        2.226689   -0.061187    0.049515
      5          6           0        2.039002    0.118989    1.419041
      6          6           0        1.306310   -0.845183    2.117669
      7          1           0        0.211715   -2.701253    2.002855
      8          1           0        0.577306   -2.972343   -0.442199
      9          1           0        1.888778   -1.251583   -1.706758
     10          1           0        2.457916    0.989428    1.909209
     11          1           0        1.148300   -0.724022    3.185563
     12          7           0        3.000674    0.952905   -0.700794
     13          8           0        3.441342    1.910378   -0.068581
     14          8           0        3.151999    0.771076   -1.906894
     15          6           0       -2.802804   -0.433618   -0.014042
     16          6           0       -2.388900   -1.443973   -1.084487
     17          6           0       -2.626879   -2.891787   -0.654379
     18          1           0       -2.245721   -0.639334    0.910233
     19          1           0       -3.866081   -0.576477    0.223501
     20          1           0       -1.327063   -1.298334   -1.320936
     21          1           0       -2.946892   -1.235707   -2.006379
     22          1           0       -3.686729   -3.059990   -0.437522
     23          1           0       -2.057696   -3.122972    0.251815
     24          1           0       -2.324072   -3.597264   -1.434424
     25          6           0       -2.570962    1.018122   -0.429287
     26          6           0       -2.984866    2.028477    0.641158
     27          6           0       -2.746887    3.476291    0.211050
     28          1           0       -1.507684    1.160982   -0.666830
     29          1           0       -3.128046    1.223838   -1.353562
     30          1           0       -2.426874    1.820212    1.563051
     31          1           0       -4.046702    1.882838    0.877608
     32          1           0       -3.316070    3.707476   -0.695143
     33          1           0       -1.687037    3.644495   -0.005806
     34          1           0       -3.049694    4.181769    0.991096
 ---------------------------------------------------------------------

 SCF Done:  E(RHF) =  -669.534597979     A.U. after   15 cycles
 E2 =    -0.2094884820D+01 EUMP2 =    -0.67162948279879D+03

 The electronic state is 1-A.
 Alpha  occ. eigenvalues --  -20.60871 -20.60866 -15.85925 -11.31340 -11.27877
 Alpha  occ. eigenvalues --  -11.27871 -11.27623 -11.26927 -11.26879 -11.22010
 Alpha  occ. eigenvalues --  -11.21894 -11.21749 -11.21707 -11.21531 -11.21083
 Alpha  occ. eigenvalues --   -1.59946  -1.39498  -1.19508  -1.08919  -1.08696
 Alpha  occ. eigenvalues --   -1.04920  -1.03867  -0.96340  -0.95719  -0.87353
 Alpha  occ. eigenvalues --   -0.86299  -0.82553  -0.79940  -0.78507  -0.77590
 Alpha  occ. eigenvalues --   -0.72141  -0.71272  -0.70603  -0.65478  -0.65153
 Alpha  occ. eigenvalues --   -0.64842  -0.62305  -0.61226  -0.59731  -0.57934
 Alpha  occ. eigenvalues --   -0.55634  -0.55397  -0.53226  -0.53052  -0.52951
 Alpha  occ. eigenvalues --   -0.52758  -0.50276  -0.48902  -0.48894  -0.48252
 Alpha  occ. eigenvalues --   -0.46986  -0.46051  -0.45966  -0.44892  -0.44098
 Alpha  occ. eigenvalues --   -0.37448  -0.36418
 Alpha virt. eigenvalues --    0.04889   0.11072   0.16271   0.20008   0.22921
 Alpha virt. eigenvalues --    0.24135   0.25812   0.26412   0.26622   0.28021
 Alpha virt. eigenvalues --    0.28889   0.30315   0.31146   0.31824   0.32216

 Mulliken charges:
               1
     1  C   -0.172452
     2  C   -0.216471
     3  C   -0.172758
     4  C    0.158904
     5  C   -0.171581
     6  C   -0.218943
     7  H    0.226815
     8  H    0.229386
     9  H    0.276561
    10  H    0.276128
    11  H    0.224350
    12  N    0.487877
    13  O   -0.459974
    14  O   -0.459741
    15  C   -0.298144
    16  C   -0.302932
    17  C   -0.478422
    18  H    0.147303
    19  H    0.148918
    20  H    0.154410
    21  H    0.154597
    22  H    0.160176
    23  H    0.144068
    24  H    0.158101
    25  C   -0.298999
    26  C   -0.299422
    27  C   -0.476517
    28  H    0.152515
    29  H    0.150780
    30  H    0.149351
    31  H    0.151085
    32  H    0.156052
    33  H    0.158940
    34  H    0.160039
 Sum of Mulliken charges =  -0.00000

 Dipole moment (field-independent basis, Debye):
    X=             -2.6553    Y=             -3.4931    Z=              2.6212  Tot=              5.1111
 Quadrupole moment (field-independent basis, Debye-Ang):
   XX=           -106.7882   YY=            -94.7392   ZZ=            -90.9814
   XY=             -7.7914   XZ=              6.9565   YZ=              2.2695

 Normal termination of Gaussian 16 at Thu May  6 12:30:19 2021.
