 Gaussian 16, Revision A.03,
 Gaussian 16:  EM64L-G16RevA.03 25-Dec-2016

 -------------
 #p 6-31g* mp2
 -------------

 ------------------------------------------------------
 Input file generated by CHIRIPA (05-May-2021 14:51:11)
 ------------------------------------------------------
 Symbolic Z-matrix:
 Charge =  0 Multiplicity = 1

                         Standard orientation:
 ---------------------------------------------------------------------
 Center     Atomic      Atomic             Coordinates (Angstroms)
 Number     Number       Type             X           Y           Z
 ---------------------------------------------------------------------
      1          6           0       -4.248402    0.295982    0.657815
      2          6           0       -2.808548    0.346589    0.145718
      3          6           0       -1.861383    1.056070    1.113865
      4          1           0       -4.603634    1.320171    0.836119
      5          1           0       -4.266519   -0.214914    1.630467
      6          1           0       -2.793341    0.856013   -0.826327
      7          1           0       -2.456768   -0.677831   -0.031569
      8          1           0       -1.846888    0.545518    2.082228
      9          1           0       -2.185374    2.088077    1.282955
     10          1           0       -0.837477    1.080829    0.728035
     11          6           0       -5.207245   -0.410224   -0.299066
     12          6           0       -6.647099   -0.460831    0.213031
     13          6           0       -7.594264   -1.170311   -0.755116
     14          1           0       -5.189128    0.100672   -1.271718
     15          1           0       -4.852013   -1.434413   -0.477370
     16          1           0       -6.998879    0.563589    0.390318
     17          1           0       -6.662306   -0.970255    1.185076
     18          1           0       -7.270273   -2.202319   -0.924206
     19          1           0       -7.608759   -0.659759   -1.723479
     20          1           0       -8.618170   -1.195071   -0.369286
     21          6           0        5.114140   -0.568738    0.026763
     22          6           0        6.631729   -0.391292   -0.031719
     23          6           0        7.390749   -1.651955    0.383504
     24          1           0        4.823758   -0.853902    1.047207
     25          1           0        4.824224   -1.404009   -0.625667
     26          1           0        6.918550    0.444285    0.619558
     27          1           0        6.918512   -0.106329   -1.052095
     28          1           0        7.133440   -2.490075   -0.272200
     29          1           0        7.133479   -1.936333    1.408952
     30          1           0        8.473907   -1.502900    0.334383
     31          6           0        4.341507    0.682979   -0.385512
     32          6           0        2.823918    0.505534   -0.327030
     33          6           0        2.064898    1.766197   -0.742253
     34          1           0        4.631423    1.518251    0.266918
     35          1           0        4.631889    0.968145   -1.405956
     36          1           0        2.537135    0.220571    0.693346
     37          1           0        2.537097   -0.330042   -0.978307
     38          1           0        2.322168    2.050575   -1.767701
     39          1           0        2.322207    2.604317   -0.086549
     40          1           0        0.981740    1.617142   -0.693132
 ---------------------------------------------------------------------

 SCF Done:  E(RHF) =  -470.733312686     A.U. after   11 cycles
 E2 =    -0.1582155007D+01 EUMP2 =    -0.47231546769275D+03

 The electronic state is 1-A.
 Alpha  occ. eigenvalues --  -11.21608 -11.21601 -11.21600 -11.21598 -11.21406
 Alpha  occ. eigenvalues --  -11.21401 -11.21346 -11.21342 -11.21070 -11.21069
 Alpha  occ. eigenvalues --  -11.21068 -11.21049  -1.08434  -1.08424  -1.03547
 Alpha  occ. eigenvalues --   -1.03513  -0.96017  -0.95944  -0.87045  -0.86948
 Alpha  occ. eigenvalues --   -0.79609  -0.79573  -0.78243  -0.78238  -0.65061
 Alpha  occ. eigenvalues --   -0.65055  -0.60929  -0.60921  -0.59648  -0.59140
 Alpha  occ. eigenvalues --   -0.57760  -0.57407  -0.55267  -0.55258  -0.52957
 Alpha  occ. eigenvalues --   -0.52540  -0.52457  -0.52181  -0.49923  -0.49909
 Alpha  occ. eigenvalues --   -0.47977  -0.47833  -0.46630  -0.46617  -0.45787
 Alpha  occ. eigenvalues --   -0.45780  -0.45710  -0.45705  -0.43913  -0.43637
 Alpha virt. eigenvalues --    0.21627   0.22993   0.23370   0.24997   0.26614
 Alpha virt. eigenvalues --    0.26657   0.26866   0.27522   0.27593   0.28744
 Alpha virt. eigenvalues --    0.30507   0.31399   0.31435   0.31864   0.31969

 Mulliken charges:
               1
     1  C   -0.298276
     2  C   -0.299463
     3  C   -0.483170
     4  H    0.149702
     5  H    0.149564
     6  H    0.151861
     7  H    0.151943
     8  H    0.155199
     9  H    0.155371
    10  H    0.167139
    11  C   -0.298279
    12  C   -0.299659
    13  C   -0.475707
    14  H    0.149546
    15  H    0.149633
    16  H    0.151957
    17  H    0.151919
    18  H    0.155167
    19  H    0.155189
    20  H    0.160246
    21  C   -0.298308
    22  C   -0.299672
    23  C   -0.475712
    24  H    0.149719
    25  H    0.149507
    26  H    0.151966
    27  H    0.151938
    28  H    0.155168
    29  H    0.155192
    30  H    0.160258
    31  C   -0.298257
    32  C   -0.300190
    33  C   -0.481583
    34  H    0.149648
    35  H    0.149727
    36  H    0.152498
    37  H    0.151917
    38  H    0.155398
    39  H    0.155580
    40  H    0.165322
 Sum of Mulliken charges =  -0.00000

 Dipole moment (field-independent basis, Debye):
    X=              0.0079    Y=              0.0024    Z=              0.0002  Tot=              0.0083
 Quadrupole moment (field-independent basis, Debye-Ang):
   XX=            -85.9081   YY=            -84.8025   ZZ=            -84.0444
   XY=              0.0054   XZ=             -0.5659   YZ=             -0.1662

 Normal termination of Gaussian 16 at Wed May  5 21:27:16 2021.
