 Gaussian 16, Revision A.03,
 Gaussian 16:  EM64L-G16RevA.03 25-Dec-2016

 -------------
 #p 6-31g* mp2
 -------------

 ------------------------------------------------------
 Input file generated by CHIRIPA (05-May-2021 14:51:11)
 ------------------------------------------------------
 Symbolic Z-matrix:
 Charge =  0 Multiplicity = 1

                         Standard orientation:
 ---------------------------------------------------------------------
 Center     Atomic      Atomic             Coordinates (Angstroms)
 Number     Number       Type             X           Y           Z
 ---------------------------------------------------------------------
      1          6           0        3.491788   -0.497683    0.513635
      2          6           0        2.462852   -1.297053   -0.286543
      3          6           0        1.615147   -2.216850    0.592754
      4          1           0        4.145995   -1.193730    1.056292
      5          1           0        2.970619    0.099272    1.274834
      6          1           0        2.985694   -1.891266   -1.046914
      7          1           0        1.811139   -0.599026   -0.827509
      8          1           0        1.067866   -1.636218    1.342388
      9          1           0        2.249094   -2.935800    1.121736
     10          1           0        0.886290   -2.778755    0.000394
     11          6           0        4.346907    0.426450   -0.351511
     12          6           0        5.375843    1.225820    0.448667
     13          6           0        6.223548    2.145617   -0.430630
     14          1           0        4.868076   -0.170505   -1.112710
     15          1           0        3.692700    1.122497   -0.894168
     16          1           0        6.027556    0.527793    0.989633
     17          1           0        4.853001    1.820033    1.209038
     18          1           0        5.589601    2.864567   -0.959613
     19          1           0        6.770829    1.564985   -1.180264
     20          1           0        6.952405    2.707522    0.161730
     21          6           0       -3.828322   -0.715180    0.025947
     22          6           0       -2.493838   -1.245187   -0.499624
     23          6           0       -2.326482   -2.748776   -0.278253
     24          1           0       -3.908388   -0.940529    1.098212
     25          1           0       -4.648929   -1.253132   -0.468633
     26          1           0       -1.676010   -0.705433   -0.005214
     27          1           0       -2.416856   -1.018380   -1.570721
     28          1           0       -3.122105   -3.303791   -0.785741
     29          1           0       -2.377050   -2.989068    0.788661
     30          1           0       -1.365709   -3.106497   -0.661412
     31          6           0       -4.010372    0.786413   -0.188070
     32          6           0       -5.344858    1.316420    0.337500
     33          6           0       -5.512213    2.820009    0.116129
     34          1           0       -3.189767    1.324365    0.306508
     35          1           0       -3.930307    1.011763   -1.260336
     36          1           0       -5.421839    1.089613    1.408597
     37          1           0       -6.162685    0.776667   -0.156910
     38          1           0       -5.461646    3.060301   -0.950784
     39          1           0       -4.716590    3.375024    0.623618
     40          1           0       -6.472986    3.177730    0.499288
 ---------------------------------------------------------------------

 SCF Done:  E(RHF) =  -470.733130240     A.U. after   11 cycles
 E2 =    -0.1582555223D+01 EUMP2 =    -0.47231568546280D+03

 The electronic state is 1-A.
 Alpha  occ. eigenvalues --  -11.21607 -11.21601 -11.21592 -11.21588 -11.21407
 Alpha  occ. eigenvalues --  -11.21402 -11.21347 -11.21343 -11.21079 -11.21070
 Alpha  occ. eigenvalues --  -11.21037 -11.21036  -1.08436  -1.08419  -1.03555
 Alpha  occ. eigenvalues --   -1.03494  -0.96031  -0.95920  -0.87055  -0.86930
 Alpha  occ. eigenvalues --   -0.79610  -0.79562  -0.78243  -0.78237  -0.65087
 Alpha  occ. eigenvalues --   -0.65029  -0.61001  -0.60849  -0.59651  -0.59122
 Alpha  occ. eigenvalues --   -0.57751  -0.57401  -0.55324  -0.55189  -0.52966
 Alpha  occ. eigenvalues --   -0.52515  -0.52450  -0.52175  -0.49919  -0.49902
 Alpha  occ. eigenvalues --   -0.47995  -0.47810  -0.46633  -0.46603  -0.45802
 Alpha  occ. eigenvalues --   -0.45763  -0.45707  -0.45701  -0.43925  -0.43613
 Alpha virt. eigenvalues --    0.21169   0.23100   0.23414   0.25216   0.26264
 Alpha virt. eigenvalues --    0.26801   0.26861   0.27469   0.27558   0.29000
 Alpha virt. eigenvalues --    0.29498   0.31145   0.31595   0.31900   0.32281

 Mulliken charges:
               1
     1  C   -0.298378
     2  C   -0.300141
     3  C   -0.480218
     4  H    0.149673
     5  H    0.149250
     6  H    0.151761
     7  H    0.152535
     8  H    0.154871
     9  H    0.154877
    10  H    0.165764
    11  C   -0.298264
    12  C   -0.299631
    13  C   -0.475704
    14  H    0.149532
    15  H    0.149694
    16  H    0.151935
    17  H    0.151854
    18  H    0.155194
    19  H    0.155190
    20  H    0.160236
    21  C   -0.298350
    22  C   -0.301131
    23  C   -0.477823
    24  H    0.149692
    25  H    0.149611
    26  H    0.153482
    27  H    0.151589
    28  H    0.154735
    29  H    0.155601
    30  H    0.162808
    31  C   -0.298207
    32  C   -0.299652
    33  C   -0.475697
    34  H    0.149196
    35  H    0.149618
    36  H    0.151961
    37  H    0.151997
    38  H    0.155173
    39  H    0.155076
    40  H    0.160292
 Sum of Mulliken charges =  -0.00000

 Dipole moment (field-independent basis, Debye):
    X=             -0.0032    Y=             -0.0110    Z=              0.0000  Tot=              0.0115
 Quadrupole moment (field-independent basis, Debye-Ang):
   XX=            -84.7437   YY=            -85.8472   ZZ=            -84.2032
   XY=             -0.6558   XZ=              0.6094   YZ=              0.7149

 Normal termination of Gaussian 16 at Wed May  5 23:05:51 2021.
