 Gaussian 16, Revision A.03,
 Gaussian 16:  EM64L-G16RevA.03 25-Dec-2016

 -------------
 #p 6-31g* mp2
 -------------

 ------------------------------------------------------
 Input file generated by CHIRIPA (05-May-2021 14:53:11)
 ------------------------------------------------------
 Symbolic Z-matrix:
 Charge =  0 Multiplicity = 1

                         Standard orientation:
 ---------------------------------------------------------------------
 Center     Atomic      Atomic             Coordinates (Angstroms)
 Number     Number       Type             X           Y           Z
 ---------------------------------------------------------------------
      1          6           0       -2.385043    1.441403   -0.203727
      2          6           0       -1.267704    2.144792    0.567495
      3          6           0       -0.707056    3.356413   -0.177783
      4          1           0       -2.002801    1.125939   -1.184196
      5          1           0       -3.193796    2.158981   -0.399673
      6          1           0       -0.461907    1.425742    0.763134
      7          1           0       -1.652596    2.458448    1.546318
      8          1           0       -1.494502    4.094897   -0.359912
      9          1           0       -0.297047    3.056324   -1.147546
     10          1           0        0.090398    3.844170    0.391445
     11          6           0       -2.955703    0.228159    0.528470
     12          6           0       -4.073041   -0.475230   -0.242753
     13          6           0       -4.633690   -1.686852    0.502526
     14          1           0       -2.146949   -0.489419    0.724415
     15          1           0       -3.337945    0.543622    1.508939
     16          1           0       -3.688149   -0.788887   -1.221575
     17          1           0       -4.878839    0.243819   -0.438391
     18          1           0       -5.043699   -1.386762    1.472289
     19          1           0       -3.846244   -2.425336    0.684655
     20          1           0       -5.431144   -2.174608   -0.066702
     21          6           0        3.639128    1.303276    0.234602
     22          6           0        2.494264    1.455130   -0.554542
     23          6           0        1.626750    0.378526   -0.761644
     24          6           0        1.936100   -0.841218   -0.161797
     25          6           0        3.068960   -1.023979    0.629732
     26          6           0        3.922323    0.066387    0.823183
     27          1           0        4.307537    2.144952    0.390182
     28          1           0        2.271816    2.414549   -1.012883
     29          1           0        0.733556    0.468323   -1.367909
     30          1           0        3.264203   -1.992655    1.073541
     31          1           0        4.810718   -0.054456    1.436531
     32          7           0        1.025193   -1.988254   -0.373821
     33          8           0        1.320107   -3.052484    0.165696
     34          8           0        0.033557   -1.801354   -1.075508
 ---------------------------------------------------------------------

 SCF Done:  E(RHF) =  -669.534814299     A.U. after   15 cycles
 E2 =    -0.2094976246D+01 EUMP2 =    -0.67162979054481D+03

 The electronic state is 1-A.
 Alpha  occ. eigenvalues --  -20.60971 -20.60964 -15.85995 -11.31281 -11.27838
 Alpha  occ. eigenvalues --  -11.27823 -11.27557 -11.26832 -11.26779 -11.21685
 Alpha  occ. eigenvalues --  -11.21625 -11.21203 -11.20889 -11.20778 -11.20295
 Alpha  occ. eigenvalues --   -1.60028  -1.39584  -1.19456  -1.08855  -1.08140
 Alpha  occ. eigenvalues --   -1.04854  -1.03280  -0.95775  -0.95703  -0.86815
 Alpha  occ. eigenvalues --   -0.86224  -0.82538  -0.79404  -0.77847  -0.77607
 Alpha  occ. eigenvalues --   -0.72220  -0.71346  -0.70578  -0.65114  -0.64955
 Alpha  occ. eigenvalues --   -0.64695  -0.62239  -0.60590  -0.59231  -0.57339
 Alpha  occ. eigenvalues --   -0.55351  -0.55073  -0.53160  -0.52953  -0.52467
 Alpha  occ. eigenvalues --   -0.52186  -0.49701  -0.48982  -0.48966  -0.47694
 Alpha  occ. eigenvalues --   -0.46438  -0.45499  -0.45331  -0.44800  -0.43501
 Alpha  occ. eigenvalues --   -0.37420  -0.36353
 Alpha virt. eigenvalues --    0.04895   0.11139   0.16335   0.19754   0.23256
 Alpha virt. eigenvalues --    0.24394   0.26108   0.26671   0.27486   0.28432
 Alpha virt. eigenvalues --    0.29869   0.30975   0.31218   0.31890   0.32482

 Mulliken charges:
               1
     1  C   -0.300084
     2  C   -0.307289
     3  C   -0.475969
     4  H    0.150230
     5  H    0.148392
     6  H    0.156281
     7  H    0.154324
     8  H    0.159996
     9  H    0.142601
    10  H    0.156896
    11  C   -0.299483
    12  C   -0.299539
    13  C   -0.477365
    14  H    0.160165
    15  H    0.145336
    16  H    0.159723
    17  H    0.146651
    18  H    0.150853
    19  H    0.163936
    20  H    0.158504
    21  C   -0.171254
    22  C   -0.217814
    23  C   -0.175075
    24  C    0.158169
    25  C   -0.170716
    26  C   -0.218582
    27  H    0.226115
    28  H    0.227649
    29  H    0.280123
    30  H    0.275696
    31  H    0.223741
    32  N    0.488190
    33  O   -0.458714
    34  O   -0.461686
 Sum of Mulliken charges =  -0.00000

 Dipole moment (field-independent basis, Debye):
    X=              3.2774    Y=              3.8627    Z=              0.7570  Tot=              5.1220
 Quadrupole moment (field-independent basis, Debye-Ang):
   XX=            -80.9520   YY=           -100.9723   ZZ=            -94.0271
   XY=              2.7002   XZ=              2.9661   YZ=             -2.4272

 Normal termination of Gaussian 16 at Thu May  6 05:42:12 2021.
