 Gaussian 16, Revision A.03,
 Gaussian 16:  EM64L-G16RevA.03 25-Dec-2016

 -------------
 #p 6-31g* mp2
 -------------

 ------------------------------------------------------
 Input file generated by CHIRIPA (05-May-2021 14:51:12)
 ------------------------------------------------------
 Symbolic Z-matrix:
 Charge =  0 Multiplicity = 1

                         Standard orientation:
 ---------------------------------------------------------------------
 Center     Atomic      Atomic             Coordinates (Angstroms)
 Number     Number       Type             X           Y           Z
 ---------------------------------------------------------------------
      1          6           0        2.991512    0.878626   -0.220606
      2          6           0        3.095136    2.300657    0.331730
      3          6           0        1.838936    3.130915    0.066348
      4          1           0        2.802511    0.924922   -1.301846
      5          1           0        2.120502    0.381084    0.227934
      6          1           0        3.966497    2.794904   -0.116674
      7          1           0        3.284104    2.250970    1.411748
      8          1           0        0.963358    2.663166    0.528058
      9          1           0        1.649628    3.210191   -1.009049
     10          1           0        1.934615    4.143892    0.469563
     11          6           0        4.239654    0.036263    0.036870
     12          6           0        4.136030   -1.385768   -0.515466
     13          6           0        5.392230   -2.216025   -0.250084
     14          1           0        5.110664    0.533805   -0.411670
     15          1           0        4.428656   -0.010032    1.118110
     16          1           0        3.947063   -1.336081   -1.595484
     17          1           0        3.264670   -1.880015   -0.067062
     18          1           0        5.581538   -2.295302    0.825313
     19          1           0        6.267808   -1.748277   -0.711794
     20          1           0        5.296552   -3.229003   -0.653299
     21          6           0       -4.360028   -0.517678    0.251888
     22          6           0       -5.244878    0.350190   -0.643562
     23          6           0       -6.731521    0.218858   -0.311239
     24          1           0       -4.667806   -1.567707    0.153625
     25          1           0       -4.528000   -0.239647    1.301592
     26          1           0       -5.074265    0.071553   -1.691355
     27          1           0       -4.934833    1.398253   -0.543302
     28          1           0       -6.922373    0.516285    0.724962
     29          1           0       -7.062597   -0.817953   -0.429614
     30          1           0       -7.345734    0.847674   -0.963308
     31          6           0       -2.871139   -0.397211   -0.068152
     32          6           0       -1.986288   -1.265079    0.827298
     33          6           0       -0.499645   -1.133747    0.494975
     34          1           0       -2.703167   -0.675243   -1.117855
     35          1           0       -2.563361    0.652818    0.030111
     36          1           0       -2.296334   -2.313143    0.727037
     37          1           0       -2.156902   -0.986442    1.875090
     38          1           0       -0.168570   -0.096936    0.613350
     39          1           0       -0.308794   -1.431175   -0.541226
     40          1           0        0.114567   -1.762563    1.147044
 ---------------------------------------------------------------------

 SCF Done:  E(RHF) =  -470.733046280     A.U. after   11 cycles
 E2 =    -0.1583066127D+01 EUMP2 =    -0.47231611240686D+03

 The electronic state is 1-A.
 Alpha  occ. eigenvalues --  -11.21635 -11.21606 -11.21550 -11.21529 -11.21421
 Alpha  occ. eigenvalues --  -11.21361 -11.21307 -11.21213 -11.21124 -11.21075
 Alpha  occ. eigenvalues --  -11.21074 -11.21022  -1.08452  -1.08352  -1.03558
 Alpha  occ. eigenvalues --   -1.03477  -0.96019  -0.95919  -0.87045  -0.86934
 Alpha  occ. eigenvalues --   -0.79654  -0.79521  -0.78291  -0.78120  -0.65105
 Alpha  occ. eigenvalues --   -0.64972  -0.61006  -0.60834  -0.59384  -0.59289
 Alpha  occ. eigenvalues --   -0.57633  -0.57523  -0.55335  -0.55191  -0.52739
 Alpha  occ. eigenvalues --   -0.52621  -0.52492  -0.52297  -0.50010  -0.49838
 Alpha  occ. eigenvalues --   -0.48042  -0.47796  -0.46751  -0.46492  -0.45934
 Alpha  occ. eigenvalues --   -0.45732  -0.45678  -0.45358  -0.43796  -0.43714
 Alpha virt. eigenvalues --    0.21291   0.22937   0.23530   0.24504   0.25534
 Alpha virt. eigenvalues --    0.26379   0.27116   0.27277   0.27990   0.29502
 Alpha virt. eigenvalues --    0.29788   0.31573   0.31734   0.31899   0.32279

 Mulliken charges:
               1
     1  C   -0.307995
     2  C   -0.299210
     3  C   -0.476968
     4  H    0.148728
     5  H    0.162494
     6  H    0.151699
     7  H    0.151425
     8  H    0.154813
     9  H    0.155528
    10  H    0.160234
    11  C   -0.297530
    12  C   -0.300601
    13  C   -0.475641
    14  H    0.148986
    15  H    0.149031
    16  H    0.151594
    17  H    0.153364
    18  H    0.154945
    19  H    0.155034
    20  H    0.159958
    21  C   -0.298306
    22  C   -0.299688
    23  C   -0.475722
    24  H    0.149679
    25  H    0.149511
    26  H    0.151980
    27  H    0.152133
    28  H    0.155186
    29  H    0.155160
    30  H    0.160320
    31  C   -0.298476
    32  C   -0.300306
    33  C   -0.479560
    34  H    0.149782
    35  H    0.149893
    36  H    0.152089
    37  H    0.151820
    38  H    0.157999
    39  H    0.156943
    40  H    0.159673
 Sum of Mulliken charges =  -0.00000

 Dipole moment (field-independent basis, Debye):
    X=             -0.0410    Y=             -0.0145    Z=             -0.0066  Tot=              0.0439
 Quadrupole moment (field-independent basis, Debye-Ang):
   XX=            -86.7621   YY=            -84.6866   ZZ=            -83.5770
   XY=              0.7903   XZ=             -0.2388   YZ=              0.3267

 Normal termination of Gaussian 16 at Thu May  6 02:19:40 2021.
