 Gaussian 16, Revision A.03,
 Gaussian 16:  EM64L-G16RevA.03 25-Dec-2016

 -------------
 #p 6-31g* mp2
 -------------

 ------------------------------------------------------
 Input file generated by CHIRIPA (05-May-2021 14:53:12)
 ------------------------------------------------------
 Symbolic Z-matrix:
 Charge =  0 Multiplicity = 1

                         Standard orientation:
 ---------------------------------------------------------------------
 Center     Atomic      Atomic             Coordinates (Angstroms)
 Number     Number       Type             X           Y           Z
 ---------------------------------------------------------------------
      1          6           0        3.734925    0.308195    0.078739
      2          6           0        5.023345   -0.478901   -0.163007
      3          6           0        6.082072    0.334597   -0.908065
      4          1           0        3.330424    0.642488   -0.886441
      5          1           0        3.970215    1.216546    0.650519
      6          1           0        4.785490   -1.386196   -0.732969
      7          1           0        5.424724   -0.811521    0.802847
      8          1           0        6.348158    1.232182   -0.340490
      9          1           0        5.705293    0.654242   -1.885032
     10          1           0        6.994783   -0.247225   -1.070244
     11          6           0        2.666900   -0.491664    0.822563
     12          6           0        1.378480    0.295432    1.064309
     13          6           0        0.319752   -0.518066    1.809366
     14          1           0        2.431610   -1.400014    0.250783
     15          1           0        3.071401   -0.825956    1.787743
     16          1           0        0.977101    0.628053    0.098455
     17          1           0        1.616335    1.202728    1.634270
     18          1           0        0.696532   -0.837711    2.786333
     19          1           0        0.053667   -1.415650    1.241792
     20          1           0       -0.592958    0.063757    1.971545
     21          6           0       -2.627659   -2.441885   -0.530575
     22          6           0       -3.373021   -1.770829    0.444433
     23          6           0       -3.310417   -0.378369    0.552510
     24          6           0       -2.488440    0.314668   -0.334814
     25          6           0       -1.733784   -0.325243   -1.316800
     26          6           0       -1.811857   -1.718226   -1.406536
     27          1           0       -2.682300   -3.523785   -0.607409
     28          1           0       -4.007431   -2.330246    1.126064
     29          1           0       -3.876832    0.166443    1.298011
     30          1           0       -1.110312    0.259662   -1.982071
     31          1           0       -1.231887   -2.236724   -2.164717
     32          7           0       -2.413976    1.789081   -0.230106
     33          8           0       -1.682265    2.376639   -1.023839
     34          8           0       -3.088730    2.329247    0.643715
 ---------------------------------------------------------------------

 SCF Done:  E(RHF) =  -669.534630607     A.U. after   15 cycles
 E2 =    -0.2094724287D+01 EUMP2 =    -0.67162935489465D+03

 The electronic state is 1-A.
 Alpha  occ. eigenvalues --  -20.60855 -20.60849 -15.85888 -11.31211 -11.27814
 Alpha  occ. eigenvalues --  -11.27791 -11.27576 -11.26855 -11.26829 -11.21591
 Alpha  occ. eigenvalues --  -11.21402 -11.21341 -11.21280 -11.21037 -11.20872
 Alpha  occ. eigenvalues --   -1.59918  -1.39473  -1.19428  -1.08827  -1.08355
 Alpha  occ. eigenvalues --   -1.04832  -1.03440  -0.95909  -0.95652  -0.86921
 Alpha  occ. eigenvalues --   -0.86232  -0.82492  -0.79500  -0.78164  -0.77534
 Alpha  occ. eigenvalues --   -0.72112  -0.71251  -0.70543  -0.65085  -0.65008
 Alpha  occ. eigenvalues --   -0.64832  -0.62183  -0.60876  -0.59299  -0.57528
 Alpha  occ. eigenvalues --   -0.55356  -0.55329  -0.53245  -0.52926  -0.52331
 Alpha  occ. eigenvalues --   -0.52307  -0.49773  -0.48873  -0.48871  -0.47829
 Alpha  occ. eigenvalues --   -0.46534  -0.45715  -0.45648  -0.44839  -0.43706
 Alpha  occ. eigenvalues --   -0.37346  -0.36393
 Alpha virt. eigenvalues --    0.04972   0.11104   0.16482   0.21205   0.22874
 Alpha virt. eigenvalues --    0.24216   0.26319   0.27191   0.27401   0.27971
 Alpha virt. eigenvalues --    0.28515   0.30553   0.31283   0.31719   0.31870

 Mulliken charges:
               1
     1  C   -0.298073
     2  C   -0.299296
     3  C   -0.475603
     4  H    0.149534
     5  H    0.152259
     6  H    0.149136
     7  H    0.151830
     8  H    0.156535
     9  H    0.155182
    10  H    0.159498
    11  C   -0.297724
    12  C   -0.302759
    13  C   -0.478791
    14  H    0.143923
    15  H    0.149416
    16  H    0.153282
    17  H    0.156641
    18  H    0.152857
    19  H    0.154091
    20  H    0.159921
    21  C   -0.171167
    22  C   -0.215611
    23  C   -0.171846
    24  C    0.163244
    25  C   -0.170040
    26  C   -0.219130
    27  H    0.226056
    28  H    0.223967
    29  H    0.275651
    30  H    0.275182
    31  H    0.223653
    32  N    0.488745
    33  O   -0.460400
    34  O   -0.460164
 Sum of Mulliken charges =  -0.00000

 Dipole moment (field-independent basis, Debye):
    X=             -0.3693    Y=             -5.1433    Z=             -0.3903  Tot=              5.1712
 Quadrupole moment (field-independent basis, Debye-Ang):
   XX=            -92.3850   YY=            -98.7475   ZZ=            -91.5115
   XY=             13.1397   XZ=             -1.0441   YZ=              2.1950

 Normal termination of Gaussian 16 at Thu May  6 16:59:11 2021.
