 Gaussian 16, Revision A.03,
 Gaussian 16:  EM64L-G16RevA.03 25-Dec-2016

 -------------
 #p 6-31g* mp2
 -------------

 ------------------------------------------------------
 Input file generated by CHIRIPA (05-May-2021 14:57:26)
 ------------------------------------------------------
 Symbolic Z-matrix:
 Charge =  0 Multiplicity = 1

                         Standard orientation:
 ---------------------------------------------------------------------
 Center     Atomic      Atomic             Coordinates (Angstroms)
 Number     Number       Type             X           Y           Z
 ---------------------------------------------------------------------
      1          6           0        5.472563   -1.701343    0.035651
      2          6           0        4.091764   -1.913718    0.105033
      3          6           0        3.203598   -0.835846    0.042569
      4          6           0        3.733105    0.446865   -0.089965
      5          6           0        5.103737    0.690797   -0.161757
      6          6           0        5.973260   -0.402054   -0.097288
      7          1           0        6.155270   -2.544477    0.084953
      8          1           0        3.700082   -2.921671    0.208283
      9          1           0        2.130138   -0.971726    0.093930
     10          1           0        5.464315    1.707077   -0.264600
     11          1           0        7.045135   -0.234130   -0.151417
     12          7           0        2.802712    1.595888   -0.157155
     13          8           0        3.294427    2.716247   -0.273986
     14          8           0        1.599372    1.354377   -0.091714
     15          6           0       -1.649630   -1.365862    0.445082
     16          6           0       -2.677869   -2.060701   -0.200244
     17          6           0       -3.921294   -1.456502   -0.408532
     18          6           0       -4.102692   -0.150339    0.043490
     19          6           0       -3.097896    0.568050    0.689705
     20          6           0       -1.862550   -0.056014    0.887216
     21          1           0       -0.686845   -1.842935    0.602700
     22          1           0       -2.515355   -3.078050   -0.544677
     23          1           0       -4.734674   -1.971389   -0.905244
     24          1           0       -3.289856    1.581095    1.021833
     25          1           0       -1.065824    0.486020    1.388687
     26          7           0       -5.414775    0.499815   -0.171311
     27          8           0       -5.549293    1.651475    0.236392
     28          8           0       -6.283822   -0.154565   -0.743310
 ---------------------------------------------------------------------

 SCF Done:  E(RHF) =  -868.338231729     A.U. after   16 cycles
 E2 =    -0.2599412469D+01 EUMP2 =    -0.87093764419811D+03

 The electronic state is 1-A.
 Alpha  occ. eigenvalues --  -20.61672 -20.61613 -20.60311 -20.60296 -15.86691
 Alpha  occ. eigenvalues --  -15.85353 -11.31996 -11.30672 -11.28641 -11.28496
 Alpha  occ. eigenvalues --  -11.28239 -11.27578 -11.27490 -11.27251 -11.27116
 Alpha  occ. eigenvalues --  -11.27040 -11.26348 -11.26090  -1.60707  -1.59381
 Alpha  occ. eigenvalues --   -1.40268  -1.38935  -1.20150  -1.18824  -1.09546
 Alpha  occ. eigenvalues --   -1.08254  -1.05552  -1.04196  -0.96399  -0.95103
 Alpha  occ. eigenvalues --   -0.86949  -0.85610  -0.83241  -0.81916  -0.78310
 Alpha  occ. eigenvalues --   -0.76947  -0.72917  -0.72020  -0.71576  -0.71259
 Alpha  occ. eigenvalues --   -0.70700  -0.70015  -0.65808  -0.65552  -0.64483
 Alpha  occ. eigenvalues --   -0.64180  -0.62916  -0.61526  -0.56030  -0.54815
 Alpha  occ. eigenvalues --   -0.53868  -0.53640  -0.52547  -0.52278  -0.49680
 Alpha  occ. eigenvalues --   -0.49645  -0.48333  -0.48328  -0.45685  -0.44351
 Alpha  occ. eigenvalues --   -0.38102  -0.37148  -0.36840  -0.35768
 Alpha virt. eigenvalues --    0.04227   0.05539   0.10511   0.11856   0.15733
 Alpha virt. eigenvalues --    0.16996   0.18994   0.21926   0.25128   0.27013
 Alpha virt. eigenvalues --    0.28079   0.29081   0.30767   0.31067   0.32929

 Mulliken charges:
               1
     1  C   -0.170021
     2  C   -0.218228
     3  C   -0.172081
     4  C    0.158890
     5  C   -0.169725
     6  C   -0.218129
     7  H    0.228140
     8  H    0.222565
     9  H    0.268588
    10  H    0.277925
    11  H    0.226419
    12  N    0.490280
    13  O   -0.454674
    14  O   -0.469146
    15  C   -0.171979
    16  C   -0.218093
    17  C   -0.172467
    18  C    0.158982
    19  C   -0.171758
    20  C   -0.213142
    21  H    0.214562
    22  H    0.218864
    23  H    0.273428
    24  H    0.277410
    25  H    0.237536
    26  N    0.487991
    27  O   -0.459610
    28  O   -0.462528
 Sum of Mulliken charges =  -0.00000

 Dipole moment (field-independent basis, Debye):
    X=              8.2786    Y=             -6.1037    Z=              1.0181  Tot=             10.3358
 Quadrupole moment (field-independent basis, Debye-Ang):
   XX=           -114.4555   YY=           -103.0100   ZZ=           -105.3298
   XY=             -1.0105   XZ=             -2.0360   YZ=              2.1545

 Normal termination of Gaussian 16 at Thu May  6 05:11:54 2021.
