 Gaussian 16, Revision A.03,
 Gaussian 16:  EM64L-G16RevA.03 25-Dec-2016

 -------------
 #p 6-31g* mp2
 -------------

 ------------------------------------------------------
 Input file generated by CHIRIPA (05-May-2021 14:57:24)
 ------------------------------------------------------
 Symbolic Z-matrix:
 Charge =  0 Multiplicity = 1

                         Standard orientation:
 ---------------------------------------------------------------------
 Center     Atomic      Atomic             Coordinates (Angstroms)
 Number     Number       Type             X           Y           Z
 ---------------------------------------------------------------------
      1          6           0       -0.940136   -1.327894    1.061262
      2          6           0       -1.299076   -0.029792    1.438907
      3          6           0       -2.501131    0.531291    0.997548
      4          6           0       -3.324099   -0.237414    0.175900
      5          6           0       -2.994287   -1.533428   -0.217626
      6          6           0       -1.787394   -2.074253    0.235656
      7          1           0       -0.004472   -1.755888    1.408751
      8          1           0       -0.643043    0.552160    2.079997
      9          1           0       -2.803547    1.533871    1.274671
     10          1           0       -3.668890   -2.089095   -0.857596
     11          1           0       -1.511208   -3.082623   -0.059225
     12          7           0       -4.599222    0.345857   -0.297657
     13          8           0       -5.306835   -0.352017   -1.020771
     14          8           0       -4.866905    1.489854    0.063248
     15          6           0        4.976442   -1.343232    0.038359
     16          6           0        5.137116   -0.031539    0.496799
     17          6           0        4.111845    0.905925    0.340182
     18          6           0        2.933884    0.495648   -0.282208
     19          6           0        2.743613   -0.803830   -0.749586
     20          6           0        3.782309   -1.724519   -0.582276
     21          1           0        5.778110   -2.064962    0.164175
     22          1           0        6.063406    0.267383    0.979165
     23          1           0        4.209598    1.927917    0.685718
     24          1           0        1.808759   -1.072194   -1.226499
     25          1           0        3.654734   -2.742513   -0.939289
     26          7           0        1.841370    1.479221   -0.453671
     27          8           0        0.813279    1.092761   -1.005317
     28          8           0        2.033835    2.617980   -0.033170
 ---------------------------------------------------------------------

 SCF Done:  E(RHF) =  -868.337220908     A.U. after   16 cycles
 E2 =    -0.2601409532D+01 EUMP2 =    -0.87093863043923D+03

 The electronic state is 1-A.
 Alpha  occ. eigenvalues --  -20.61482 -20.61408 -20.60109 -20.60090 -15.86468
 Alpha  occ. eigenvalues --  -15.85154 -11.31930 -11.30462 -11.28501 -11.28470
 Alpha  occ. eigenvalues --  -11.28215 -11.27527 -11.27480 -11.27090 -11.26961
 Alpha  occ. eigenvalues --  -11.26876 -11.26189 -11.26039  -1.60523  -1.59175
 Alpha  occ. eigenvalues --   -1.40068  -1.38731  -1.20101  -1.18637  -1.09474
 Alpha  occ. eigenvalues --   -1.08082  -1.05506  -1.04046  -0.96295  -0.94922
 Alpha  occ. eigenvalues --   -0.86891  -0.85487  -0.83117  -0.81759  -0.78163
 Alpha  occ. eigenvalues --   -0.76789  -0.72690  -0.71878  -0.71384  -0.71177
 Alpha  occ. eigenvalues --   -0.70487  -0.69842  -0.65738  -0.65488  -0.64333
 Alpha  occ. eigenvalues --   -0.64117  -0.62840  -0.61420  -0.55975  -0.54678
 Alpha  occ. eigenvalues --   -0.53829  -0.53579  -0.52350  -0.52193  -0.49471
 Alpha  occ. eigenvalues --   -0.49447  -0.48141  -0.48131  -0.45451  -0.44150
 Alpha  occ. eigenvalues --   -0.38082  -0.37143  -0.36593  -0.35550
 Alpha virt. eigenvalues --    0.04336   0.05743   0.10501   0.12009   0.15838
 Alpha virt. eigenvalues --    0.17223   0.20702   0.21883   0.26594   0.27577
 Alpha virt. eigenvalues --    0.27831   0.28767   0.30324   0.31340   0.31822

 Mulliken charges:
               1
     1  C   -0.171258
     2  C   -0.205454
     3  C   -0.163628
     4  C    0.159548
     5  C   -0.170506
     6  C   -0.220286
     7  H    0.217702
     8  H    0.221995
     9  H    0.277114
    10  H    0.272683
    11  H    0.215997
    12  N    0.488198
    13  O   -0.463493
    14  O   -0.459531
    15  C   -0.170754
    16  C   -0.218301
    17  C   -0.171548
    18  C    0.155851
    19  C   -0.176818
    20  C   -0.219881
    21  H    0.227753
    22  H    0.225919
    23  H    0.277264
    24  H    0.277079
    25  H    0.223866
    26  N    0.484817
    27  O   -0.453671
    28  O   -0.460656
 Sum of Mulliken charges =  -0.00000

 Dipole moment (field-independent basis, Debye):
    X=              8.4802    Y=             -5.2617    Z=              2.2432  Tot=             10.2289
 Quadrupole moment (field-independent basis, Debye-Ang):
   XX=           -111.1452   YY=           -102.1640   ZZ=           -103.6980
   XY=              0.1565   XZ=             -2.0874   YZ=              4.8915

 Normal termination of Gaussian 16 at Thu May  6 00:20:34 2021.
