 Gaussian 16, Revision A.03,
 Gaussian 16:  EM64L-G16RevA.03 25-Dec-2016

 -------------
 #p 6-31g* mp2
 -------------

 ------------------------------------------------------
 Input file generated by CHIRIPA (05-May-2021 14:51:14)
 ------------------------------------------------------
 Symbolic Z-matrix:
 Charge =  0 Multiplicity = 1

                         Standard orientation:
 ---------------------------------------------------------------------
 Center     Atomic      Atomic             Coordinates (Angstroms)
 Number     Number       Type             X           Y           Z
 ---------------------------------------------------------------------
      1          6           0       -4.712527   -0.342673    0.367917
      2          6           0       -5.826246    0.109679   -0.577066
      3          6           0       -7.170660    0.278007    0.131461
      4          1           0       -5.002369   -1.292430    0.837913
      5          1           0       -4.610602    0.389906    1.180526
      6          1           0       -5.925105   -0.622825   -1.388410
      7          1           0       -5.533634    1.058373   -1.045012
      8          1           0       -7.094932    1.023894    0.929282
      9          1           0       -7.488627   -0.666856    0.583933
     10          1           0       -7.952487    0.601829   -0.562619
     11          6           0       -3.362414   -0.515374   -0.325696
     12          6           0       -2.248695   -0.967726    0.619286
     13          6           0       -0.904280   -1.136054   -0.089240
     14          1           0       -3.464339   -1.247953   -1.138306
     15          1           0       -3.072572    0.434384   -0.795693
     16          1           0       -2.541306   -1.916420    1.087233
     17          1           0       -2.149836   -0.235222    1.430631
     18          1           0       -0.586314   -0.191190   -0.541712
     19          1           0       -0.980009   -1.881941   -0.887061
     20          1           0       -0.122454   -1.459875    0.604840
     21          6           0        3.666261    1.058337    0.201601
     22          6           0        2.238510    1.143452   -0.339018
     23          6           0        1.508811    2.407974    0.115203
     24          1           0        3.638580    1.093134    1.299311
     25          1           0        4.228047    1.944355   -0.125144
     26          1           0        1.679980    0.256858   -0.012505
     27          1           0        2.269579    1.108255   -1.435563
     28          1           0        2.041199    3.302655   -0.223487
     29          1           0        1.448251    2.446420    1.207657
     30          1           0        0.490034    2.448436   -0.282688
     31          6           0        4.408681   -0.200289   -0.243821
     32          6           0        5.836431   -0.285405    0.296797
     33          6           0        6.566130   -1.549928   -0.157423
     34          1           0        3.846894   -1.086308    0.082924
     35          1           0        4.436361   -0.235087   -1.341531
     36          1           0        5.805362   -0.250208    1.393343
     37          1           0        6.394960    0.601190   -0.029716
     38          1           0        6.626690   -1.588373   -1.249878
     39          1           0        6.033742   -2.444608    0.181266
     40          1           0        7.584907   -1.590389    0.240467
 ---------------------------------------------------------------------

 SCF Done:  E(RHF) =  -470.732489582     A.U. after   11 cycles
 E2 =    -0.1583108407D+01 EUMP2 =    -0.47231559798841D+03

 The electronic state is 1-A.
 Alpha  occ. eigenvalues --  -11.21613 -11.21609 -11.21567 -11.21443 -11.21420
 Alpha  occ. eigenvalues --  -11.21360 -11.21348 -11.21285 -11.21076 -11.21069
 Alpha  occ. eigenvalues --  -11.21059 -11.21044  -1.08447  -1.08370  -1.03571
 Alpha  occ. eigenvalues --   -1.03458  -0.96029  -0.95916  -0.87034  -0.86948
 Alpha  occ. eigenvalues --   -0.79707  -0.79462  -0.78276  -0.78159  -0.65113
 Alpha  occ. eigenvalues --   -0.64981  -0.61094  -0.60779  -0.59390  -0.59292
 Alpha  occ. eigenvalues --   -0.57662  -0.57523  -0.55357  -0.55131  -0.52738
 Alpha  occ. eigenvalues --   -0.52635  -0.52425  -0.52344  -0.50012  -0.49820
 Alpha  occ. eigenvalues --   -0.47950  -0.47830  -0.46777  -0.46434  -0.45843
 Alpha  occ. eigenvalues --   -0.45741  -0.45700  -0.45530  -0.43787  -0.43706
 Alpha virt. eigenvalues --    0.21629   0.23018   0.23544   0.25186   0.25895
 Alpha virt. eigenvalues --    0.26429   0.27038   0.27239   0.27836   0.29176
 Alpha virt. eigenvalues --    0.30287   0.31095   0.31683   0.31812   0.32599

 Mulliken charges:
               1
     1  C   -0.298338
     2  C   -0.299668
     3  C   -0.475720
     4  H    0.149690
     5  H    0.149645
     6  H    0.151934
     7  H    0.151975
     8  H    0.155233
     9  H    0.155175
    10  H    0.160291
    11  C   -0.298610
    12  C   -0.299690
    13  C   -0.480868
    14  H    0.149624
    15  H    0.149528
    16  H    0.151806
    17  H    0.152206
    18  H    0.162497
    19  H    0.155384
    20  H    0.159445
    21  C   -0.297782
    22  C   -0.307625
    23  C   -0.476583
    24  H    0.148990
    25  H    0.148856
    26  H    0.162874
    27  H    0.150892
    28  H    0.155360
    29  H    0.154975
    30  H    0.158951
    31  C   -0.298118
    32  C   -0.299582
    33  C   -0.475659
    34  H    0.149268
    35  H    0.149656
    36  H    0.151754
    37  H    0.151871
    38  H    0.155154
    39  H    0.155104
    40  H    0.160104
 Sum of Mulliken charges =  -0.00000

 Dipole moment (field-independent basis, Debye):
    X=             -0.0339    Y=             -0.0255    Z=             -0.0057  Tot=              0.0428
 Quadrupole moment (field-independent basis, Debye-Ang):
   XX=            -86.3196   YY=            -84.4330   ZZ=            -84.2668
   XY=              1.0842   XZ=              0.3012   YZ=             -0.4779

 Normal termination of Gaussian 16 at Thu May  6 00:50:48 2021.
