 Gaussian 16, Revision A.03,
 Gaussian 16:  EM64L-G16RevA.03 25-Dec-2016

 -------------
 #p 6-31g* mp2
 -------------

 ------------------------------------------------------
 Input file generated by CHIRIPA (05-May-2021 14:57:24)
 ------------------------------------------------------
 Symbolic Z-matrix:
 Charge =  0 Multiplicity = 1

                         Standard orientation:
 ---------------------------------------------------------------------
 Center     Atomic      Atomic             Coordinates (Angstroms)
 Number     Number       Type             X           Y           Z
 ---------------------------------------------------------------------
      1          6           0        4.644175   -2.115366    0.122776
      2          6           0        4.442742   -1.444905   -1.088185
      3          6           0        3.749022   -0.231556   -1.121126
      4          6           0        3.268250    0.284922    0.081121
      5          6           0        3.452815   -0.359275    1.303511
      6          6           0        4.149441   -1.571370    1.312661
      7          1           0        5.184202   -3.057438    0.139125
      8          1           0        4.825836   -1.865019   -2.013814
      9          1           0        3.578848    0.308494   -2.044601
     10          1           0        3.059093    0.084386    2.209914
     11          1           0        4.304385   -2.089858    2.254579
     12          7           0        2.532302    1.568777    0.058841
     13          8           0        2.118732    2.002798    1.131792
     14          8           0        2.382970    2.116731   -1.031151
     15          6           0       -2.297669    2.199097   -0.183906
     16          6           0       -3.568390    2.057188    0.383239
     17          6           0       -4.182971    0.802913    0.443503
     18          6           0       -3.495101   -0.293017   -0.075211
     19          6           0       -2.228207   -0.183869   -0.646485
     20          6           0       -1.632805    1.080088   -0.696054
     21          1           0       -1.827697    3.177209   -0.226566
     22          1           0       -4.087085    2.924471    0.781762
     23          1           0       -5.165974    0.664605    0.877084
     24          1           0       -1.735947   -1.066904   -1.035520
     25          1           0       -0.645869    1.187315   -1.137080
     26          7           0       -4.135579   -1.625987   -0.017074
     27          8           0       -3.508626   -2.575896   -0.481012
     28          8           0       -5.252409   -1.695619    0.491332
 ---------------------------------------------------------------------

 SCF Done:  E(RHF) =  -868.340197004     A.U. after   16 cycles
 E2 =    -0.2598505291D+01 EUMP2 =    -0.87093870229536D+03

 The electronic state is 1-A.
 Alpha  occ. eigenvalues --  -20.61756 -20.61719 -20.60326 -20.60318 -15.86749
 Alpha  occ. eigenvalues --  -15.85370 -11.31808 -11.30532 -11.28352 -11.28319
 Alpha  occ. eigenvalues --  -11.28003 -11.27277 -11.27252 -11.27091 -11.27065
 Alpha  occ. eigenvalues --  -11.26645 -11.26028 -11.25899  -1.60812  -1.59405
 Alpha  occ. eigenvalues --   -1.40366  -1.38965  -1.19951  -1.18664  -1.09401
 Alpha  occ. eigenvalues --   -1.08065  -1.05300  -1.04041  -0.96284  -0.94945
 Alpha  occ. eigenvalues --   -0.86712  -0.85423  -0.83122  -0.81796  -0.78211
 Alpha  occ. eigenvalues --   -0.76896  -0.72969  -0.72128  -0.71592  -0.71042
 Alpha  occ. eigenvalues --   -0.70726  -0.69710  -0.65599  -0.65292  -0.64300
 Alpha  occ. eigenvalues --   -0.64000  -0.62649  -0.61394  -0.55801  -0.54446
 Alpha  occ. eigenvalues --   -0.53652  -0.53382  -0.52375  -0.52109  -0.49753
 Alpha  occ. eigenvalues --   -0.49712  -0.48362  -0.48328  -0.45822  -0.44417
 Alpha  occ. eigenvalues --   -0.37908  -0.36890  -0.36580  -0.35656
 Alpha virt. eigenvalues --    0.04268   0.05633   0.10768   0.12013   0.15821
 Alpha virt. eigenvalues --    0.17203   0.20959   0.22271   0.26896   0.27657
 Alpha virt. eigenvalues --    0.28141   0.29178   0.30545   0.31741   0.32166

 Mulliken charges:
               1
     1  C   -0.169244
     2  C   -0.218210
     3  C   -0.172382
     4  C    0.155997
     5  C   -0.170003
     6  C   -0.218089
     7  H    0.228816
     8  H    0.225800
     9  H    0.274836
    10  H    0.276884
    11  H    0.226551
    12  N    0.486618
    13  O   -0.457414
    14  O   -0.466801
    15  C   -0.168675
    16  C   -0.219389
    17  C   -0.172323
    18  C    0.157833
    19  C   -0.173493
    20  C   -0.222837
    21  H    0.234263
    22  H    0.221957
    23  H    0.272940
    24  H    0.270995
    25  H    0.233267
    26  N    0.488254
    27  O   -0.463889
    28  O   -0.462263
 Sum of Mulliken charges =  -0.00000

 Dipole moment (field-independent basis, Debye):
    X=              5.2403    Y=              0.2355    Z=             -0.0416  Tot=              5.2458
 Quadrupole moment (field-independent basis, Debye-Ang):
   XX=           -101.4249   YY=           -110.1576   ZZ=            -99.4616
   XY=            -34.2551   XZ=             -1.5297   YZ=              0.0848

 Normal termination of Gaussian 16 at Thu May  6 16:19:51 2021.
