 Gaussian 16, Revision A.03,
 Gaussian 16:  EM64L-G16RevA.03 25-Dec-2016

 -------------
 #p 6-31g* mp2
 -------------

 ------------------------------------------------------
 Input file generated by CHIRIPA (05-May-2021 14:55:23)
 ------------------------------------------------------
 Symbolic Z-matrix:
 Charge =  0 Multiplicity = 1

                         Standard orientation:
 ---------------------------------------------------------------------
 Center     Atomic      Atomic             Coordinates (Angstroms)
 Number     Number       Type             X           Y           Z
 ---------------------------------------------------------------------
      1          6           0       -0.480075   -1.137400    1.631266
      2          6           0       -1.175649   -1.961922    0.740838
      3          6           0       -2.222310   -1.449438   -0.031437
      4          6           0       -2.548306   -0.101755    0.112665
      5          6           0       -1.874195    0.745136    0.991096
      6          6           0       -0.830950    0.211120    1.753338
      7          1           0        0.331670   -1.543873    2.227291
      8          1           0       -0.905336   -3.009581    0.643956
      9          1           0       -2.777483   -2.065343   -0.728475
     10          1           0       -2.166646    1.785480    1.065765
     11          1           0       -0.292507    0.853804    2.444049
     12          7           0       -3.654551    0.452187   -0.699597
     13          8           0       -3.922344    1.642887   -0.554148
     14          8           0       -4.232886   -0.314824   -1.466318
     15          6           0        2.837027    0.865871    0.089299
     16          6           0        3.108872    2.179097   -0.645224
     17          6           0        2.720716    3.407967    0.177579
     18          1           0        1.771084    0.812710    0.349845
     19          1           0        3.391233    0.863002    1.038109
     20          1           0        2.555410    2.178901   -1.593010
     21          1           0        4.174254    2.229051   -0.904222
     22          1           0        3.282340    3.435722    1.116944
     23          1           0        1.654299    3.385287    0.424242
     24          1           0        2.923442    4.335765   -0.366438
     25          6           0        3.219889   -0.371661   -0.720430
     26          6           0        2.948045   -1.684887    0.014094
     27          6           0        3.336201   -2.913758   -0.808710
     28          1           0        2.665682   -0.368792   -1.669241
     29          1           0        4.285832   -0.318500   -0.980976
     30          1           0        1.882661   -1.734841    0.273090
     31          1           0        3.501505   -1.684691    0.961878
     32          1           0        4.402617   -2.891076   -1.055374
     33          1           0        2.774575   -2.941511   -1.748075
     34          1           0        3.133473   -3.841555   -0.264693
 ---------------------------------------------------------------------

 SCF Done:  E(RHF) =  -669.534604928     A.U. after   15 cycles
 E2 =    -0.2094166176D+01 EUMP2 =    -0.67162877110436D+03

 The electronic state is 1-A.
 Alpha  occ. eigenvalues --  -20.60847 -20.60842 -15.85903 -11.31300 -11.27891
 Alpha  occ. eigenvalues --  -11.27883 -11.27596 -11.26883 -11.26870 -11.22229
 Alpha  occ. eigenvalues --  -11.21983 -11.21884 -11.21803 -11.21700 -11.21502
 Alpha  occ. eigenvalues --   -1.59923  -1.39475  -1.19494  -1.08988  -1.08832
 Alpha  occ. eigenvalues --   -1.04898  -1.04055  -0.96494  -0.95706  -0.87515
 Alpha  occ. eigenvalues --   -0.86287  -0.82533  -0.80140  -0.78785  -0.77565
 Alpha  occ. eigenvalues --   -0.72120  -0.71248  -0.70594  -0.65595  -0.65139
 Alpha  occ. eigenvalues --   -0.64861  -0.62241  -0.61448  -0.59882  -0.58120
 Alpha  occ. eigenvalues --   -0.55782  -0.55385  -0.53346  -0.53125  -0.52977
 Alpha  occ. eigenvalues --   -0.52921  -0.50438  -0.48883  -0.48873  -0.48452
 Alpha  occ. eigenvalues --   -0.47172  -0.46305  -0.46206  -0.44874  -0.44289
 Alpha  occ. eigenvalues --   -0.37331  -0.36475
 Alpha virt. eigenvalues --    0.04933   0.10983   0.16342   0.20710   0.22768
 Alpha virt. eigenvalues --    0.23451   0.26191   0.26628   0.27301   0.27456
 Alpha virt. eigenvalues --    0.28970   0.30468   0.31026   0.31403   0.32110

 Mulliken charges:
               1
     1  C   -0.169601
     2  C   -0.218902
     3  C   -0.170640
     4  C    0.158393
     5  C   -0.172381
     6  C   -0.219955
     7  H    0.230075
     8  H    0.224933
     9  H    0.276247
    10  H    0.276307
    11  H    0.226078
    12  N    0.488104
    13  O   -0.460088
    14  O   -0.460132
    15  C   -0.307057
    16  C   -0.299547
    17  C   -0.475570
    18  H    0.154822
    19  H    0.145067
    20  H    0.155297
    21  H    0.152944
    22  H    0.153580
    23  H    0.151782
    24  H    0.163666
    25  C   -0.296369
    26  C   -0.308751
    27  C   -0.475505
    28  H    0.152775
    29  H    0.150968
    30  H    0.153263
    31  H    0.148070
    32  H    0.158188
    33  H    0.157429
    34  H    0.156509
 Sum of Mulliken charges =  -0.00000

 Dipole moment (field-independent basis, Debye):
    X=              3.8273    Y=             -1.9233    Z=              2.8100  Tot=              5.1228
 Quadrupole moment (field-independent basis, Debye-Ang):
   XX=           -114.5958   YY=            -91.4387   ZZ=            -93.7719
   XY=              5.7677   XZ=             -6.3869   YZ=              1.1303

 Normal termination of Gaussian 16 at Thu May  6 04:44:19 2021.
