 Gaussian 16, Revision A.03,
 Gaussian 16:  EM64L-G16RevA.03 25-Dec-2016

 -------------
 #p 6-31g* mp2
 -------------

 ------------------------------------------------------
 Input file generated by CHIRIPA (05-May-2021 14:57:21)
 ------------------------------------------------------
 Symbolic Z-matrix:
 Charge =  0 Multiplicity = 1

                         Standard orientation:
 ---------------------------------------------------------------------
 Center     Atomic      Atomic             Coordinates (Angstroms)
 Number     Number       Type             X           Y           Z
 ---------------------------------------------------------------------
      1          6           0       -1.671109    2.008049   -1.426053
      2          6           0       -2.844164    2.185791   -0.685195
      3          6           0       -3.406189    1.118430    0.021499
      4          6           0       -2.765926   -0.118569   -0.034954
      5          6           0       -1.596258   -0.327229   -0.764082
      6          6           0       -1.051991    0.754317   -1.463067
      7          1           0       -1.241412    2.842711   -1.972036
      8          1           0       -3.327145    3.158334   -0.654639
      9          1           0       -4.313512    1.228174    0.602995
     10          1           0       -1.137623   -1.308525   -0.775464
     11          1           0       -0.140896    0.613361   -2.037594
     12          7           0       -3.351517   -1.256045    0.709111
     13          8           0       -2.768174   -2.335866    0.643269
     14          8           0       -4.382757   -1.046240    1.344061
     15          6           0        2.637726    1.803721    1.848208
     16          6           0        2.803204    0.480956    2.271797
     17          6           0        2.822315   -0.564596    1.343893
     18          6           0        2.672477   -0.249939   -0.005858
     19          6           0        2.505836    1.057779   -0.459065
     20          6           0        2.489831    2.087411    0.486530
     21          1           0        2.624087    2.609748    2.575897
     22          1           0        2.918292    0.257679    3.328655
     23          1           0        2.948859   -1.597625    1.644315
     24          1           0        2.393532    1.249157   -1.519338
     25          1           0        2.361154    3.113747    0.154681
     26          7           0        2.691064   -1.348390   -0.997552
     27          8           0        2.557012   -1.044840   -2.180990
     28          8           0        2.839333   -2.492109   -0.572627
 ---------------------------------------------------------------------

 SCF Done:  E(RHF) =  -868.337762083     A.U. after   16 cycles
 E2 =    -0.2601588198D+01 EUMP2 =    -0.87093935028107D+03

 The electronic state is 1-A.
 Alpha  occ. eigenvalues --  -20.61557 -20.61498 -20.60681 -20.60662 -15.86548
 Alpha  occ. eigenvalues --  -15.85725 -11.31792 -11.31120 -11.28444 -11.28277
 Alpha  occ. eigenvalues --  -11.28030 -11.27707 -11.27614 -11.27476 -11.27372
 Alpha  occ. eigenvalues --  -11.27252 -11.26771 -11.26632  -1.60593  -1.59751
 Alpha  occ. eigenvalues --   -1.40151  -1.39301  -1.19952  -1.19292  -1.09361
 Alpha  occ. eigenvalues --   -1.08701  -1.05343  -1.04684  -0.96220  -0.95528
 Alpha  occ. eigenvalues --   -0.86756  -0.86092  -0.83054  -0.82346  -0.78142
 Alpha  occ. eigenvalues --   -0.77374  -0.72758  -0.71949  -0.71918  -0.71077
 Alpha  occ. eigenvalues --   -0.71065  -0.70431  -0.65606  -0.65371  -0.64945
 Alpha  occ. eigenvalues --   -0.64679  -0.62720  -0.61989  -0.55826  -0.55243
 Alpha  occ. eigenvalues --   -0.53745  -0.53447  -0.52964  -0.52733  -0.49543
 Alpha  occ. eigenvalues --   -0.49499  -0.48708  -0.48693  -0.45558  -0.44700
 Alpha  occ. eigenvalues --   -0.37935  -0.37448  -0.36902  -0.36106
 Alpha virt. eigenvalues --    0.04352   0.05127   0.10505   0.11512   0.15907
 Alpha virt. eigenvalues --    0.16626   0.20116   0.21813   0.25755   0.27089
 Alpha virt. eigenvalues --    0.28043   0.28811   0.29931   0.31235   0.31989

 Mulliken charges:
               1
     1  C   -0.173460
     2  C   -0.218613
     3  C   -0.172179
     4  C    0.158516
     5  C   -0.173830
     6  C   -0.222405
     7  H    0.220958
     8  H    0.221484
     9  H    0.274670
    10  H    0.280884
    11  H    0.232264
    12  N    0.487560
    13  O   -0.457724
    14  O   -0.462034
    15  C   -0.169362
    16  C   -0.217395
    17  C   -0.168939
    18  C    0.157698
    19  C   -0.173580
    20  C   -0.216162
    21  H    0.227767
    22  H    0.227382
    23  H    0.279539
    24  H    0.268571
    25  H    0.221435
    26  N    0.486605
    27  O   -0.467632
    28  O   -0.452019
 Sum of Mulliken charges =  -0.00000

 Dipole moment (field-independent basis, Debye):
    X=              2.1838    Y=              7.6971    Z=              1.1056  Tot=              8.0769
 Quadrupole moment (field-independent basis, Debye-Ang):
   XX=           -114.8862   YY=           -104.4095   ZZ=           -102.2795
   XY=             -3.9975   XZ=             16.4201   YZ=             -2.2473

 Normal termination of Gaussian 16 at Thu May  6 08:03:07 2021.
