 Gaussian 16, Revision A.03,
 Gaussian 16:  EM64L-G16RevA.03 25-Dec-2016

 -------------
 #p 6-31g* mp2
 -------------

 ------------------------------------------------------
 Input file generated by CHIRIPA (05-May-2021 14:53:12)
 ------------------------------------------------------
 Symbolic Z-matrix:
 Charge =  0 Multiplicity = 1

                         Standard orientation:
 ---------------------------------------------------------------------
 Center     Atomic      Atomic             Coordinates (Angstroms)
 Number     Number       Type             X           Y           Z
 ---------------------------------------------------------------------
      1          6           0        4.308057   -0.478078   -0.182832
      2          6           0        4.940066    0.912797   -0.246200
      3          6           0        6.419685    0.872877   -0.629511
      4          1           0        4.859734   -1.091844    0.542350
      5          1           0        4.421777   -0.969682   -1.158941
      6          1           0        4.823964    1.402167    0.729327
      7          1           0        4.386701    1.523383   -0.971175
      8          1           0        6.550654    0.408485   -1.612256
      9          1           0        6.990401    0.286580    0.097908
     10          1           0        6.851453    1.877808   -0.668901
     11          6           0        2.829110   -0.454643    0.199131
     12          6           0        2.197101   -1.845519    0.262499
     13          6           0        0.717482   -1.805599    0.645810
     14          1           0        2.715390    0.036960    1.175240
     15          1           0        2.277433    0.159122   -0.526051
     16          1           0        2.750466   -2.456104    0.987474
     17          1           0        2.313203   -2.334888   -0.713028
     18          1           0        0.146766   -1.219302   -0.081609
     19          1           0        0.586513   -1.341206    1.628555
     20          1           0        0.285714   -2.810529    0.685200
     21          6           0       -2.030940    2.709574    0.534696
     22          6           0       -2.738350    2.457063   -0.645274
     23          6           0       -3.162730    1.161552   -0.955275
     24          6           0       -2.861141    0.137617   -0.058675
     25          6           0       -2.158104    0.357368    1.124853
     26          6           0       -1.743581    1.660769    1.414442
     27          1           0       -1.705100    3.719023    0.767584
     28          1           0       -2.962931    3.269635   -1.330355
     29          1           0       -3.711948    0.937978   -1.861802
     30          1           0       -1.949128   -0.473125    1.788200
     31          1           0       -1.194361    1.853929    2.331553
     32          7           0       -3.305196   -1.238060   -0.376054
     33          8           0       -3.026918   -2.122858    0.430378
     34          8           0       -3.923114   -1.405470   -1.425238
 ---------------------------------------------------------------------

 SCF Done:  E(RHF) =  -669.535076972     A.U. after   15 cycles
 E2 =    -0.2092449739D+01 EUMP2 =    -0.67162752671151D+03

 The electronic state is 1-A.
 Alpha  occ. eigenvalues --  -20.60762 -20.60743 -15.85795 -11.31132 -11.27738
 Alpha  occ. eigenvalues --  -11.27693 -11.27479 -11.26728 -11.26708 -11.21764
 Alpha  occ. eigenvalues --  -11.21541 -11.21489 -11.21433 -11.21208 -11.20914
 Alpha  occ. eigenvalues --   -1.59821  -1.39374  -1.19329  -1.08724  -1.08500
 Alpha  occ. eigenvalues --   -1.04731  -1.03567  -0.96023  -0.95554  -0.87047
 Alpha  occ. eigenvalues --   -0.86115  -0.82392  -0.79652  -0.78330  -0.77425
 Alpha  occ. eigenvalues --   -0.72017  -0.71143  -0.70439  -0.65137  -0.64977
 Alpha  occ. eigenvalues --   -0.64730  -0.62084  -0.60971  -0.59364  -0.57634
 Alpha  occ. eigenvalues --   -0.55329  -0.55235  -0.53187  -0.52867  -0.52639
 Alpha  occ. eigenvalues --   -0.52300  -0.49980  -0.48776  -0.48769  -0.47948
 Alpha  occ. eigenvalues --   -0.46691  -0.45867  -0.45796  -0.44771  -0.43783
 Alpha  occ. eigenvalues --   -0.37303  -0.36285
 Alpha virt. eigenvalues --    0.05073   0.11302   0.16552   0.21161   0.22786
 Alpha virt. eigenvalues --    0.24212   0.25988   0.26814   0.27502   0.27846
 Alpha virt. eigenvalues --    0.28724   0.30733   0.31331   0.31704   0.32185

 Mulliken charges:
               1
     1  C   -0.298197
     2  C   -0.299267
     3  C   -0.475660
     4  H    0.150077
     5  H    0.150860
     6  H    0.149950
     7  H    0.150886
     8  H    0.156039
     9  H    0.155648
    10  H    0.159580
    11  C   -0.297445
    12  C   -0.301405
    13  C   -0.475066
    14  H    0.144831
    15  H    0.149215
    16  H    0.151761
    17  H    0.154365
    18  H    0.154489
    19  H    0.142272
    20  H    0.174262
    21  C   -0.170438
    22  C   -0.219231
    23  C   -0.171397
    24  C    0.155999
    25  C   -0.166594
    26  C   -0.219263
    27  H    0.225508
    28  H    0.223111
    29  H    0.275390
    30  H    0.278392
    31  H    0.223074
    32  N    0.488901
    33  O   -0.459824
    34  O   -0.460820
 Sum of Mulliken charges =  -0.00000

 Dipole moment (field-independent basis, Debye):
    X=              1.5312    Y=              4.7432    Z=              1.0909  Tot=              5.1022
 Quadrupole moment (field-independent basis, Debye-Ang):
   XX=           -104.8974   YY=            -93.1823   ZZ=            -90.6769
   XY=            -14.7558   XZ=             -0.9007   YZ=             -1.7553

 Normal termination of Gaussian 16 at Thu May  6 15:20:53 2021.
