 Gaussian 16, Revision A.03,
 Gaussian 16:  EM64L-G16RevA.03 25-Dec-2016

 -------------
 #p 6-31g* mp2
 -------------

 ------------------------------------------------------
 Input file generated by CHIRIPA (05-May-2021 14:53:13)
 ------------------------------------------------------
 Symbolic Z-matrix:
 Charge =  0 Multiplicity = 1

                         Standard orientation:
 ---------------------------------------------------------------------
 Center     Atomic      Atomic             Coordinates (Angstroms)
 Number     Number       Type             X           Y           Z
 ---------------------------------------------------------------------
      1          6           0        2.778748    0.652841   -0.401626
      2          6           0        2.777256    2.167214   -0.612949
      3          6           0        1.590649    2.646142   -1.449839
      4          1           0        2.792295    0.152560   -1.379624
      5          1           0        1.840495    0.357009    0.087823
      6          1           0        3.715832    2.460276   -1.100603
      7          1           0        2.763905    2.663949    0.365669
      8          1           0        0.645447    2.382194   -0.964529
      9          1           0        1.602783    2.177363   -2.439132
     10          1           0        1.609275    3.731628   -1.588526
     11          6           0        3.958905    0.158812    0.433174
     12          6           0        3.960397   -1.355561    0.644497
     13          6           0        5.147004   -1.834489    1.481387
     14          1           0        4.897158    0.454645   -0.056275
     15          1           0        3.945358    0.659094    1.411172
     16          1           0        3.973748   -1.852296   -0.334120
     17          1           0        3.021821   -1.648623    1.132151
     18          1           0        5.134870   -1.365710    2.470680
     19          1           0        6.092206   -1.570540    0.996077
     20          1           0        5.128378   -2.919974    1.620075
     21          6           0       -4.010310    1.116876    1.540013
     22          6           0       -4.572105   -0.023773    0.957064
     23          6           0       -3.817702   -0.825652    0.095429
     24          6           0       -2.498635   -0.455679   -0.162397
     25          6           0       -1.910549    0.674713    0.402986
     26          6           0       -2.683664    1.461870    1.261604
     27          1           0       -4.603617    1.734077    2.208179
     28          1           0       -5.602144   -0.294127    1.171471
     29          1           0       -4.227603   -1.714056   -0.369477
     30          1           0       -0.881119    0.918636    0.170194
     31          1           0       -2.244745    2.347152    1.712903
     32          7           0       -1.690078   -1.296800   -1.072975
     33          8           0       -0.530204   -0.949258   -1.284027
     34          8           0       -2.231516   -2.287686   -1.558390
 ---------------------------------------------------------------------

 SCF Done:  E(RHF) =  -669.535225288     A.U. after   15 cycles
 E2 =    -0.2092354728D+01 EUMP2 =    -0.67162758001579D+03

 The electronic state is 1-A.
 Alpha  occ. eigenvalues --  -20.60816 -20.60810 -15.85856 -11.31225 -11.27792
 Alpha  occ. eigenvalues --  -11.27783 -11.27536 -11.26814 -11.26804 -11.21336
 Alpha  occ. eigenvalues --  -11.21026 -11.20959 -11.20900 -11.20738 -11.20635
 Alpha  occ. eigenvalues --   -1.59886  -1.39439  -1.19399  -1.08793  -1.07963
 Alpha  occ. eigenvalues --   -1.04805  -1.03153  -0.95630  -0.95600  -0.86625
 Alpha  occ. eigenvalues --   -0.86202  -0.82461  -0.79202  -0.77800  -0.77420
 Alpha  occ. eigenvalues --   -0.72074  -0.71204  -0.70519  -0.65052  -0.64870
 Alpha  occ. eigenvalues --   -0.64571  -0.62185  -0.60552  -0.58961  -0.57189
 Alpha  occ. eigenvalues --   -0.55320  -0.54901  -0.53129  -0.52911  -0.52329
 Alpha  occ. eigenvalues --   -0.52002  -0.49572  -0.48852  -0.48838  -0.47492
 Alpha  occ. eigenvalues --   -0.46224  -0.45254  -0.45205  -0.44800  -0.43367
 Alpha  occ. eigenvalues --   -0.37378  -0.36403
 Alpha virt. eigenvalues --    0.04993   0.11210   0.16504   0.20039   0.23142
 Alpha virt. eigenvalues --    0.24133   0.26106   0.27507   0.27674   0.28337
 Alpha virt. eigenvalues --    0.29437   0.30884   0.31505   0.32134   0.32266

 Mulliken charges:
               1
     1  C   -0.300347
     2  C   -0.301576
     3  C   -0.473312
     4  H    0.160208
     5  H    0.154481
     6  H    0.152249
     7  H    0.145570
     8  H    0.143691
     9  H    0.164520
    10  H    0.157185
    11  C   -0.298758
    12  C   -0.298716
    13  C   -0.475620
    14  H    0.147865
    15  H    0.144560
    16  H    0.156713
    17  H    0.153375
    18  H    0.152313
    19  H    0.153994
    20  H    0.160170
    21  C   -0.170377
    22  C   -0.218881
    23  C   -0.169848
    24  C    0.156199
    25  C   -0.179837
    26  C   -0.222535
    27  H    0.225804
    28  H    0.223630
    29  H    0.275722
    30  H    0.291820
    31  H    0.223914
    32  N    0.488175
    33  O   -0.462305
    34  O   -0.460050
 Sum of Mulliken charges =  -0.00000

 Dipole moment (field-independent basis, Debye):
    X=             -2.9012    Y=              2.8195    Z=              3.0550  Tot=              5.0695
 Quadrupole moment (field-independent basis, Debye-Ang):
   XX=            -78.2777   YY=            -96.6982   ZZ=            -96.0027
   XY=             -3.3414   XZ=             -8.6908   YZ=             -1.0114

 Normal termination of Gaussian 16 at Thu May  6 02:34:31 2021.
