 Gaussian 16, Revision A.03,
 Gaussian 16:  EM64L-G16RevA.03 25-Dec-2016

 -------------
 #p 6-31g* mp2
 -------------

 ------------------------------------------------------
 Input file generated by CHIRIPA (05-May-2021 14:51:10)
 ------------------------------------------------------
 Symbolic Z-matrix:
 Charge =  0 Multiplicity = 1

                         Standard orientation:
 ---------------------------------------------------------------------
 Center     Atomic      Atomic             Coordinates (Angstroms)
 Number     Number       Type             X           Y           Z
 ---------------------------------------------------------------------
      1          6           0        2.792596   -0.986387    0.324661
      2          6           0        1.744215   -0.448125    1.298908
      3          6           0        0.626242   -1.452912    1.578792
      4          1           0        2.300561   -1.261693   -0.618235
      5          1           0        3.223126   -1.910735    0.734073
      6          1           0        1.316777    0.475681    0.888427
      7          1           0        2.238832   -0.173890    2.239527
      8          1           0        1.033964   -2.372279    2.011376
      9          1           0        0.106669   -1.719017    0.652599
     10          1           0       -0.112168   -1.047582    2.277590
     11          6           0        3.916736    0.006629    0.034908
     12          6           0        4.965117   -0.531633   -0.939339
     13          6           0        6.083089    0.473154   -1.219223
     14          1           0        3.486205    0.930977   -0.374504
     15          1           0        4.408771    0.281934    0.977804
     16          1           0        4.470499   -0.805868   -1.879958
     17          1           0        5.392555   -1.455439   -0.528858
     18          1           0        6.602662    0.739259   -0.293031
     19          1           0        5.675367    1.392521   -1.651807
     20          1           0        6.821499    0.067824   -1.918021
     21          6           0       -3.721883    0.003604   -0.640349
     22          6           0       -5.101882   -0.399715   -0.119849
     23          6           0       -5.824112   -1.372851   -1.052148
     24          1           0       -3.830510    0.458333   -1.634517
     25          1           0       -3.110133   -0.899224   -0.774737
     26          1           0       -5.710383    0.503724    0.014831
     27          1           0       -4.989976   -0.853362    0.873276
     28          1           0       -5.240505   -2.290522   -1.178181
     29          1           0       -5.965005   -0.925724   -2.041505
     30          1           0       -6.808534   -1.647906   -0.660845
     31          6           0       -2.987449    0.976153    0.280781
     32          6           0       -1.607450    1.379473   -0.239721
     33          6           0       -0.885219    2.352610    0.692579
     34          1           0       -3.599197    1.878982    0.415168
     35          1           0       -2.878821    0.521425    1.274947
     36          1           0       -1.719355    1.833120   -1.232846
     37          1           0       -0.998948    0.476034   -0.374399
     38          1           0       -0.744326    1.905483    1.681936
     39          1           0       -1.468826    3.270280    0.818613
     40          1           0        0.099203    2.627664    0.301276
 ---------------------------------------------------------------------

 SCF Done:  E(RHF) =  -470.732591438     A.U. after   11 cycles
 E2 =    -0.1584127519D+01 EUMP2 =    -0.47231671895725D+03

 The electronic state is 1-A.
 Alpha  occ. eigenvalues --  -11.21600 -11.21599 -11.21597 -11.21523 -11.21407
 Alpha  occ. eigenvalues --  -11.21399 -11.21348 -11.21339 -11.21125 -11.21095
 Alpha  occ. eigenvalues --  -11.21070 -11.21067  -1.08469  -1.08392  -1.03626
 Alpha  occ. eigenvalues --   -1.03451  -0.96044  -0.95945  -0.87051  -0.86968
 Alpha  occ. eigenvalues --   -0.79649  -0.79548  -0.78249  -0.78237  -0.65293
 Alpha  occ. eigenvalues --   -0.64890  -0.61348  -0.60590  -0.59393  -0.59286
 Alpha  occ. eigenvalues --   -0.57621  -0.57582  -0.55404  -0.55122  -0.52722
 Alpha  occ. eigenvalues --   -0.52669  -0.52447  -0.52379  -0.50086  -0.49804
 Alpha  occ. eigenvalues --   -0.47918  -0.47896  -0.46693  -0.46524  -0.45828
 Alpha  occ. eigenvalues --   -0.45756  -0.45681  -0.45660  -0.43795  -0.43774
 Alpha virt. eigenvalues --    0.20032   0.23001   0.23670   0.24783   0.25597
 Alpha virt. eigenvalues --    0.26233   0.26518   0.27714   0.28435   0.29426
 Alpha virt. eigenvalues --    0.30329   0.31292   0.31804   0.32284   0.32476

 Mulliken charges:
               1
     1  C   -0.297873
     2  C   -0.309630
     3  C   -0.477413
     4  H    0.149050
     5  H    0.149261
     6  H    0.164938
     7  H    0.151681
     8  H    0.155778
     9  H    0.154741
    10  H    0.159936
    11  C   -0.298175
    12  C   -0.299645
    13  C   -0.475712
    14  H    0.149044
    15  H    0.149772
    16  H    0.151954
    17  H    0.151966
    18  H    0.155195
    19  H    0.155152
    20  H    0.160254
    21  C   -0.298478
    22  C   -0.299695
    23  C   -0.475739
    24  H    0.149515
    25  H    0.149491
    26  H    0.151887
    27  H    0.152194
    28  H    0.155279
    29  H    0.155080
    30  H    0.160276
    31  C   -0.298230
    32  C   -0.305124
    33  C   -0.479551
    34  H    0.149503
    35  H    0.150248
    36  H    0.151685
    37  H    0.157799
    38  H    0.157600
    39  H    0.156682
    40  H    0.159304
 Sum of Mulliken charges =  -0.00000

 Dipole moment (field-independent basis, Debye):
    X=             -0.0061    Y=              0.0156    Z=              0.0093  Tot=              0.0191
 Quadrupole moment (field-independent basis, Debye-Ang):
   XX=            -85.5628   YY=            -84.9418   ZZ=            -84.3457
   XY=             -1.4978   XZ=              0.5226   YZ=             -0.8807

 Normal termination of Gaussian 16 at Thu May  6 03:48:34 2021.
