 Gaussian 16, Revision A.03,
 Gaussian 16:  EM64L-G16RevA.03 25-Dec-2016

 -------------
 #p 6-31g* mp2
 -------------

 ------------------------------------------------------
 Input file generated by CHIRIPA (05-May-2021 14:55:24)
 ------------------------------------------------------
 Symbolic Z-matrix:
 Charge =  0 Multiplicity = 1

                         Standard orientation:
 ---------------------------------------------------------------------
 Center     Atomic      Atomic             Coordinates (Angstroms)
 Number     Number       Type             X           Y           Z
 ---------------------------------------------------------------------
      1          6           0       -1.156906   -2.188254    0.222294
      2          6           0       -1.897153   -1.701776    1.304834
      3          6           0       -2.646682   -0.528011    1.182238
      4          6           0       -2.633223    0.136922   -0.042904
      5          6           0       -1.905882   -0.322498   -1.139808
      6          6           0       -1.163622   -1.498279   -0.994427
      7          1           0       -0.577477   -3.100846    0.326379
      8          1           0       -1.893801   -2.235538    2.250948
      9          1           0       -3.228743   -0.129098    2.004121
     10          1           0       -1.928861    0.231517   -2.070376
     11          1           0       -0.589678   -1.873747   -1.836839
     12          7           0       -3.422869    1.380602   -0.184752
     13          8           0       -3.394433    1.947891   -1.274711
     14          8           0       -4.055277    1.764559    0.796713
     15          6           0        3.254463    0.729275    0.435478
     16          6           0        3.924976    1.878945   -0.317288
     17          6           0        4.018684    3.156803    0.517033
     18          1           0        2.247767    1.040636    0.746225
     19          1           0        3.817220    0.526094    1.357116
     20          1           0        3.361917    2.078979   -1.237922
     21          1           0        4.930120    1.564743   -0.626446
     22          1           0        4.598444    2.979972    1.428741
     23          1           0        3.021331    3.497130    0.813790
     24          1           0        4.501265    3.965693   -0.040347
     25          6           0        3.153423   -0.555065   -0.385492
     26          6           0        2.482910   -1.704734    0.367274
     27          6           0        2.389201   -2.982592   -0.467048
     28          1           0        2.590666   -0.351883   -1.307130
     29          1           0        4.160118   -0.866426   -0.696239
     30          1           0        1.477766   -1.390532    0.676432
     31          1           0        3.045967   -1.904768    1.287909
     32          1           0        3.386554   -3.322919   -0.763804
     33          1           0        1.809442   -2.805761   -1.378755
     34          1           0        1.906620   -3.791481    0.090333
 ---------------------------------------------------------------------

 SCF Done:  E(RHF) =  -669.534258730     A.U. after   15 cycles
 E2 =    -0.2093833319D+01 EUMP2 =    -0.67162809204895D+03

 The electronic state is 1-A.
 Alpha  occ. eigenvalues --  -20.60805 -20.60799 -15.85860 -11.31230 -11.27821
 Alpha  occ. eigenvalues --  -11.27816 -11.27505 -11.26810 -11.26797 -11.22264
 Alpha  occ. eigenvalues --  -11.22204 -11.21933 -11.21841 -11.21715 -11.21198
 Alpha  occ. eigenvalues --   -1.59881  -1.39434  -1.19422  -1.08966  -1.08771
 Alpha  occ. eigenvalues --   -1.04825  -1.04072  -0.96565  -0.95629  -0.87566
 Alpha  occ. eigenvalues --   -0.86216  -0.82472  -0.80141  -0.78684  -0.77516
 Alpha  occ. eigenvalues --   -0.72078  -0.71207  -0.70553  -0.65617  -0.65057
 Alpha  occ. eigenvalues --   -0.64801  -0.62203  -0.61431  -0.59999  -0.58156
 Alpha  occ. eigenvalues --   -0.55881  -0.55234  -0.53252  -0.53162  -0.52999
 Alpha  occ. eigenvalues --   -0.52853  -0.50473  -0.48838  -0.48831  -0.48445
 Alpha  occ. eigenvalues --   -0.47155  -0.46236  -0.46125  -0.44839  -0.44302
 Alpha  occ. eigenvalues --   -0.37293  -0.36433
 Alpha virt. eigenvalues --    0.05002   0.11137   0.16429   0.19667   0.22825
 Alpha virt. eigenvalues --    0.24218   0.24889   0.26374   0.26641   0.27749
 Alpha virt. eigenvalues --    0.29134   0.30042   0.31535   0.31690   0.32667

 Mulliken charges:
               1
     1  C   -0.172633
     2  C   -0.220180
     3  C   -0.170478
     4  C    0.158020
     5  C   -0.171383
     6  C   -0.220300
     7  H    0.232666
     8  H    0.224090
     9  H    0.275886
    10  H    0.275769
    11  H    0.225551
    12  N    0.488055
    13  O   -0.460458
    14  O   -0.460324
    15  C   -0.299365
    16  C   -0.300079
    17  C   -0.476304
    18  H    0.152704
    19  H    0.149775
    20  H    0.152723
    21  H    0.151691
    22  H    0.154912
    23  H    0.157692
    24  H    0.161627
    25  C   -0.296764
    26  C   -0.308420
    27  C   -0.480660
    28  H    0.146989
    29  H    0.150563
    30  H    0.160587
    31  H    0.153412
    32  H    0.162918
    33  H    0.148521
    34  H    0.153196
 Sum of Mulliken charges =  -0.00000

 Dipole moment (field-independent basis, Debye):
    X=              2.8321    Y=             -4.3006    Z=              0.5461  Tot=              5.1782
 Quadrupole moment (field-independent basis, Debye-Ang):
   XX=           -108.6904   YY=            -97.5904   ZZ=            -90.5170
   XY=             11.9189   XZ=             -2.8451   YZ=             -0.8505

 Normal termination of Gaussian 16 at Thu May  6 09:32:02 2021.
