 Gaussian 16, Revision A.03,
 Gaussian 16:  EM64L-G16RevA.03 25-Dec-2016

 -------------
 #p 6-31g* mp2
 -------------

 ------------------------------------------------------
 Input file generated by CHIRIPA (05-May-2021 14:55:23)
 ------------------------------------------------------
 Symbolic Z-matrix:
 Charge =  0 Multiplicity = 1

                         Standard orientation:
 ---------------------------------------------------------------------
 Center     Atomic      Atomic             Coordinates (Angstroms)
 Number     Number       Type             X           Y           Z
 ---------------------------------------------------------------------
      1          6           0        2.020272    2.333448    0.966273
      2          6           0        1.310072    1.128418    0.960138
      3          6           0        1.859490   -0.016568    0.375590
      4          6           0        3.127131    0.079680   -0.196345
      5          6           0        3.859545    1.265752   -0.206090
      6          6           0        3.290503    2.398156    0.384166
      7          1           0        1.585849    3.218014    1.422581
      8          1           0        0.323402    1.075226    1.411467
      9          1           0        1.331579   -0.962283    0.356849
     10          1           0        4.841079    1.287805   -0.663825
     11          1           0        3.844349    3.332654    0.387464
     12          7           0        3.719163   -1.125804   -0.818201
     13          8           0        4.837669   -1.014862   -1.315468
     14          8           0        3.053482   -2.158780   -0.796570
     15          6           0       -4.212219    0.296546   -0.092962
     16          6           0       -5.440819    0.087533   -0.978874
     17          6           0       -6.098807    1.402838   -1.396988
     18          1           0       -4.505353    0.862286    0.801999
     19          1           0       -3.482635    0.917956   -0.630506
     20          1           0       -6.167284   -0.534448   -0.440355
     21          1           0       -5.144764   -0.477940   -1.871739
     22          1           0       -5.393470    2.025576   -1.956719
     23          1           0       -6.421802    1.968748   -0.517203
     24          1           0       -6.974979    1.230082   -2.029710
     25          6           0       -3.543448   -1.009145    0.333234
     26          6           0       -2.314848   -0.800131    1.219146
     27          6           0       -1.656861   -2.115436    1.637260
     28          1           0       -4.273032   -1.630554    0.870777
     29          1           0       -3.250315   -1.574885   -0.561727
     30          1           0       -2.610904   -0.234658    2.112011
     31          1           0       -1.588382   -0.178150    0.680627
     32          1           0       -1.333866   -2.681346    0.757475
     33          1           0       -2.362197   -2.738175    2.196991
     34          1           0       -0.780688   -1.942680    2.269981
 ---------------------------------------------------------------------

 SCF Done:  E(RHF) =  -669.535569611     A.U. after   15 cycles
 E2 =    -0.2091727650D+01 EUMP2 =    -0.67162729726174D+03

 The electronic state is 1-A.
 Alpha  occ. eigenvalues --  -20.60734 -20.60729 -15.85786 -11.31141 -11.27719
 Alpha  occ. eigenvalues --  -11.27687 -11.27449 -11.26732 -11.26669 -11.22472
 Alpha  occ. eigenvalues --  -11.21987 -11.21962 -11.21873 -11.21762 -11.21407
 Alpha  occ. eigenvalues --   -1.59809  -1.39363  -1.19313  -1.09008  -1.08710
 Alpha  occ. eigenvalues --   -1.04719  -1.04107  -0.96526  -0.95546  -0.87539
 Alpha  occ. eigenvalues --   -0.86111  -0.82385  -0.80203  -0.78815  -0.77423
 Alpha  occ. eigenvalues --   -0.72005  -0.71132  -0.70425  -0.65651  -0.64962
 Alpha  occ. eigenvalues --   -0.64716  -0.62188  -0.61408  -0.59893  -0.58139
 Alpha  occ. eigenvalues --   -0.55792  -0.55203  -0.53231  -0.53061  -0.52956
 Alpha  occ. eigenvalues --   -0.52802  -0.50444  -0.48772  -0.48759  -0.48480
 Alpha  occ. eigenvalues --   -0.47222  -0.46339  -0.46249  -0.44771  -0.44348
 Alpha  occ. eigenvalues --   -0.37297  -0.36312
 Alpha virt. eigenvalues --    0.05086   0.11323   0.16514   0.19595   0.22620
 Alpha virt. eigenvalues --    0.23649   0.25719   0.26192   0.26758   0.28235
 Alpha virt. eigenvalues --    0.29596   0.30131   0.31051   0.31407   0.32192

 Mulliken charges:
               1
     1  C   -0.171243
     2  C   -0.224738
     3  C   -0.175950
     4  C    0.158714
     5  C   -0.170778
     6  C   -0.218678
     7  H    0.225718
     8  H    0.231014
     9  H    0.279761
    10  H    0.275420
    11  H    0.223210
    12  N    0.488017
    13  O   -0.460656
    14  O   -0.460498
    15  C   -0.299035
    16  C   -0.300256
    17  C   -0.476067
    18  H    0.148727
    19  H    0.148721
    20  H    0.153100
    21  H    0.154136
    22  H    0.155253
    23  H    0.154801
    24  H    0.162043
    25  C   -0.297892
    26  C   -0.307342
    27  C   -0.480921
    28  H    0.152526
    29  H    0.154018
    30  H    0.151507
    31  H    0.145917
    32  H    0.162633
    33  H    0.161125
    34  H    0.157689
 Sum of Mulliken charges =  -0.00000

 Dipole moment (field-independent basis, Debye):
    X=             -2.2675    Y=              4.1537    Z=              2.1639  Tot=              5.2036
 Quadrupole moment (field-independent basis, Debye-Ang):
   XX=           -104.0907   YY=            -93.6122   ZZ=            -95.5789
   XY=             16.5434   XZ=              5.5364   YZ=             -1.1005

 Normal termination of Gaussian 16 at Thu May  6 19:16:40 2021.
