 Gaussian 16, Revision A.03,
 Gaussian 16:  EM64L-G16RevA.03 25-Dec-2016

 -------------
 #p 6-31g* mp2
 -------------

 ------------------------------------------------------
 Input file generated by CHIRIPA (05-May-2021 14:53:13)
 ------------------------------------------------------
 Symbolic Z-matrix:
 Charge =  0 Multiplicity = 1

                         Standard orientation:
 ---------------------------------------------------------------------
 Center     Atomic      Atomic             Coordinates (Angstroms)
 Number     Number       Type             X           Y           Z
 ---------------------------------------------------------------------
      1          6           0       -4.065629   -0.293939   -0.570497
      2          6           0       -4.332952   -1.461233    0.380265
      3          6           0       -5.386627   -2.430886   -0.155772
      4          1           0       -5.005090    0.246251   -0.750919
      5          1           0       -3.740626   -0.689181   -1.542892
      6          1           0       -4.656023   -1.063862    1.351005
      7          1           0       -3.392707   -1.998592    0.558596
      8          1           0       -5.068184   -2.854879   -1.113596
      9          1           0       -6.338678   -1.914838   -0.316684
     10          1           0       -5.562149   -3.257619    0.539616
     11          6           0       -3.014570    0.684081   -0.048501
     12          6           0       -2.747247    1.851376   -0.999262
     13          6           0       -1.693572    2.821029   -0.463226
     14          1           0       -3.339572    1.079323    0.923894
     15          1           0       -2.075109    0.143891    0.131922
     16          1           0       -3.687491    2.388735   -1.177594
     17          1           0       -2.424175    1.454005   -1.970003
     18          1           0       -0.741520    2.304981   -0.302314
     19          1           0       -2.012014    3.245022    0.494598
     20          1           0       -1.518049    3.647762   -1.158614
     21          6           0        1.203022    0.999464    1.853369
     22          6           0        1.758292    1.712837    0.785991
     23          6           0        2.625356    1.084843   -0.113104
     24          6           0        2.916777   -0.263758    0.085995
     25          6           0        2.379501   -1.001520    1.139717
     26          6           0        1.514850   -0.353054    2.026520
     27          1           0        0.530403    1.495256    2.547032
     28          1           0        1.517904    2.763318    0.649061
     29          1           0        3.069303    1.613281   -0.948018
     30          1           0        2.637902   -2.047663    1.250309
     31          1           0        1.085095   -0.909568    2.854559
     32          7           0        3.833421   -0.939422   -0.859329
     33          8           0        4.074317   -2.128409   -0.662051
     34          8           0        4.293636   -0.267229   -1.779653
 ---------------------------------------------------------------------

 SCF Done:  E(RHF) =  -669.535153023     A.U. after   15 cycles
 E2 =    -0.2092398493D+01 EUMP2 =    -0.67162755151624D+03

 The electronic state is 1-A.
 Alpha  occ. eigenvalues --  -20.60813 -20.60808 -15.85867 -11.31253 -11.27824
 Alpha  occ. eigenvalues --  -11.27815 -11.27559 -11.26839 -11.26802 -11.22081
 Alpha  occ. eigenvalues --  -11.21966 -11.21848 -11.21730 -11.21668 -11.21347
 Alpha  occ. eigenvalues --   -1.59888  -1.39441  -1.19434  -1.08866  -1.08807
 Alpha  occ. eigenvalues --   -1.04842  -1.03962  -0.96431  -0.95647  -0.87465
 Alpha  occ. eigenvalues --   -0.86225  -0.82477  -0.80044  -0.78668  -0.77523
 Alpha  occ. eigenvalues --   -0.72085  -0.71212  -0.70517  -0.65488  -0.65079
 Alpha  occ. eigenvalues --   -0.64839  -0.62200  -0.61348  -0.59795  -0.58040
 Alpha  occ. eigenvalues --   -0.55755  -0.55304  -0.53289  -0.53135  -0.52954
 Alpha  occ. eigenvalues --   -0.52706  -0.50350  -0.48846  -0.48839  -0.48348
 Alpha  occ. eigenvalues --   -0.47054  -0.46211  -0.46118  -0.44842  -0.44216
 Alpha  occ. eigenvalues --   -0.37362  -0.36403
 Alpha virt. eigenvalues --    0.05002   0.11098   0.16456   0.21063   0.22526
 Alpha virt. eigenvalues --    0.23988   0.26228   0.26436   0.27054   0.27918
 Alpha virt. eigenvalues --    0.28837   0.30493   0.31249   0.31473   0.31689

 Mulliken charges:
               1
     1  C   -0.298590
     2  C   -0.299788
     3  C   -0.475947
     4  H    0.150408
     5  H    0.152066
     6  H    0.150312
     7  H    0.151286
     8  H    0.156948
     9  H    0.155727
    10  H    0.160583
    11  C   -0.300412
    12  C   -0.298018
    13  C   -0.486958
    14  H    0.145829
    15  H    0.151403
    16  H    0.153168
    17  H    0.155318
    18  H    0.160234
    19  H    0.150109
    20  H    0.160833
    21  C   -0.169174
    22  C   -0.220508
    23  C   -0.172700
    24  C    0.158458
    25  C   -0.170878
    26  C   -0.219183
    27  H    0.227640
    28  H    0.228016
    29  H    0.276196
    30  H    0.275874
    31  H    0.224113
    32  N    0.488086
    33  O   -0.460306
    34  O   -0.460141
 Sum of Mulliken charges =  -0.00000

 Dipole moment (field-independent basis, Debye):
    X=             -3.2186    Y=              2.3190    Z=              3.3063  Tot=              5.1642
 Quadrupole moment (field-independent basis, Debye-Ang):
   XX=           -114.2513   YY=            -93.0661   ZZ=            -93.1489
   XY=              7.6140   XZ=              8.8941   YZ=             -3.1324

 Normal termination of Gaussian 16 at Thu May  6 20:19:49 2021.
