 Gaussian 16, Revision A.03,
 Gaussian 16:  EM64L-G16RevA.03 25-Dec-2016

 -------------
 #p 6-31g* mp2
 -------------

 ------------------------------------------------------
 Input file generated by CHIRIPA (05-May-2021 14:55:20)
 ------------------------------------------------------
 Symbolic Z-matrix:
 Charge =  0 Multiplicity = 1

                         Standard orientation:
 ---------------------------------------------------------------------
 Center     Atomic      Atomic             Coordinates (Angstroms)
 Number     Number       Type             X           Y           Z
 ---------------------------------------------------------------------
      1          6           0        1.062096    1.044485    1.530472
      2          6           0        0.918876   -0.320256    1.259380
      3          6           0        1.911364   -1.013155    0.559803
      4          6           0        3.039103   -0.306877    0.144270
      5          6           0        3.210847    1.052860    0.399043
      6          6           0        2.205609    1.725486    1.100197
      7          1           0        0.286155    1.574871    2.074532
      8          1           0        0.031879   -0.851700    1.592319
      9          1           0        1.826122   -2.069681    0.336413
     10          1           0        4.106327    1.555557    0.054327
     11          1           0        2.319522    2.785363    1.309313
     12          7           0        4.096555   -1.029687   -0.597174
     13          8           0        5.080573   -0.384600   -0.952432
     14          8           0        3.921345   -2.227627   -0.809023
     15          6           0       -3.916051   -0.347889    0.077730
     16          6           0       -5.297611   -0.849977   -0.343204
     17          6           0       -5.782252   -2.026936    0.503957
     18          1           0       -3.195357   -1.174019    0.006624
     19          1           0       -3.947983   -0.051104    1.135224
     20          1           0       -5.263439   -1.144429   -1.399967
     21          1           0       -6.015061   -0.022508   -0.271270
     22          1           0       -5.844749   -1.742100    1.559213
     23          1           0       -5.088856   -2.870396    0.424104
     24          1           0       -6.771747   -2.369922    0.185960
     25          6           0       -3.417892    0.828527   -0.759892
     26          6           0       -2.036333    1.330616   -0.338957
     27          6           0       -1.551692    2.507575   -1.186120
     28          1           0       -3.385961    0.531743   -1.817385
     29          1           0       -4.138586    1.654657   -0.688785
     30          1           0       -1.318883    0.503146   -0.410891
     31          1           0       -2.070506    1.625068    0.717805
     32          1           0       -2.245088    3.351035   -1.106266
     33          1           0       -1.489195    2.222739   -2.241374
     34          1           0       -0.562197    2.850560   -0.868122
 ---------------------------------------------------------------------

 SCF Done:  E(RHF) =  -669.534791419     A.U. after   15 cycles
 E2 =    -0.2093213739D+01 EUMP2 =    -0.67162800515757D+03

 The electronic state is 1-A.
 Alpha  occ. eigenvalues --  -20.60776 -20.60770 -15.85831 -11.31200 -11.27784
 Alpha  occ. eigenvalues --  -11.27773 -11.27501 -11.26795 -11.26755 -11.22290
 Alpha  occ. eigenvalues --  -11.22135 -11.22064 -11.21970 -11.21654 -11.21546
 Alpha  occ. eigenvalues --   -1.59852  -1.39405  -1.19386  -1.09074  -1.08765
 Alpha  occ. eigenvalues --   -1.04794  -1.04121  -0.96561  -0.95602  -0.87576
 Alpha  occ. eigenvalues --   -0.86186  -0.82439  -0.80214  -0.78909  -0.77481
 Alpha  occ. eigenvalues --   -0.72049  -0.71176  -0.70483  -0.65694  -0.65034
 Alpha  occ. eigenvalues --   -0.64789  -0.62138  -0.61520  -0.59956  -0.58209
 Alpha  occ. eigenvalues --   -0.55846  -0.55265  -0.53336  -0.53054  -0.52941
 Alpha  occ. eigenvalues --   -0.52871  -0.50494  -0.48809  -0.48804  -0.48515
 Alpha  occ. eigenvalues --   -0.47234  -0.46430  -0.46354  -0.44810  -0.44387
 Alpha  occ. eigenvalues --   -0.37285  -0.36358
 Alpha virt. eigenvalues --    0.05033   0.11159   0.16441   0.20236   0.22610
 Alpha virt. eigenvalues --    0.23831   0.25274   0.25705   0.26999   0.28310
 Alpha virt. eigenvalues --    0.28694   0.30327   0.31164   0.31306   0.31885

 Mulliken charges:
               1
     1  C   -0.165271
     2  C   -0.219449
     3  C   -0.172826
     4  C    0.158526
     5  C   -0.170527
     6  C   -0.220926
     7  H    0.227792
     8  H    0.225566
     9  H    0.275539
    10  H    0.275775
    11  H    0.223681
    12  N    0.488121
    13  O   -0.460396
    14  O   -0.460523
    15  C   -0.298630
    16  C   -0.299905
    17  C   -0.476159
    18  H    0.146461
    19  H    0.146346
    20  H    0.154267
    21  H    0.153317
    22  H    0.154537
    23  H    0.155179
    24  H    0.162580
    25  C   -0.298188
    26  C   -0.304131
    27  C   -0.476717
    28  H    0.152983
    29  H    0.150772
    30  H    0.159118
    31  H    0.139665
    32  H    0.155230
    33  H    0.159625
    34  H    0.158568
 Sum of Mulliken charges =  -0.00000

 Dipole moment (field-independent basis, Debye):
    X=             -3.7773    Y=              2.5288    Z=              2.5469  Tot=              5.2105
 Quadrupole moment (field-independent basis, Debye-Ang):
   XX=           -116.3051   YY=            -93.3302   ZZ=            -94.5004
   XY=             11.0062   XZ=              7.4959   YZ=              0.1002

 Normal termination of Gaussian 16 at Thu May  6 14:07:57 2021.
