 Gaussian 16, Revision A.03,
 Gaussian 16:  EM64L-G16RevA.03 25-Dec-2016

 -------------
 #p 6-31g* mp2
 -------------

 ------------------------------------------------------
 Input file generated by CHIRIPA (05-May-2021 14:51:09)
 ------------------------------------------------------
 Symbolic Z-matrix:
 Charge =  0 Multiplicity = 1

                         Standard orientation:
 ---------------------------------------------------------------------
 Center     Atomic      Atomic             Coordinates (Angstroms)
 Number     Number       Type             X           Y           Z
 ---------------------------------------------------------------------
      1          6           0       -3.546856    0.594553    0.167709
      2          6           0       -2.986242    2.015891    0.226829
      3          6           0       -3.968097    3.013521    0.842043
      4          1           0       -4.479462    0.598916   -0.412957
      5          1           0       -3.812540    0.270117    1.183361
      6          1           0       -2.720406    2.337032   -0.788462
      7          1           0       -2.054761    2.008110    0.807260
      8          1           0       -4.225283    2.720026    1.864939
      9          1           0       -4.894710    3.050817    0.260151
     10          1           0       -3.547008    4.023219    0.874515
     11          6           0       -2.576909   -0.414263   -0.444843
     12          6           0       -3.137523   -1.835601   -0.503963
     13          6           0       -2.155668   -2.833231   -1.119177
     14          1           0       -2.311225   -0.089828   -1.460495
     15          1           0       -1.644303   -0.418626    0.135822
     16          1           0       -4.069004   -1.827821   -1.084394
     17          1           0       -3.403359   -2.156743    0.511328
     18          1           0       -1.229055   -2.870528   -0.537285
     19          1           0       -1.898482   -2.539737   -2.142073
     20          1           0       -2.576757   -3.842929   -1.151649
     21          6           0        3.381008    0.586367    0.293234
     22          6           0        3.568528    1.465349   -0.943783
     23          6           0        4.208073    2.815452   -0.618207
     24          1           0        2.759621    1.121237    1.024491
     25          1           0        4.357181    0.424990    0.771188
     26          1           0        2.592484    1.623878   -1.420043
     27          1           0        4.189383    0.928248   -1.672260
     28          1           0        5.194092    2.675028   -0.163620
     29          1           0        3.588119    3.374611    0.090030
     30          1           0        4.332850    3.427694   -1.516789
     31          6           0        2.742756   -0.766657   -0.016100
     32          6           0        2.555237   -1.645638    1.220918
     33          6           0        1.915693   -2.995741    0.895341
     34          1           0        1.766584   -0.605279   -0.494053
     35          1           0        3.364144   -1.301525   -0.747358
     36          1           0        1.934382   -1.108537    1.949393
     37          1           0        3.531281   -1.804168    1.697177
     38          1           0        2.535645   -3.554901    0.187104
     39          1           0        0.929674   -2.855318    0.440754
     40          1           0        1.790914   -3.607984    1.793924
 ---------------------------------------------------------------------

 SCF Done:  E(RHF) =  -470.733393187     A.U. after   11 cycles
 E2 =    -0.1582773581D+01 EUMP2 =    -0.47231616676731D+03

 The electronic state is 1-A.
 Alpha  occ. eigenvalues --  -11.21648 -11.21636 -11.21617 -11.21590 -11.21459
 Alpha  occ. eigenvalues --  -11.21400 -11.21398 -11.21341 -11.21106 -11.21085
 Alpha  occ. eigenvalues --  -11.21079 -11.21063  -1.08477  -1.08428  -1.03573
 Alpha  occ. eigenvalues --   -1.03528  -0.96030  -0.95970  -0.87057  -0.86976
 Alpha  occ. eigenvalues --   -0.79659  -0.79568  -0.78301  -0.78228  -0.65144
 Alpha  occ. eigenvalues --   -0.65027  -0.61067  -0.60847  -0.59391  -0.59341
 Alpha  occ. eigenvalues --   -0.57686  -0.57546  -0.55461  -0.55136  -0.52708
 Alpha  occ. eigenvalues --   -0.52675  -0.52542  -0.52313  -0.50130  -0.49756
 Alpha  occ. eigenvalues --   -0.48050  -0.47821  -0.46773  -0.46508  -0.45922
 Alpha  occ. eigenvalues --   -0.45777  -0.45749  -0.45568  -0.43825  -0.43785
 Alpha virt. eigenvalues --    0.20510   0.23313   0.23401   0.24858   0.25805
 Alpha virt. eigenvalues --    0.26666   0.26974   0.27388   0.28409   0.28904
 Alpha virt. eigenvalues --    0.30230   0.31703   0.31737   0.31878   0.31917

 Mulliken charges:
               1
     1  C   -0.298317
     2  C   -0.299635
     3  C   -0.475741
     4  H    0.149996
     5  H    0.149732
     6  H    0.151964
     7  H    0.151504
     8  H    0.155287
     9  H    0.155342
    10  H    0.160351
    11  C   -0.299072
    12  C   -0.299236
    13  C   -0.483904
    14  H    0.149665
    15  H    0.149040
    16  H    0.152227
    17  H    0.152114
    18  H    0.162419
    19  H    0.155455
    20  H    0.160966
    21  C   -0.298166
    22  C   -0.299764
    23  C   -0.475699
    24  H    0.149391
    25  H    0.149487
    26  H    0.152363
    27  H    0.151913
    28  H    0.155109
    29  H    0.155171
    30  H    0.160237
    31  C   -0.299435
    32  C   -0.299085
    33  C   -0.483907
    34  H    0.150731
    35  H    0.149830
    36  H    0.151202
    37  H    0.152106
    38  H    0.155897
    39  H    0.162104
    40  H    0.160359
 Sum of Mulliken charges =  -0.00000

 Dipole moment (field-independent basis, Debye):
    X=             -0.0139    Y=             -0.0069    Z=             -0.0126  Tot=              0.0199
 Quadrupole moment (field-independent basis, Debye-Ang):
   XX=            -84.2567   YY=            -86.2905   ZZ=            -84.0890
   XY=             -0.4282   XZ=              0.4265   YZ=             -0.5348

 Normal termination of Gaussian 16 at Wed May  5 15:08:51 2021.
