 Gaussian 16, Revision A.03,
 Gaussian 16:  EM64L-G16RevA.03 25-Dec-2016

 -------------
 #p 6-31g* mp2
 -------------

 ------------------------------------------------------
 Input file generated by CHIRIPA (05-May-2021 14:51:11)
 ------------------------------------------------------
 Symbolic Z-matrix:
 Charge =  0 Multiplicity = 1

                         Standard orientation:
 ---------------------------------------------------------------------
 Center     Atomic      Atomic             Coordinates (Angstroms)
 Number     Number       Type             X           Y           Z
 ---------------------------------------------------------------------
      1          6           0        3.312629    1.307412    0.138751
      2          6           0        2.056344    2.076409   -0.271586
      3          6           0        2.098843    3.545758    0.149129
      4          1           0        3.436643    1.374901    1.228251
      5          1           0        4.192538    1.791988   -0.306605
      6          1           0        1.178940    1.589714    0.173281
      7          1           0        1.935201    2.006921   -1.360214
      8          1           0        2.956167    4.052153   -0.306020
      9          1           0        2.195610    3.632576    1.236189
     10          1           0        1.191049    4.076607   -0.154136
     11          6           0        3.285054   -0.162923   -0.274872
     12          6           0        4.541340   -0.931919    0.135465
     13          6           0        4.498840   -2.401269   -0.285250
     14          1           0        2.405146   -0.647499    0.170484
     15          1           0        3.161040   -0.230411   -1.364372
     16          1           0        4.662483   -0.862431    1.224093
     17          1           0        5.418743   -0.445225   -0.309403
     18          1           0        4.402074   -2.488087   -1.372310
     19          1           0        3.641516   -2.907664    0.169899
     20          1           0        5.406634   -2.932118    0.018015
     21          6           0       -2.659301   -0.689763    0.468820
     22          6           0       -1.643699   -1.574016   -0.255496
     23          6           0       -0.369550   -1.799943    0.558934
     24          1           0       -2.193964    0.278121    0.700352
     25          1           0       -2.915914   -1.151643    1.432258
     26          1           0       -1.390122   -1.111303   -1.217895
     27          1           0       -2.111568   -2.539839   -0.485501
     28          1           0       -0.602911   -2.283200    1.513190
     29          1           0        0.122633   -0.846549    0.776635
     30          1           0        0.342599   -2.434658    0.022425
     31          6           0       -3.938382   -0.454726   -0.332700
     32          6           0       -4.953985    0.429527    0.391618
     33          6           0       -6.228133    0.655454   -0.422813
     34          1           0       -3.681770    0.007153   -1.296137
     35          1           0       -4.403719   -1.422610   -0.564231
     36          1           0       -4.486115    1.395349    0.621621
     37          1           0       -5.207561   -0.033188    1.354016
     38          1           0       -6.720317   -0.297941   -0.640514
     39          1           0       -5.994772    1.138711   -1.377070
     40          1           0       -6.940282    1.290168    0.113696
 ---------------------------------------------------------------------

 SCF Done:  E(RHF) =  -470.732822361     A.U. after   11 cycles
 E2 =    -0.1583416044D+01 EUMP2 =    -0.47231623840519D+03

 The electronic state is 1-A.
 Alpha  occ. eigenvalues --  -11.21635 -11.21630 -11.21615 -11.21539 -11.21430
 Alpha  occ. eigenvalues --  -11.21369 -11.21356 -11.21229 -11.21115 -11.21095
 Alpha  occ. eigenvalues --  -11.21081 -11.21034  -1.08459  -1.08389  -1.03559
 Alpha  occ. eigenvalues --   -1.03510  -0.96029  -0.95941  -0.87051  -0.86960
 Alpha  occ. eigenvalues --   -0.79647  -0.79567  -0.78296  -0.78168  -0.65170
 Alpha  occ. eigenvalues --   -0.64963  -0.60962  -0.60913  -0.59418  -0.59284
 Alpha  occ. eigenvalues --   -0.57625  -0.57566  -0.55422  -0.55145  -0.52745
 Alpha  occ. eigenvalues --   -0.52653  -0.52443  -0.52360  -0.50049  -0.49842
 Alpha  occ. eigenvalues --   -0.47978  -0.47870  -0.46765  -0.46614  -0.45905
 Alpha  occ. eigenvalues --   -0.45756  -0.45723  -0.45338  -0.43785  -0.43745
 Alpha virt. eigenvalues --    0.20784   0.23029   0.23647   0.24083   0.25876
 Alpha virt. eigenvalues --    0.26758   0.27137   0.27250   0.27675   0.29606
 Alpha virt. eigenvalues --    0.29934   0.31503   0.31799   0.31922   0.32376

 Mulliken charges:
               1
     1  C   -0.297821
     2  C   -0.302854
     3  C   -0.475548
     4  H    0.149270
     5  H    0.149389
     6  H    0.153195
     7  H    0.152029
     8  H    0.155553
     9  H    0.155318
    10  H    0.159904
    11  C   -0.307796
    12  C   -0.298873
    13  C   -0.476497
    14  H    0.161605
    15  H    0.148448
    16  H    0.151655
    17  H    0.151410
    18  H    0.154865
    19  H    0.155737
    20  H    0.160120
    21  C   -0.298934
    22  C   -0.299334
    23  C   -0.483018
    24  H    0.149647
    25  H    0.149536
    26  H    0.152925
    27  H    0.152132
    28  H    0.155162
    29  H    0.160204
    30  H    0.162175
    31  C   -0.298344
    32  C   -0.299692
    33  C   -0.475728
    34  H    0.149756
    35  H    0.149748
    36  H    0.152005
    37  H    0.151911
    38  H    0.155199
    39  H    0.155241
    40  H    0.160304
 Sum of Mulliken charges =  -0.00000

 Dipole moment (field-independent basis, Debye):
    X=             -0.0352    Y=             -0.0177    Z=              0.0027  Tot=              0.0395
 Quadrupole moment (field-independent basis, Debye-Ang):
   XX=            -85.5467   YY=            -85.2879   ZZ=            -84.0831
   XY=              0.8476   XZ=             -0.9571   YZ=             -0.7204

 Normal termination of Gaussian 16 at Wed May  5 15:15:19 2021.
