 Gaussian 16, Revision A.03,
 Gaussian 16:  EM64L-G16RevA.03 25-Dec-2016

 -------------
 #p 6-31g* mp2
 -------------

 ------------------------------------------------------
 Input file generated by CHIRIPA (05-May-2021 14:55:21)
 ------------------------------------------------------
 Symbolic Z-matrix:
 Charge =  0 Multiplicity = 1

                         Standard orientation:
 ---------------------------------------------------------------------
 Center     Atomic      Atomic             Coordinates (Angstroms)
 Number     Number       Type             X           Y           Z
 ---------------------------------------------------------------------
      1          6           0       -5.882276    1.307849    0.261309
      2          6           0       -5.632375    0.186731    1.059535
      3          6           0       -4.436462   -0.525510    0.928952
      4          6           0       -3.508380   -0.086790   -0.014170
      5          6           0       -3.728210    1.026317   -0.824082
      6          6           0       -4.931073    1.723332   -0.676299
      7          1           0       -6.813989    1.855221    0.369430
      8          1           0       -6.369277   -0.138228    1.788522
      9          1           0       -4.217274   -1.396876    1.534011
     10          1           0       -2.974504    1.326117   -1.542041
     11          1           0       -5.122453    2.593647   -1.297564
     12          7           0       -2.238642   -0.832748   -0.161517
     13          8           0       -1.437148   -0.425859   -0.999780
     14          8           0       -2.068957   -1.810195    0.564047
     15          6           0        5.460128    0.158954   -0.234659
     16          6           0        6.244349    0.903142    0.846622
     17          6           0        7.645893    1.307100    0.388054
     18          1           0        6.021441   -0.736372   -0.535100
     19          1           0        5.385650    0.795348   -1.127324
     20          1           0        6.316134    0.266078    1.737471
     21          1           0        5.681013    1.796698    1.144661
     22          1           0        7.590866    1.963089   -0.486733
     23          1           0        8.229596    0.423773    0.109446
     24          1           0        8.188859    1.837726    1.176396
     25          6           0        4.057051   -0.251505    0.208765
     26          6           0        3.272830   -0.995694   -0.872516
     27          6           0        1.871286   -1.399652   -0.413948
     28          1           0        4.131529   -0.887900    1.101430
     29          1           0        3.495738    0.643820    0.509206
     30          1           0        3.836166   -1.889250   -1.170555
     31          1           0        3.201045   -0.358629   -1.763364
     32          1           0        1.287583   -0.516324   -0.135339
     33          1           0        1.926313   -2.055641    0.460839
     34          1           0        1.328320   -1.930278   -1.202290
 ---------------------------------------------------------------------

 SCF Done:  E(RHF) =  -669.535632831     A.U. after   15 cycles
 E2 =    -0.2091178073D+01 EUMP2 =    -0.67162681090419D+03

 The electronic state is 1-A.
 Alpha  occ. eigenvalues --  -20.60902 -20.60895 -15.85929 -11.31280 -11.27846
 Alpha  occ. eigenvalues --  -11.27841 -11.27586 -11.26857 -11.26847 -11.20966
 Alpha  occ. eigenvalues --  -11.20575 -11.20557 -11.20331 -11.20180 -11.18982
 Alpha  occ. eigenvalues --   -1.59958  -1.39515  -1.19449  -1.08848  -1.07462
 Alpha  occ. eigenvalues --   -1.04849  -1.02427  -0.95690  -0.94827  -0.86249
 Alpha  occ. eigenvalues --   -0.85832  -0.82518  -0.78537  -0.77569  -0.77216
 Alpha  occ. eigenvalues --   -0.72144  -0.71278  -0.70557  -0.65104  -0.64852
 Alpha  occ. eigenvalues --   -0.64108  -0.62196  -0.59836  -0.58311  -0.56434
 Alpha  occ. eigenvalues --   -0.55355  -0.54137  -0.53179  -0.52941  -0.51503
 Alpha  occ. eigenvalues --   -0.51268  -0.49118  -0.48898  -0.48533  -0.46819
 Alpha  occ. eigenvalues --   -0.45615  -0.44952  -0.44728  -0.44591  -0.42646
 Alpha  occ. eigenvalues --   -0.37429  -0.36451
 Alpha virt. eigenvalues --    0.04943   0.11203   0.16433   0.21341   0.23739
 Alpha virt. eigenvalues --    0.25474   0.27254   0.27556   0.28214   0.28385
 Alpha virt. eigenvalues --    0.29278   0.30905   0.32410   0.32535   0.32648

 Mulliken charges:
               1
     1  C   -0.170665
     2  C   -0.218560
     3  C   -0.170802
     4  C    0.158295
     5  C   -0.170976
     6  C   -0.218529
     7  H    0.225919
     8  H    0.223777
     9  H    0.275899
    10  H    0.275608
    11  H    0.223726
    12  N    0.488005
    13  O   -0.458444
    14  O   -0.458530
    15  C   -0.297112
    16  C   -0.298764
    17  C   -0.475094
    18  H    0.148204
    19  H    0.147717
    20  H    0.151063
    21  H    0.150463
    22  H    0.154083
    23  H    0.154487
    24  H    0.158050
    25  C   -0.296908
    26  C   -0.301874
    27  C   -0.467956
    28  H    0.147757
    29  H    0.147520
    30  H    0.146094
    31  H    0.148124
    32  H    0.163095
    33  H    0.148852
    34  H    0.167474
 Sum of Mulliken charges =  -0.00000

 Dipole moment (field-independent basis, Debye):
    X=             -4.8865    Y=              2.5919    Z=              0.5005  Tot=              5.5539
 Quadrupole moment (field-independent basis, Debye-Ang):
   XX=            -66.0876   YY=            -93.0586   ZZ=            -92.6466
   XY=             -8.7441   XZ=             -2.7487   YZ=             -3.0281

 Normal termination of Gaussian 16 at Thu May  6 20:42:06 2021.
