 Gaussian 16, Revision A.03,
 Gaussian 16:  EM64L-G16RevA.03 25-Dec-2016

 -------------
 #p 6-31g* mp2
 -------------

 ------------------------------------------------------
 Input file generated by CHIRIPA (05-May-2021 14:55:21)
 ------------------------------------------------------
 Symbolic Z-matrix:
 Charge =  0 Multiplicity = 1

                         Standard orientation:
 ---------------------------------------------------------------------
 Center     Atomic      Atomic             Coordinates (Angstroms)
 Number     Number       Type             X           Y           Z
 ---------------------------------------------------------------------
      1          6           0       -2.525624    2.370863   -0.193121
      2          6           0       -2.136473    1.515500    0.842947
      3          6           0       -2.627075    0.207887    0.906230
      4          6           0       -3.509164   -0.213284   -0.087664
      5          6           0       -3.915656    0.615126   -1.132552
      6          6           0       -3.412410    1.918744   -1.175831
      7          1           0       -2.139601    3.385097   -0.234511
      8          1           0       -1.447916    1.863913    1.607500
      9          1           0       -2.342370   -0.475316    1.697176
     10          1           0       -4.603445    0.239268   -1.880278
     11          1           0       -3.716366    2.580828   -1.981622
     12          7           0       -4.035235   -1.595480   -0.031257
     13          8           0       -4.811173   -1.942434   -0.919052
     14          8           0       -3.661671   -2.305720    0.899681
     15          6           0        5.076828   -0.315415    0.228022
     16          6           0        5.950571   -0.265736   -1.025808
     17          6           0        7.340083   -0.863237   -0.802099
     18          1           0        5.582518    0.223108    1.041174
     19          1           0        4.979462   -1.359139    0.557500
     20          1           0        6.045123    0.777439   -1.353621
     21          1           0        5.442656   -0.804277   -1.836124
     22          1           0        7.263938   -1.911983   -0.497247
     23          1           0        7.869828   -0.321281   -0.012001
     24          1           0        7.947888   -0.817446   -1.711129
     25          6           0        3.684672    0.278247    0.020196
     26          6           0        2.810929    0.228569    1.274026
     27          6           0        1.421418    0.826068    1.050317
     28          1           0        3.782039    1.321971   -0.309282
     29          1           0        3.178983   -0.260276   -0.792957
     30          1           0        3.318844    0.767109    2.084343
     31          1           0        2.716378   -0.814607    1.601839
     32          1           0        0.891672    0.284112    0.260219
     33          1           0        1.497562    1.874814    0.745464
     34          1           0        0.813612    0.780278    1.959347
 ---------------------------------------------------------------------

 SCF Done:  E(RHF) =  -669.535245843     A.U. after   15 cycles
 E2 =    -0.2091499429D+01 EUMP2 =    -0.67162674527162D+03

 The electronic state is 1-A.
 Alpha  occ. eigenvalues --  -20.60731 -20.60726 -15.85783 -11.31134 -11.27690
 Alpha  occ. eigenvalues --  -11.27676 -11.27418 -11.26716 -11.26660 -11.22073
 Alpha  occ. eigenvalues --  -11.21824 -11.21808 -11.21759 -11.21640 -11.21242
 Alpha  occ. eigenvalues --   -1.59807  -1.39360  -1.19299  -1.08781  -1.08694
 Alpha  occ. eigenvalues --   -1.04701  -1.03913  -0.96391  -0.95535  -0.87430
 Alpha  occ. eigenvalues --   -0.86085  -0.82368  -0.79989  -0.78570  -0.77411
 Alpha  occ. eigenvalues --   -0.72001  -0.71130  -0.70404  -0.65403  -0.64949
 Alpha  occ. eigenvalues --   -0.64708  -0.62075  -0.61305  -0.59764  -0.57984
 Alpha  occ. eigenvalues --   -0.55669  -0.55201  -0.53358  -0.53020  -0.52753
 Alpha  occ. eigenvalues --   -0.52589  -0.50311  -0.48757  -0.48757  -0.48299
 Alpha  occ. eigenvalues --   -0.46993  -0.46119  -0.46024  -0.44769  -0.44171
 Alpha  occ. eigenvalues --   -0.37274  -0.36258
 Alpha virt. eigenvalues --    0.05106   0.11326   0.16572   0.20708   0.22614
 Alpha virt. eigenvalues --    0.23920   0.26056   0.26331   0.27135   0.28222
 Alpha virt. eigenvalues --    0.28522   0.30245   0.30998   0.31600   0.32508

 Mulliken charges:
               1
     1  C   -0.172819
     2  C   -0.213652
     3  C   -0.172695
     4  C    0.158169
     5  C   -0.171535
     6  C   -0.218463
     7  H    0.225345
     8  H    0.226647
     9  H    0.275118
    10  H    0.275241
    11  H    0.223076
    12  N    0.488086
    13  O   -0.460649
    14  O   -0.460627
    15  C   -0.298743
    16  C   -0.299930
    17  C   -0.475941
    18  H    0.149665
    19  H    0.151304
    20  H    0.151352
    21  H    0.152907
    22  H    0.156204
    23  H    0.155150
    24  H    0.160892
    25  C   -0.299028
    26  C   -0.300612
    27  C   -0.477023
    28  H    0.148354
    29  H    0.151618
    30  H    0.152084
    31  H    0.155561
    32  H    0.162888
    33  H    0.151157
    34  H    0.150898
 Sum of Mulliken charges =  -0.00000

 Dipole moment (field-independent basis, Debye):
    X=              1.9731    Y=              4.8395    Z=             -0.2365  Tot=              5.2316
 Quadrupole moment (field-independent basis, Debye-Ang):
   XX=           -107.7401   YY=            -96.7105   ZZ=            -91.5472
   XY=            -17.5791   XZ=              3.1215   YZ=             -0.9952

 Normal termination of Gaussian 16 at Thu May  6 12:28:43 2021.
