 Gaussian 16, Revision A.03,
 Gaussian 16:  EM64L-G16RevA.03 25-Dec-2016

 -------------
 #p 6-31g* mp2
 -------------

 ------------------------------------------------------
 Input file generated by CHIRIPA (05-May-2021 14:53:17)
 ------------------------------------------------------
 Symbolic Z-matrix:
 Charge =  0 Multiplicity = 1

                         Standard orientation:
 ---------------------------------------------------------------------
 Center     Atomic      Atomic             Coordinates (Angstroms)
 Number     Number       Type             X           Y           Z
 ---------------------------------------------------------------------
      1          6           0        2.729790   -0.380116   -0.059127
      2          6           0        3.464294   -1.135590    1.048911
      3          6           0        3.302010   -2.651916    0.938403
      4          1           0        1.662757   -0.639501   -0.025897
      5          1           0        3.103764   -0.719682   -1.034952
      6          1           0        3.090025   -0.793702    2.022385
      7          1           0        4.529671   -0.874228    1.013160
      8          1           0        3.692913   -3.012461   -0.018573
      9          1           0        2.245088   -2.931477    0.996386
     10          1           0        3.835045   -3.172221    1.740285
     11          6           0        2.882599    1.136782    0.037820
     12          6           0        2.148096    1.892256   -1.070218
     13          6           0        2.310380    3.408582   -0.959709
     14          1           0        2.508626    1.476348    1.013645
     15          1           0        3.949633    1.396167    0.004590
     16          1           0        1.082719    1.630894   -1.034467
     17          1           0        2.522365    1.550368   -2.043692
     18          1           0        3.367302    3.688143   -1.017693
     19          1           0        1.919476    3.769127   -0.002734
     20          1           0        1.777344    3.928887   -1.761592
     21          6           0       -2.932421    1.090370    1.982497
     22          6           0       -1.770824    0.315743    2.067146
     23          6           0       -1.351280   -0.456052    0.979552
     24          6           0       -2.120791   -0.429561   -0.182533
     25          6           0       -3.282771    0.331904   -0.297703
     26          6           0       -3.683365    1.095968    0.802423
     27          1           0       -3.250972    1.686916    2.832235
     28          1           0       -1.185660    0.309461    2.982345
     29          1           0       -0.456115   -1.064846    1.017877
     30          1           0       -3.845306    0.317783   -1.223324
     31          1           0       -4.585906    1.696600    0.733832
     32          7           0       -1.686670   -1.242534   -1.340555
     33          8           0       -2.382159   -1.201986   -2.353119
     34          8           0       -0.659137   -1.904896   -1.213719
 ---------------------------------------------------------------------

 SCF Done:  E(RHF) =  -669.535480998     A.U. after   15 cycles
 E2 =    -0.2093077751D+01 EUMP2 =    -0.67162855874925D+03

 The electronic state is 1-A.
 Alpha  occ. eigenvalues --  -20.60912 -20.60904 -15.85942 -11.31313 -11.27873
 Alpha  occ. eigenvalues --  -11.27860 -11.27601 -11.26884 -11.26872 -11.21437
 Alpha  occ. eigenvalues --  -11.21397 -11.21217 -11.20974 -11.20973 -11.20776
 Alpha  occ. eigenvalues --   -1.59972  -1.39528  -1.19477  -1.08869  -1.08212
 Alpha  occ. eigenvalues --   -1.04877  -1.03334  -0.95776  -0.95699  -0.86783
 Alpha  occ. eigenvalues --   -0.86277  -0.82537  -0.79389  -0.78046  -0.77540
 Alpha  occ. eigenvalues --   -0.72164  -0.71287  -0.70588  -0.65135  -0.65039
 Alpha  occ. eigenvalues --   -0.64725  -0.62228  -0.60742  -0.59133  -0.57366
 Alpha  occ. eigenvalues --   -0.55385  -0.55061  -0.53201  -0.52978  -0.52479
 Alpha  occ. eigenvalues --   -0.52167  -0.49721  -0.48948  -0.48920  -0.47692
 Alpha  occ. eigenvalues --   -0.46437  -0.45618  -0.45499  -0.44744  -0.43571
 Alpha  occ. eigenvalues --   -0.37447  -0.36467
 Alpha virt. eigenvalues --    0.04906   0.11078   0.16419   0.20146   0.22936
 Alpha virt. eigenvalues --    0.23980   0.26168   0.27228   0.27723   0.28213
 Alpha virt. eigenvalues --    0.28995   0.30618   0.31444   0.31915   0.32062

 Mulliken charges:
               1
     1  C   -0.307609
     2  C   -0.300272
     3  C   -0.475323
     4  H    0.160170
     5  H    0.155989
     6  H    0.142743
     7  H    0.151848
     8  H    0.160206
     9  H    0.157115
    10  H    0.157165
    11  C   -0.297502
    12  C   -0.298607
    13  C   -0.475358
    14  H    0.142211
    15  H    0.149211
    16  H    0.150320
    17  H    0.156136
    18  H    0.155053
    19  H    0.151702
    20  H    0.160421
    21  C   -0.170501
    22  C   -0.219919
    23  C   -0.172319
    24  C    0.157487
    25  C   -0.170672
    26  C   -0.218312
    27  H    0.226161
    28  H    0.224251
    29  H    0.279545
    30  H    0.276002
    31  H    0.224011
    32  N    0.488601
    33  O   -0.459056
    34  O   -0.460895
 Sum of Mulliken charges =  -0.00000

 Dipole moment (field-independent basis, Debye):
    X=             -1.6324    Y=              2.7713    Z=              3.9165  Tot=              5.0679
 Quadrupole moment (field-independent basis, Debye-Ang):
   XX=            -84.6345   YY=            -98.7659   ZZ=            -95.0600
   XY=             -7.3573   XZ=             -7.1216   YZ=             -2.9469

 Normal termination of Gaussian 16 at Wed May  5 18:47:16 2021.
