 Gaussian 16, Revision A.03,
 Gaussian 16:  EM64L-G16RevA.03 25-Dec-2016

 -------------
 #p 6-31g* mp2
 -------------

 ------------------------------------------------------
 Input file generated by CHIRIPA (05-May-2021 14:53:16)
 ------------------------------------------------------
 Symbolic Z-matrix:
 Charge =  0 Multiplicity = 1

                         Standard orientation:
 ---------------------------------------------------------------------
 Center     Atomic      Atomic             Coordinates (Angstroms)
 Number     Number       Type             X           Y           Z
 ---------------------------------------------------------------------
      1          6           0        3.566452    0.538640   -0.323487
      2          6           0        4.601964   -0.501135    0.106129
      3          6           0        5.661472   -0.758216   -0.965853
      4          1           0        3.079615    0.201364   -1.248787
      5          1           0        4.080237    1.479287   -0.565566
      6          1           0        4.086244   -1.439127    0.348653
      7          1           0        5.086258   -0.161436    1.030618
      8          1           0        6.201949    0.164050   -1.202311
      9          1           0        5.196252   -1.120901   -1.888150
     10          1           0        6.391561   -1.504706   -0.637854
     11          6           0        2.500608    0.806480    0.737628
     12          6           0        1.465096    1.846254    0.308012
     13          6           0        0.405588    2.103336    1.379994
     14          1           0        1.986824   -0.134168    0.979707
     15          1           0        2.987446    1.143755    1.662927
     16          1           0        0.980802    1.506556   -0.616477
     17          1           0        1.980817    2.784247    0.065487
     18          1           0        0.870808    2.466021    2.302290
     19          1           0       -0.134889    1.181070    1.616451
     20          1           0       -0.324501    2.849825    1.051994
     21          6           0       -0.340783   -1.928379    0.367545
     22          6           0       -0.348894   -1.108889   -0.765984
     23          6           0       -1.467724   -0.327277   -1.069050
     24          6           0       -2.566118   -0.389806   -0.212946
     25          6           0       -2.588436   -1.196322    0.923858
     26          6           0       -1.458609   -1.969408    1.207369
     27          1           0        0.532622   -2.532243    0.595379
     28          1           0        0.517808   -1.075023   -1.419993
     29          1           0       -1.500827    0.315936   -1.940027
     30          1           0       -3.467342   -1.208981    1.556931
     31          1           0       -1.455122   -2.604913    2.088371
     32          7           0       -3.756394    0.433139   -0.523437
     33          8           0       -4.711470    0.360234    0.246726
     34          8           0       -3.711718    1.135484   -1.531084
 ---------------------------------------------------------------------

 SCF Done:  E(RHF) =  -669.534108591     A.U. after   15 cycles
 E2 =    -0.2095990995D+01 EUMP2 =    -0.67163009958578D+03

 The electronic state is 1-A.
 Alpha  occ. eigenvalues --  -20.60835 -20.60830 -15.85890 -11.31305 -11.27870
 Alpha  occ. eigenvalues --  -11.27856 -11.27620 -11.26915 -11.26882 -11.22354
 Alpha  occ. eigenvalues --  -11.22117 -11.21934 -11.21872 -11.21717 -11.21154
 Alpha  occ. eigenvalues --   -1.59909  -1.39461  -1.19495  -1.09063  -1.08844
 Alpha  occ. eigenvalues --   -1.04911  -1.04005  -0.96464  -0.95698  -0.87475
 Alpha  occ. eigenvalues --   -0.86288  -0.82538  -0.80110  -0.78840  -0.77566
 Alpha  occ. eigenvalues --   -0.72108  -0.71232  -0.70598  -0.65827  -0.65141
 Alpha  occ. eigenvalues --   -0.64805  -0.62245  -0.61471  -0.59836  -0.58070
 Alpha  occ. eigenvalues --   -0.55810  -0.55397  -0.53161  -0.53117  -0.52971
 Alpha  occ. eigenvalues --   -0.52837  -0.50417  -0.48871  -0.48859  -0.48390
 Alpha  occ. eigenvalues --   -0.47182  -0.46361  -0.46305  -0.44856  -0.44294
 Alpha  occ. eigenvalues --   -0.37415  -0.36425
 Alpha virt. eigenvalues --    0.04919   0.11075   0.16264   0.19123   0.23188
 Alpha virt. eigenvalues --    0.23894   0.24767   0.25615   0.27017   0.28563
 Alpha virt. eigenvalues --    0.29962   0.30834   0.31036   0.31336   0.31832

 Mulliken charges:
               1
     1  C   -0.299218
     2  C   -0.298353
     3  C   -0.475667
     4  H    0.141330
     5  H    0.154242
     6  H    0.144271
     7  H    0.155301
     8  H    0.158118
     9  H    0.153532
    10  H    0.161793
    11  C   -0.302092
    12  C   -0.296766
    13  C   -0.480721
    14  H    0.145758
    15  H    0.152127
    16  H    0.145731
    17  H    0.153484
    18  H    0.154184
    19  H    0.159971
    20  H    0.164196
    21  C   -0.173085
    22  C   -0.215790
    23  C   -0.169863
    24  C    0.159847
    25  C   -0.171865
    26  C   -0.219464
    27  H    0.226646
    28  H    0.227169
    29  H    0.276228
    30  H    0.276367
    31  H    0.224535
    32  N    0.488081
    33  O   -0.459972
    34  O   -0.460055
 Sum of Mulliken charges =  -0.00000

 Dipole moment (field-independent basis, Debye):
    X=              4.1370    Y=             -2.8763    Z=              1.1293  Tot=              5.1637
 Quadrupole moment (field-independent basis, Debye-Ang):
   XX=           -115.7800   YY=            -91.9568   ZZ=            -92.5209
   XY=              7.6305   XZ=             -5.0481   YZ=             -1.4275

 Normal termination of Gaussian 16 at Thu May  6 04:19:09 2021.
