 Gaussian 16, Revision A.03,
 Gaussian 16:  EM64L-G16RevA.03 25-Dec-2016

 -------------
 #p 6-31g* mp2
 -------------

 ------------------------------------------------------
 Input file generated by CHIRIPA (05-May-2021 14:51:11)
 ------------------------------------------------------
 Symbolic Z-matrix:
 Charge =  0 Multiplicity = 1

                         Standard orientation:
 ---------------------------------------------------------------------
 Center     Atomic      Atomic             Coordinates (Angstroms)
 Number     Number       Type             X           Y           Z
 ---------------------------------------------------------------------
      1          6           0        3.203905   -0.542809   -0.009280
      2          6           0        3.405341    0.852923   -0.600330
      3          6           0        4.858462    1.125866   -0.989863
      4          1           0        3.849090   -0.657251    0.872528
      5          1           0        3.536098   -1.293947   -0.739234
      6          1           0        3.071578    1.601163    0.129982
      7          1           0        2.759459    0.964124   -1.480720
      8          1           0        5.199694    0.401563   -1.736554
      9          1           0        5.513587    1.042221   -0.116699
     10          1           0        4.979779    2.129108   -1.410157
     11          6           0        1.756348   -0.830587    0.385043
     12          6           0        1.554912   -2.226319    0.976094
     13          6           0        0.101791   -2.499261    1.365627
     14          1           0        1.424155   -0.079448    1.114997
     15          1           0        1.111163   -0.716145   -0.496764
     16          1           0        2.200794   -2.337520    1.856484
     17          1           0        1.888674   -2.974558    0.245781
     18          1           0       -0.553335   -2.415616    0.492463
     19          1           0       -0.239442   -1.774959    2.112317
     20          1           0       -0.019526   -3.502503    1.785921
     21          6           0       -2.057273    1.317446   -0.270250
     22          6           0       -2.266993    2.338436    0.848490
     23          6           0       -1.414186    3.594839    0.669696
     24          1           0       -0.995271    1.038954   -0.309491
     25          1           0       -2.293005    1.787493   -1.235071
     26          1           0       -2.032266    1.866191    1.811041
     27          1           0       -3.328653    2.614384    0.885198
     28          1           0       -1.653531    4.091512   -0.276153
     29          1           0       -0.349778    3.339067    0.654951
     30          1           0       -1.579773    4.311173    1.480440
     31          6           0       -2.902980    0.055950   -0.105514
     32          6           0       -2.693259   -0.965041   -1.224254
     33          6           0       -3.546066   -2.221443   -1.045460
     34          1           0       -2.667248   -0.414098    0.859308
     35          1           0       -3.964981    0.334440   -0.066273
     36          1           0       -1.631600   -1.240989   -1.260961
     37          1           0       -2.927987   -0.492795   -2.186804
     38          1           0       -4.610474   -1.965671   -1.030714
     39          1           0       -3.306721   -2.718116   -0.099611
     40          1           0       -3.380480   -2.937778   -1.856203
 ---------------------------------------------------------------------

 SCF Done:  E(RHF) =  -470.732889377     A.U. after   11 cycles
 E2 =    -0.1584730339D+01 EUMP2 =    -0.47231761971600D+03

 The electronic state is 1-A.
 Alpha  occ. eigenvalues --  -11.21689 -11.21659 -11.21578 -11.21551 -11.21502
 Alpha  occ. eigenvalues --  -11.21432 -11.21314 -11.21250 -11.21128 -11.21108
 Alpha  occ. eigenvalues --  -11.21046 -11.21034  -1.08527  -1.08362  -1.03615
 Alpha  occ. eigenvalues --   -1.03483  -0.96057  -0.95930  -0.87078  -0.86945
 Alpha  occ. eigenvalues --   -0.79673  -0.79556  -0.78397  -0.78129  -0.65234
 Alpha  occ. eigenvalues --   -0.64952  -0.61195  -0.60750  -0.59413  -0.59299
 Alpha  occ. eigenvalues --   -0.57671  -0.57525  -0.55453  -0.55108  -0.52740
 Alpha  occ. eigenvalues --   -0.52639  -0.52487  -0.52348  -0.49995  -0.49864
 Alpha  occ. eigenvalues --   -0.48068  -0.47805  -0.46821  -0.46518  -0.46235
 Alpha  occ. eigenvalues --   -0.45794  -0.45645  -0.45218  -0.43858  -0.43731
 Alpha virt. eigenvalues --    0.19968   0.22571   0.23434   0.24487   0.25062
 Alpha virt. eigenvalues --    0.25919   0.27008   0.27650   0.28807   0.30404
 Alpha virt. eigenvalues --    0.30789   0.31089   0.31394   0.31903   0.32280

 Mulliken charges:
               1
     1  C   -0.298042
     2  C   -0.300129
     3  C   -0.475731
     4  H    0.150068
     5  H    0.149870
     6  H    0.151661
     7  H    0.152445
     8  H    0.155342
     9  H    0.155291
    10  H    0.160648
    11  C   -0.303810
    12  C   -0.299500
    13  C   -0.484371
    14  H    0.149912
    15  H    0.153692
    16  H    0.152361
    17  H    0.152220
    18  H    0.164545
    19  H    0.155063
    20  H    0.160769
    21  C   -0.303877
    22  C   -0.299252
    23  C   -0.475842
    24  H    0.156159
    25  H    0.148662
    26  H    0.151209
    27  H    0.151713
    28  H    0.155147
    29  H    0.155229
    30  H    0.159868
    31  C   -0.299448
    32  C   -0.304629
    33  C   -0.477744
    34  H    0.152357
    35  H    0.149327
    36  H    0.153495
    37  H    0.152597
    38  H    0.155578
    39  H    0.157366
    40  H    0.159781
 Sum of Mulliken charges =  -0.00000

 Dipole moment (field-independent basis, Debye):
    X=              0.0430    Y=             -0.0290    Z=              0.0019  Tot=              0.0519
 Quadrupole moment (field-independent basis, Debye-Ang):
   XX=            -85.4558   YY=            -85.5372   ZZ=            -83.7613
   XY=             -1.1062   XZ=              0.8544   YZ=              0.1915

 Normal termination of Gaussian 16 at Wed May  5 18:16:00 2021.
