 Gaussian 16, Revision A.03,
 Gaussian 16:  EM64L-G16RevA.03 25-Dec-2016

 -------------
 #p 6-31g* mp2
 -------------

 ------------------------------------------------------
 Input file generated by CHIRIPA (05-May-2021 14:55:23)
 ------------------------------------------------------
 Symbolic Z-matrix:
 Charge =  0 Multiplicity = 1

                         Standard orientation:
 ---------------------------------------------------------------------
 Center     Atomic      Atomic             Coordinates (Angstroms)
 Number     Number       Type             X           Y           Z
 ---------------------------------------------------------------------
      1          6           0       -4.930457    0.584896    0.612442
      2          6           0       -3.820871    0.853214    1.420740
      3          6           0       -2.554691    0.375496    1.069851
      4          6           0       -2.433737   -0.370632   -0.101453
      5          6           0       -3.520087   -0.654708   -0.927549
      6          6           0       -4.776794   -0.166883   -0.557061
      7          1           0       -5.910376    0.959925    0.892633
      8          1           0       -3.937234    1.436788    2.329556
      9          1           0       -1.678783    0.568443    1.677283
     10          1           0       -3.372765   -1.239259   -1.827557
     11          1           0       -5.636742   -0.376810   -1.186717
     12          7           0       -1.098303   -0.881720   -0.483298
     13          8           0       -1.018190   -1.536684   -1.520236
     14          8           0       -0.156991   -0.617671    0.261581
     15          6           0        3.499424   -0.206479    0.543789
     16          6           0        3.928986   -1.513517   -0.123377
     17          6           0        4.130095   -2.650566    0.878855
     18          1           0        4.256142    0.085521    1.284775
     19          1           0        2.566780   -0.375860    1.099559
     20          1           0        4.859805   -1.341383   -0.678860
     21          1           0        3.171252   -1.802340   -0.862997
     22          1           0        3.202787   -2.851014    1.425226
     23          1           0        4.900934   -2.387438    1.610408
     24          1           0        4.436916   -3.575421    0.380493
     25          6           0        3.294388    0.939659   -0.445178
     26          6           0        2.864826    2.246697    0.221990
     27          6           0        2.663717    3.383746   -0.780243
     28          1           0        4.227032    1.109039   -1.000946
     29          1           0        2.537670    0.647658   -1.186163
     30          1           0        3.622559    2.535519    0.961609
     31          1           0        1.934007    2.074562    0.777473
     32          1           0        1.892877    3.120618   -1.511797
     33          1           0        3.591024    3.584194   -1.326614
     34          1           0        2.356895    4.308600   -0.281880
 ---------------------------------------------------------------------

 SCF Done:  E(RHF) =  -669.536578510     A.U. after   15 cycles
 E2 =    -0.2091658961D+01 EUMP2 =    -0.67162823747100D+03

 The electronic state is 1-A.
 Alpha  occ. eigenvalues --  -20.61104 -20.61098 -15.86127 -11.31386 -11.27943
 Alpha  occ. eigenvalues --  -11.27938 -11.27668 -11.26935 -11.26926 -11.20561
 Alpha  occ. eigenvalues --  -11.20301 -11.20105 -11.19989 -11.19823 -11.19765
 Alpha  occ. eigenvalues --   -1.60156  -1.39715  -1.19548  -1.08964  -1.07054
 Alpha  occ. eigenvalues --   -1.04936  -1.02320  -0.95817  -0.94777  -0.86339
 Alpha  occ. eigenvalues --   -0.85811  -0.82655  -0.78395  -0.77718  -0.76843
 Alpha  occ. eigenvalues --   -0.72362  -0.71464  -0.70657  -0.65212  -0.64940
 Alpha  occ. eigenvalues --   -0.63621  -0.62284  -0.59703  -0.58184  -0.56401
 Alpha  occ. eigenvalues --   -0.55442  -0.54050  -0.53269  -0.53026  -0.51553
 Alpha  occ. eigenvalues --   -0.51232  -0.49126  -0.49102  -0.48690  -0.46732
 Alpha  occ. eigenvalues --   -0.45393  -0.45136  -0.44400  -0.44224  -0.42519
 Alpha  occ. eigenvalues --   -0.37523  -0.36533
 Alpha virt. eigenvalues --    0.04799   0.11122   0.16299   0.21173   0.24132
 Alpha virt. eigenvalues --    0.25440   0.27001   0.27506   0.28358   0.28965
 Alpha virt. eigenvalues --    0.29185   0.30947   0.32164   0.32609   0.32800

 Mulliken charges:
               1
     1  C   -0.170370
     2  C   -0.218490
     3  C   -0.170588
     4  C    0.157332
     5  C   -0.170377
     6  C   -0.218589
     7  H    0.226396
     8  H    0.224267
     9  H    0.275567
    10  H    0.276028
    11  H    0.224161
    12  N    0.494010
    13  O   -0.458450
    14  O   -0.466501
    15  C   -0.301108
    16  C   -0.300283
    17  C   -0.475527
    18  H    0.139193
    19  H    0.168715
    20  H    0.144407
    21  H    0.163926
    22  H    0.158041
    23  H    0.149232
    24  H    0.155962
    25  C   -0.296904
    26  C   -0.299454
    27  C   -0.474957
    28  H    0.142299
    29  H    0.159729
    30  H    0.146912
    31  H    0.153184
    32  H    0.154490
    33  H    0.153464
    34  H    0.154280
 Sum of Mulliken charges =  -0.00000

 Dipole moment (field-independent basis, Debye):
    X=             -5.1316    Y=              1.6538    Z=              1.2960  Tot=              5.5451
 Quadrupole moment (field-independent basis, Debye-Ang):
   XX=            -72.1121   YY=            -97.4995   ZZ=            -92.3672
   XY=             -1.5793   XZ=             -1.2400   YZ=              2.1313

 Normal termination of Gaussian 16 at Thu May  6 03:08:21 2021.
