 Gaussian 16, Revision A.03,
 Gaussian 16:  EM64L-G16RevA.03 25-Dec-2016

 -------------
 #p 6-31g* mp2
 -------------

 ------------------------------------------------------
 Input file generated by CHIRIPA (05-May-2021 14:55:18)
 ------------------------------------------------------
 Symbolic Z-matrix:
 Charge =  0 Multiplicity = 1

                         Standard orientation:
 ---------------------------------------------------------------------
 Center     Atomic      Atomic             Coordinates (Angstroms)
 Number     Number       Type             X           Y           Z
 ---------------------------------------------------------------------
      1          6           0        2.498770    2.647707    0.116139
      2          6           0        3.385758    2.161528   -0.849989
      3          6           0        3.747172    0.811101   -0.866563
      4          6           0        3.200185   -0.028879    0.102215
      5          6           0        2.314024    0.425421    1.077725
      6          6           0        1.966672    1.779632    1.075222
      7          1           0        2.223476    3.698221    0.121604
      8          1           0        3.800550    2.833383   -1.596047
      9          1           0        4.431702    0.408165   -1.603094
     10          1           0        1.916956   -0.268588    1.808550
     11          1           0        1.277600    2.154422    1.826725
     12          7           0        3.575355   -1.460518    0.094767
     13          8           0        3.079599   -2.180050    0.959138
     14          8           0        4.358065   -1.835997   -0.775301
     15          6           0       -3.328216   -0.319696    0.193012
     16          6           0       -2.233587   -0.767513   -0.776128
     17          6           0       -0.861158   -0.872132   -0.110330
     18          1           0       -3.052726    0.652893    0.623267
     19          1           0       -3.379159   -1.028930    1.030739
     20          1           0       -2.185660   -0.058407   -1.612483
     21          1           0       -2.511806   -1.739059   -1.204272
     22          1           0       -0.886017   -1.594329    0.712114
     23          1           0       -0.558016    0.095873    0.301584
     24          1           0       -0.093580   -1.193736   -0.821143
     25          6           0       -4.705967   -0.210410   -0.457823
     26          6           0       -5.800596    0.237407    0.511317
     27          6           0       -7.173025    0.342025   -0.154482
     28          1           0       -4.655023    0.498824   -1.295551
     29          1           0       -4.981457   -1.182999   -0.888079
     30          1           0       -5.522376    1.208953    0.939460
     31          1           0       -5.848523   -0.471699    1.347671
     32          1           0       -7.476166   -0.625979   -0.566396
     33          1           0       -7.148166    1.064222   -0.976926
     34          1           0       -7.940602    0.663630    0.556331
 ---------------------------------------------------------------------

 SCF Done:  E(RHF) =  -669.535054954     A.U. after   15 cycles
 E2 =    -0.2092201747D+01 EUMP2 =    -0.67162725670099D+03

 The electronic state is 1-A.
 Alpha  occ. eigenvalues --  -20.60749 -20.60740 -15.85800 -11.31152 -11.27758
 Alpha  occ. eigenvalues --  -11.27738 -11.27511 -11.26754 -11.26743 -11.21741
 Alpha  occ. eigenvalues --  -11.21645 -11.21538 -11.21477 -11.21191 -11.21050
 Alpha  occ. eigenvalues --   -1.59821  -1.39374  -1.19353  -1.08745  -1.08543
 Alpha  occ. eigenvalues --   -1.04764  -1.03616  -0.96075  -0.95575  -0.87096
 Alpha  occ. eigenvalues --   -0.86150  -0.82414  -0.79693  -0.78367  -0.77450
 Alpha  occ. eigenvalues --   -0.72019  -0.71145  -0.70464  -0.65178  -0.65006
 Alpha  occ. eigenvalues --   -0.64761  -0.62109  -0.61019  -0.59435  -0.57683
 Alpha  occ. eigenvalues --   -0.55399  -0.55265  -0.53250  -0.52859  -0.52651
 Alpha  occ. eigenvalues --   -0.52422  -0.49995  -0.48778  -0.48771  -0.48006
 Alpha  occ. eigenvalues --   -0.46719  -0.45908  -0.45831  -0.44783  -0.43874
 Alpha  occ. eigenvalues --   -0.37331  -0.36280
 Alpha virt. eigenvalues --    0.05068   0.11240   0.16472   0.21245   0.22767
 Alpha virt. eigenvalues --    0.24188   0.26451   0.26629   0.27482   0.27917
 Alpha virt. eigenvalues --    0.28767   0.30257   0.31464   0.31736   0.32050

 Mulliken charges:
               1
     1  C   -0.170694
     2  C   -0.218975
     3  C   -0.171054
     4  C    0.157367
     5  C   -0.163990
     6  C   -0.220499
     7  H    0.225484
     8  H    0.223248
     9  H    0.275585
    10  H    0.277122
    11  H    0.223368
    12  N    0.487999
    13  O   -0.460073
    14  O   -0.460885
    15  C   -0.297916
    16  C   -0.300346
    17  C   -0.478058
    18  H    0.145057
    19  H    0.150512
    20  H    0.150513
    21  H    0.154562
    22  H    0.158324
    23  H    0.149568
    24  H    0.163231
    25  C   -0.298207
    26  C   -0.299526
    27  C   -0.475725
    28  H    0.148859
    29  H    0.151247
    30  H    0.150174
    31  H    0.152535
    32  H    0.156110
    33  H    0.154819
    34  H    0.160262
 Sum of Mulliken charges =  -0.00000

 Dipole moment (field-independent basis, Debye):
    X=             -1.2962    Y=              4.9908    Z=              0.0226  Tot=              5.1564
 Quadrupole moment (field-independent basis, Debye-Ang):
   XX=           -103.2133   YY=            -94.5559   ZZ=            -91.9783
   XY=             17.3166   XZ=             -3.0912   YZ=             -0.4134

 Normal termination of Gaussian 16 at Thu May  6 10:46:05 2021.
