 Gaussian 16, Revision A.03,
 Gaussian 16:  EM64L-G16RevA.03 25-Dec-2016

 -------------
 #p 6-31g* mp2
 -------------

 ------------------------------------------------------
 Input file generated by CHIRIPA (05-May-2021 14:57:25)
 ------------------------------------------------------
 Symbolic Z-matrix:
 Charge =  0 Multiplicity = 1

                         Standard orientation:
 ---------------------------------------------------------------------
 Center     Atomic      Atomic             Coordinates (Angstroms)
 Number     Number       Type             X           Y           Z
 ---------------------------------------------------------------------
      1          6           0        1.523237    2.220844   -1.173514
      2          6           0        0.854113    0.994993   -1.095517
      3          6           0        1.467107   -0.111935   -0.500960
      4          6           0        2.755749    0.043189    0.007596
      5          6           0        3.448401    1.251330   -0.054980
      6          6           0        2.815966    2.344881   -0.653913
      7          1           0        1.039497    3.075536   -1.637080
      8          1           0       -0.149900    0.895746   -1.498201
      9          1           0        0.972025   -1.072598   -0.427224
     10          1           0        4.448605    1.319525    0.355338
     11          1           0        3.338021    3.295672   -0.713087
     12          7           0        3.414989   -1.121585    0.639343
     13          8           0        4.550829   -0.958970    1.079866
     14          8           0        2.783379   -2.175096    0.682021
     15          6           0       -2.146929   -1.932148   -1.702359
     16          6           0       -2.562022   -0.642999   -2.052095
     17          6           0       -2.841896    0.305387   -1.063772
     18          6           0       -2.695452   -0.071099    0.270433
     19          6           0       -2.283767   -1.347506    0.650682
     20          6           0       -2.009369   -2.279673   -0.354464
     21          1           0       -1.931643   -2.662577   -2.476647
     22          1           0       -2.669722   -0.370309   -3.098081
     23          1           0       -3.164908    1.310465   -1.306469
     24          1           0       -2.185557   -1.589868    1.701887
     25          1           0       -1.687176   -3.280102   -0.079913
     26          7           0       -2.988844    0.924330    1.325630
     27          8           0       -2.852102    0.567768    2.493878
     28          8           0       -3.349991    2.042262    0.964467
 ---------------------------------------------------------------------

 SCF Done:  E(RHF) =  -868.337676420     A.U. after   16 cycles
 E2 =    -0.2603102310D+01 EUMP2 =    -0.87094077873028D+03

 The electronic state is 1-A.
 Alpha  occ. eigenvalues --  -20.61434 -20.61405 -20.60831 -20.60803 -15.86484
 Alpha  occ. eigenvalues --  -15.85867 -11.32057 -11.31096 -11.28680 -11.28577
 Alpha  occ. eigenvalues --  -11.28392 -11.27730 -11.27651 -11.27608 -11.27594
 Alpha  occ. eigenvalues --  -11.27355 -11.26644 -11.26500  -1.60493  -1.59893
 Alpha  occ. eigenvalues --   -1.40041  -1.39453  -1.20290  -1.19250  -1.09602
 Alpha  occ. eigenvalues --   -1.08674  -1.05703  -1.04630  -0.96397  -0.95534
 Alpha  occ. eigenvalues --   -0.87038  -0.86047  -0.83211  -0.82373  -0.78232
 Alpha  occ. eigenvalues --   -0.77448  -0.72692  -0.72094  -0.71825  -0.71295
 Alpha  occ. eigenvalues --   -0.71210  -0.70377  -0.65886  -0.65610  -0.64904
 Alpha  occ. eigenvalues --   -0.64677  -0.62981  -0.62069  -0.56105  -0.55239
 Alpha  occ. eigenvalues --   -0.53963  -0.53706  -0.52966  -0.52648  -0.49470
 Alpha  occ. eigenvalues --   -0.49436  -0.48856  -0.48828  -0.45400  -0.44889
 Alpha  occ. eigenvalues --   -0.38312  -0.37332  -0.37177  -0.36177
 Alpha virt. eigenvalues --    0.04246   0.05087   0.10123   0.11526   0.15644
 Alpha virt. eigenvalues --    0.16609   0.20618   0.21874   0.26450   0.27534
 Alpha virt. eigenvalues --    0.27804   0.28461   0.30351   0.31539   0.31909

 Mulliken charges:
               1
     1  C   -0.171441
     2  C   -0.225038
     3  C   -0.177976
     4  C    0.159369
     5  C   -0.170790
     6  C   -0.218052
     7  H    0.225744
     8  H    0.229825
     9  H    0.272925
    10  H    0.275182
    11  H    0.223579
    12  N    0.488500
    13  O   -0.459421
    14  O   -0.465234
    15  C   -0.172599
    16  C   -0.224243
    17  C   -0.187520
    18  C    0.166156
    19  C   -0.170331
    20  C   -0.223712
    21  H    0.232013
    22  H    0.226654
    23  H    0.276411
    24  H    0.282968
    25  H    0.234655
    26  N    0.488551
    27  O   -0.454854
    28  O   -0.461322
 Sum of Mulliken charges =  -0.00000

 Dipole moment (field-independent basis, Debye):
    X=             -1.5648    Y=              0.4483    Z=             -5.7943  Tot=              6.0186
 Quadrupole moment (field-independent basis, Debye-Ang):
   XX=           -120.3573   YY=           -100.3628   ZZ=           -105.1452
   XY=             23.0608   XZ=              5.8081   YZ=             -2.7735

 Normal termination of Gaussian 16 at Thu May  6 16:23:32 2021.
