 Gaussian 16, Revision A.03,
 Gaussian 16:  EM64L-G16RevA.03 25-Dec-2016

 -------------
 #p 6-31g* mp2
 -------------

 ------------------------------------------------------
 Input file generated by CHIRIPA (05-May-2021 14:51:11)
 ------------------------------------------------------
 Symbolic Z-matrix:
 Charge =  0 Multiplicity = 1

                         Standard orientation:
 ---------------------------------------------------------------------
 Center     Atomic      Atomic             Coordinates (Angstroms)
 Number     Number       Type             X           Y           Z
 ---------------------------------------------------------------------
      1          6           0       -2.416611   -0.767387   -0.126764
      2          6           0       -2.393607   -2.132374    0.561905
      3          6           0       -1.140837   -2.942434    0.226997
      4          1           0       -2.350966   -0.911153   -1.213947
      5          1           0       -1.522642   -0.200589    0.168116
      6          1           0       -3.288053   -2.695893    0.266898
      7          1           0       -2.459507   -1.985350    1.647565
      8          1           0       -0.239514   -2.403859    0.537089
      9          1           0       -1.072768   -3.118439   -0.851423
     10          1           0       -1.145028   -3.914559    0.729805
     11          6           0       -3.662822    0.054222    0.198264
     12          6           0       -3.685826    1.419209   -0.490405
     13          6           0       -4.938596    2.229269   -0.155498
     14          1           0       -4.556791   -0.512576   -0.096616
     15          1           0       -3.728467    0.197988    1.285447
     16          1           0       -3.619926    1.272185   -1.576065
     17          1           0       -2.791380    1.982728   -0.195398
     18          1           0       -5.006665    2.405274    0.922922
     19          1           0       -5.839919    1.690694   -0.465589
     20          1           0       -4.934405    3.201394   -0.658305
     21          6           0        2.655359   -0.296459   -0.131863
     22          6           0        3.557343   -1.530422   -0.173619
     23          6           0        2.773808   -2.829152   -0.366409
     24          1           0        1.926051   -0.410593    0.681788
     25          1           0        2.077061   -0.241868   -1.064594
     26          1           0        4.134784   -1.581906    0.758330
     27          1           0        4.284711   -1.413251   -0.987143
     28          1           0        2.210281   -2.803422   -1.304693
     29          1           0        2.059502   -2.973037    0.450698
     30          1           0        3.438087   -3.698559   -0.393356
     31          6           0        3.424074    1.009624    0.060365
     32          6           0        2.522090    2.243587    0.102119
     33          6           0        3.305624    3.542318    0.294910
     34          1           0        4.002373    0.955034    0.993095
     35          1           0        4.153382    1.123759   -0.753287
     36          1           0        1.794722    2.126417    0.915644
     37          1           0        1.944650    2.295071   -0.829830
     38          1           0        4.019931    3.686201   -0.522198
     39          1           0        3.869152    3.516589    1.233193
     40          1           0        2.641346    4.411724    0.321857
 ---------------------------------------------------------------------

 SCF Done:  E(RHF) =  -470.732928268     A.U. after   11 cycles
 E2 =    -0.1583105625D+01 EUMP2 =    -0.47231603389284D+03

 The electronic state is 1-A.
 Alpha  occ. eigenvalues --  -11.21627 -11.21583 -11.21577 -11.21545 -11.21427
 Alpha  occ. eigenvalues --  -11.21368 -11.21367 -11.21306 -11.21090 -11.21054
 Alpha  occ. eigenvalues --  -11.20973 -11.20965  -1.08444  -1.08388  -1.03543
 Alpha  occ. eigenvalues --   -1.03472  -0.96007  -0.95903  -0.87049  -0.86896
 Alpha  occ. eigenvalues --   -0.79676  -0.79473  -0.78298  -0.78156  -0.65099
 Alpha  occ. eigenvalues --   -0.65000  -0.61008  -0.60818  -0.59366  -0.59289
 Alpha  occ. eigenvalues --   -0.57698  -0.57450  -0.55371  -0.55126  -0.52704
 Alpha  occ. eigenvalues --   -0.52660  -0.52533  -0.52161  -0.50046  -0.49762
 Alpha  occ. eigenvalues --   -0.48117  -0.47658  -0.46741  -0.46484  -0.45955
 Alpha  occ. eigenvalues --   -0.45741  -0.45688  -0.45422  -0.43785  -0.43742
 Alpha virt. eigenvalues --    0.21272   0.23223   0.23415   0.24848   0.25498
 Alpha virt. eigenvalues --    0.26678   0.26728   0.27260   0.28709   0.29478
 Alpha virt. eigenvalues --    0.30061   0.31516   0.31722   0.31897   0.32101

 Mulliken charges:
               1
     1  C   -0.298931
     2  C   -0.299954
     3  C   -0.479401
     4  H    0.149308
     5  H    0.150601
     6  H    0.151535
     7  H    0.151207
     8  H    0.160846
     9  H    0.155076
    10  H    0.159430
    11  C   -0.298194
    12  C   -0.299679
    13  C   -0.475667
    14  H    0.149441
    15  H    0.149407
    16  H    0.151771
    17  H    0.152182
    18  H    0.155096
    19  H    0.155124
    20  H    0.160148
    21  C   -0.299922
    22  C   -0.300072
    23  C   -0.478468
    24  H    0.149421
    25  H    0.150619
    26  H    0.151547
    27  H    0.151810
    28  H    0.155971
    29  H    0.159871
    30  H    0.159669
    31  C   -0.298283
    32  C   -0.299692
    33  C   -0.475697
    34  H    0.149527
    35  H    0.150000
    36  H    0.151202
    37  H    0.152338
    38  H    0.155338
    39  H    0.155202
    40  H    0.160275
 Sum of Mulliken charges =  -0.00000

 Dipole moment (field-independent basis, Debye):
    X=              0.0293    Y=             -0.0072    Z=             -0.0135  Tot=              0.0331
 Quadrupole moment (field-independent basis, Debye-Ang):
   XX=            -85.5800   YY=            -86.1552   ZZ=            -83.1210
   XY=              0.3535   XZ=              0.3720   YZ=              0.0002

 Normal termination of Gaussian 16 at Thu May  6 00:41:55 2021.
