 Gaussian 16, Revision A.03,
 Gaussian 16:  EM64L-G16RevA.03 25-Dec-2016

 -------------
 #p 6-31g* mp2
 -------------

 ------------------------------------------------------
 Input file generated by CHIRIPA (05-May-2021 14:51:08)
 ------------------------------------------------------
 Symbolic Z-matrix:
 Charge =  0 Multiplicity = 1

                         Standard orientation:
 ---------------------------------------------------------------------
 Center     Atomic      Atomic             Coordinates (Angstroms)
 Number     Number       Type             X           Y           Z
 ---------------------------------------------------------------------
      1          6           0       -3.147337   -0.028942    0.103847
      2          6           0       -2.584025   -1.379716    0.546649
      3          6           0       -1.055386   -1.412170    0.544300
      4          1           0       -2.775774    0.203668   -0.903515
      5          1           0       -2.761960    0.756789    0.768306
      6          1           0       -2.971447   -2.162845   -0.117601
      7          1           0       -2.957125   -1.609226    1.552998
      8          1           0       -0.652875   -0.651625    1.221173
      9          1           0       -0.667279   -1.208389   -0.458919
     10          1           0       -0.674034   -2.386944    0.864060
     11          6           0       -4.674232    0.019133    0.101005
     12          6           0       -5.237545    1.369907   -0.341797
     13          6           0       -6.766183    1.402361   -0.339448
     14          1           0       -5.059609   -0.766598   -0.563454
     15          1           0       -5.045795   -0.213477    1.108367
     16          1           0       -4.864444    1.599417   -1.348146
     17          1           0       -4.850122    2.153036    0.322453
     18          1           0       -7.154291    1.198580    0.663771
     19          1           0       -7.168694    0.641816   -1.016321
     20          1           0       -7.147535    2.377135   -0.659208
     21          6           0        4.534564    0.438883   -0.179847
     22          6           0        4.327034    1.884950    0.271600
     23          6           0        5.583870    2.740660    0.110601
     24          1           0        5.357864   -0.004093    0.397123
     25          1           0        4.851353    0.432449   -1.231987
     26          1           0        4.009394    1.888587    1.322175
     27          1           0        3.504006    2.324475   -0.306377
     28          1           0        5.900506    2.766817   -0.937091
     29          1           0        6.408765    2.328451    0.700715
     30          1           0        5.413157    3.770569    0.439238
     31          6           0        3.287005   -0.429073   -0.025005
     32          6           0        3.494535   -1.875141   -0.476453
     33          6           0        2.237699   -2.730850   -0.315453
     34          1           0        2.970217   -0.422640    1.027135
     35          1           0        2.463705    0.013902   -0.601976
     36          1           0        4.317563   -2.314666    0.101525
     37          1           0        3.812175   -1.878778   -1.527028
     38          1           0        1.412804   -2.318642   -0.905567
     39          1           0        1.921063   -2.757007    0.732239
     40          1           0        2.408412   -3.760760   -0.644090
 ---------------------------------------------------------------------

 SCF Done:  E(RHF) =  -470.732179555     A.U. after   11 cycles
 E2 =    -0.1583054335D+01 EUMP2 =    -0.47231523389065D+03

 The electronic state is 1-A.
 Alpha  occ. eigenvalues --  -11.21588 -11.21569 -11.21533 -11.21511 -11.21379
 Alpha  occ. eigenvalues --  -11.21349 -11.21320 -11.21285 -11.21061 -11.21047
 Alpha  occ. eigenvalues --  -11.20961 -11.20890  -1.08405  -1.08365  -1.03528
 Alpha  occ. eigenvalues --   -1.03431  -0.96022  -0.95839  -0.87095  -0.86807
 Alpha  occ. eigenvalues --   -0.79705  -0.79397  -0.78245  -0.78140  -0.65053
 Alpha  occ. eigenvalues --   -0.64986  -0.60987  -0.60790  -0.59376  -0.59250
 Alpha  occ. eigenvalues --   -0.57582  -0.57503  -0.55386  -0.55069  -0.52908
 Alpha  occ. eigenvalues --   -0.52610  -0.52365  -0.52072  -0.50057  -0.49691
 Alpha  occ. eigenvalues --   -0.47938  -0.47766  -0.46702  -0.46432  -0.45842
 Alpha  occ. eigenvalues --   -0.45699  -0.45657  -0.45555  -0.43721  -0.43692
 Alpha virt. eigenvalues --    0.22192   0.23022   0.23632   0.24754   0.25918
 Alpha virt. eigenvalues --    0.26677   0.26863   0.27458   0.27888   0.29324
 Alpha virt. eigenvalues --    0.29473   0.31125   0.31661   0.32002   0.32457

 Mulliken charges:
               1
     1  C   -0.298452
     2  C   -0.300711
     3  C   -0.475590
     4  H    0.149207
     5  H    0.149431
     6  H    0.151621
     7  H    0.151427
     8  H    0.154858
     9  H    0.154927
    10  H    0.163668
    11  C   -0.298160
    12  C   -0.299583
    13  C   -0.475678
    14  H    0.149444
    15  H    0.149614
    16  H    0.151790
    17  H    0.151883
    18  H    0.155166
    19  H    0.155151
    20  H    0.160177
    21  C   -0.298218
    22  C   -0.299552
    23  C   -0.475657
    24  H    0.149519
    25  H    0.149295
    26  H    0.151750
    27  H    0.151899
    28  H    0.155112
    29  H    0.155117
    30  H    0.160096
    31  C   -0.298209
    32  C   -0.300133
    33  C   -0.477638
    34  H    0.149567
    35  H    0.149891
    36  H    0.151201
    37  H    0.151107
    38  H    0.160227
    39  H    0.156021
    40  H    0.158414
 Sum of Mulliken charges =  -0.00000

 Dipole moment (field-independent basis, Debye):
    X=             -0.0116    Y=             -0.0138    Z=              0.0089  Tot=              0.0201
 Quadrupole moment (field-independent basis, Debye-Ang):
   XX=            -86.9169   YY=            -85.2757   ZZ=            -82.9211
   XY=             -0.4357   XZ=              0.3128   YZ=              0.0958

 Normal termination of Gaussian 16 at Thu May  6 05:17:29 2021.
