 Gaussian 16, Revision A.03,
 Gaussian 16:  EM64L-G16RevA.03 25-Dec-2016

 -------------
 #p 6-31g* mp2
 -------------

 ------------------------------------------------------
 Input file generated by CHIRIPA (05-May-2021 14:53:17)
 ------------------------------------------------------
 Symbolic Z-matrix:
 Charge =  0 Multiplicity = 1

                         Standard orientation:
 ---------------------------------------------------------------------
 Center     Atomic      Atomic             Coordinates (Angstroms)
 Number     Number       Type             X           Y           Z
 ---------------------------------------------------------------------
      1          6           0       -4.602684   -0.309165    0.259643
      2          6           0       -5.859823    0.129960   -0.491859
      3          6           0       -7.074508    0.279423    0.424655
      4          1           0       -4.800848   -1.263405    0.766694
      5          1           0       -4.380481    0.423406    1.047908
      6          1           0       -6.078799   -0.602498   -1.279369
      7          1           0       -5.658583    1.083170   -0.997337
      8          1           0       -6.880709    1.024978    1.202594
      9          1           0       -7.303313   -0.670268    0.918960
     10          1           0       -7.962044    0.594006   -0.133178
     11          6           0       -3.379917   -0.462949   -0.643086
     12          6           0       -2.122778   -0.902073    0.108416
     13          6           0       -0.908093   -1.051536   -0.808098
     14          1           0       -3.602121   -1.195519   -1.431350
     15          1           0       -3.181753    0.491292   -1.150137
     16          1           0       -2.324019   -1.855284    0.613894
     17          1           0       -1.903802   -0.169616    0.895926
     18          1           0       -0.679288   -0.101846   -1.302403
     19          1           0       -1.101893   -1.797091   -1.586037
     20          1           0       -0.020557   -1.366120   -0.250265
     21          6           0        1.486485    2.213195    0.371694
     22          6           0        1.316768    1.055441    1.138063
     23          6           0        2.214712   -0.009959    1.023309
     24          6           0        3.275952    0.116802    0.128328
     25          6           0        3.471884    1.257286   -0.648971
     26          6           0        2.561606    2.310253   -0.517809
     27          1           0        0.784149    3.035995    0.467211
     28          1           0        0.482733    0.977286    1.829672
     29          1           0        2.107005   -0.917738    1.604477
     30          1           0        4.312968    1.305899   -1.329876
     31          1           0        2.695892    3.208176   -1.114253
     32          7           0        4.233094   -1.004507   -0.001841
     33          8           0        5.159879   -0.868098   -0.797517
     34          8           0        4.038394   -1.998568    0.694272
 ---------------------------------------------------------------------

 SCF Done:  E(RHF) =  -669.534454847     A.U. after   15 cycles
 E2 =    -0.2092990996D+01 EUMP2 =    -0.67162744584221D+03

 The electronic state is 1-A.
 Alpha  occ. eigenvalues --  -20.60780 -20.60774 -15.85833 -11.31213 -11.27766
 Alpha  occ. eigenvalues --  -11.27760 -11.27518 -11.26804 -11.26780 -11.22123
 Alpha  occ. eigenvalues --  -11.21974 -11.21847 -11.21784 -11.21403 -11.21284
 Alpha  occ. eigenvalues --   -1.59854  -1.39408  -1.19387  -1.08864  -1.08774
 Alpha  occ. eigenvalues --   -1.04804  -1.03915  -0.96343  -0.95612  -0.87355
 Alpha  occ. eigenvalues --   -0.86191  -0.82445  -0.79992  -0.78681  -0.77490
 Alpha  occ. eigenvalues --   -0.72052  -0.71177  -0.70499  -0.65513  -0.65041
 Alpha  occ. eigenvalues --   -0.64791  -0.62170  -0.61315  -0.59740  -0.57980
 Alpha  occ. eigenvalues --   -0.55663  -0.55291  -0.53456  -0.52884  -0.52813
 Alpha  occ. eigenvalues --   -0.52591  -0.50255  -0.48814  -0.48806  -0.48302
 Alpha  occ. eigenvalues --   -0.47036  -0.46212  -0.46152  -0.44812  -0.44182
 Alpha  occ. eigenvalues --   -0.37358  -0.36295
 Alpha virt. eigenvalues --    0.05028   0.11138   0.16465   0.20386   0.22651
 Alpha virt. eigenvalues --    0.23994   0.25574   0.26581   0.27165   0.28127
 Alpha virt. eigenvalues --    0.28512   0.29761   0.31195   0.31419   0.32092

 Mulliken charges:
               1
     1  C   -0.298066
     2  C   -0.299803
     3  C   -0.475826
     4  H    0.151193
     5  H    0.146449
     6  H    0.153484
     7  H    0.151146
     8  H    0.154353
     9  H    0.156172
    10  H    0.161292
    11  C   -0.297903
    12  C   -0.300995
    13  C   -0.475469
    14  H    0.152659
    15  H    0.147803
    16  H    0.154425
    17  H    0.140721
    18  H    0.154694
    19  H    0.157217
    20  H    0.161930
    21  C   -0.172671
    22  C   -0.212204
    23  C   -0.173567
    24  C    0.159669
    25  C   -0.171179
    26  C   -0.218199
    27  H    0.225353
    28  H    0.225177
    29  H    0.275570
    30  H    0.275690
    31  H    0.223514
    32  N    0.488188
    33  O   -0.460184
    34  O   -0.460632
 Sum of Mulliken charges =  -0.00000

 Dipole moment (field-independent basis, Debye):
    X=             -3.3775    Y=              3.9273    Z=              0.4070  Tot=              5.1959
 Quadrupole moment (field-independent basis, Debye-Ang):
   XX=           -116.7734   YY=            -91.9699   ZZ=            -93.0464
   XY=             14.7073   XZ=             -0.3045   YZ=             -1.3892

 Normal termination of Gaussian 16 at Thu May  6 20:32:14 2021.
