 Gaussian 16, Revision A.03,
 Gaussian 16:  EM64L-G16RevA.03 25-Dec-2016

 -------------
 #p 6-31g* mp2
 -------------

 ------------------------------------------------------
 Input file generated by CHIRIPA (05-May-2021 14:53:18)
 ------------------------------------------------------
 Symbolic Z-matrix:
 Charge =  0 Multiplicity = 1

                         Standard orientation:
 ---------------------------------------------------------------------
 Center     Atomic      Atomic             Coordinates (Angstroms)
 Number     Number       Type             X           Y           Z
 ---------------------------------------------------------------------
      1          6           0        5.972204    0.225900    0.030949
      2          6           0        6.882927   -0.955130   -0.306298
      3          6           0        8.353927   -0.553767   -0.419711
      4          1           0        6.084247    0.999302   -0.741218
      5          1           0        6.303932    0.677525    0.976140
      6          1           0        6.548730   -1.405248   -1.249867
      7          1           0        6.768560   -1.725891    0.466659
      8          1           0        8.709792   -0.124270    0.522357
      9          1           0        8.488713    0.198195   -1.203922
     10          1           0        8.987080   -1.413183   -0.661334
     11          6           0        4.498571   -0.159463    0.147688
     12          6           0        3.587848    1.021568    0.484934
     13          6           0        2.116848    0.620205    0.598347
     14          1           0        4.166843   -0.611087   -0.797504
     15          1           0        4.386528   -0.932864    0.919854
     16          1           0        3.702215    1.792329   -0.288023
     17          1           0        3.922045    1.471686    1.428503
     18          1           0        1.982062   -0.131757    1.382558
     19          1           0        1.760983    0.190708   -0.343721
     20          1           0        1.483695    1.479621    0.839970
     21          6           0       -1.698302    0.774764   -0.131849
     22          6           0       -1.977652   -0.580828    0.070271
     23          6           0       -3.299131   -1.035725    0.106496
     24          6           0       -4.321381   -0.103363   -0.063780
     25          6           0       -4.075225    1.253624   -0.266969
     26          6           0       -2.746132    1.686057   -0.299528
     27          1           0       -0.668787    1.119414   -0.158565
     28          1           0       -1.165902   -1.290809    0.200791
     29          1           0       -3.543779   -2.079554    0.261370
     30          1           0       -4.905594    1.937570   -0.393948
     31          1           0       -2.532159    2.739418   -0.456665
     32          7           0       -5.724402   -0.573052   -0.027371
     33          8           0       -6.607128    0.268453   -0.180025
     34          8           0       -5.914798   -1.773803    0.153131
 ---------------------------------------------------------------------

 SCF Done:  E(RHF) =  -669.535393409     A.U. after   15 cycles
 E2 =    -0.2091137521D+01 EUMP2 =    -0.67162653093000D+03

 The electronic state is 1-A.
 Alpha  occ. eigenvalues --  -20.60674 -20.60669 -15.85728 -11.31062 -11.27637
 Alpha  occ. eigenvalues --  -11.27632 -11.27269 -11.26626 -11.26609 -11.22661
 Alpha  occ. eigenvalues --  -11.22542 -11.22224 -11.22147 -11.22028 -11.21521
 Alpha  occ. eigenvalues --   -1.59751  -1.39305  -1.19229  -1.09231  -1.08619
 Alpha  occ. eigenvalues --   -1.04633  -1.04385  -0.96876  -0.95460  -0.87908
 Alpha  occ. eigenvalues --   -0.86024  -0.82304  -0.80470  -0.78987  -0.77359
 Alpha  occ. eigenvalues --   -0.71945  -0.71074  -0.70336  -0.65853  -0.64875
 Alpha  occ. eigenvalues --   -0.64638  -0.61986  -0.61774  -0.60306  -0.58441
 Alpha  occ. eigenvalues --   -0.56192  -0.55182  -0.53448  -0.53293  -0.52956
 Alpha  occ. eigenvalues --   -0.52717  -0.50790  -0.48777  -0.48702  -0.48696
 Alpha  occ. eigenvalues --   -0.47461  -0.46544  -0.46428  -0.44718  -0.44612
 Alpha  occ. eigenvalues --   -0.37191  -0.36246
 Alpha virt. eigenvalues --    0.05172   0.11404   0.16649   0.20368   0.22278
 Alpha virt. eigenvalues --    0.23753   0.25773   0.25978   0.26629   0.27445
 Alpha virt. eigenvalues --    0.29202   0.29858   0.30505   0.31358   0.32107

 Mulliken charges:
               1
     1  C   -0.299044
     2  C   -0.300235
     3  C   -0.476137
     4  H    0.150653
     5  H    0.150953
     6  H    0.152508
     7  H    0.152722
     8  H    0.155952
     9  H    0.155798
    10  H    0.161903
    11  C   -0.299734
    12  C   -0.298841
    13  C   -0.485077
    14  H    0.150130
    15  H    0.150925
    16  H    0.154136
    17  H    0.156186
    18  H    0.160015
    19  H    0.152506
    20  H    0.157637
    21  C   -0.176927
    22  C   -0.222480
    23  C   -0.170982
    24  C    0.157995
    25  C   -0.170739
    26  C   -0.220622
    27  H    0.237815
    28  H    0.223731
    29  H    0.275023
    30  H    0.274985
    31  H    0.222897
    32  N    0.488060
    33  O   -0.460851
    34  O   -0.460861
 Sum of Mulliken charges =  -0.00000

 Dipole moment (field-independent basis, Debye):
    X=              5.2950    Y=              1.6527    Z=             -0.0973  Tot=              5.5478
 Quadrupole moment (field-independent basis, Debye-Ang):
   XX=           -137.8657   YY=            -90.7894   ZZ=            -94.4855
   XY=             -9.5659   XZ=              0.8548   YZ=             -1.1050

 Normal termination of Gaussian 16 at Thu May  6 04:25:56 2021.
