 Gaussian 16, Revision A.03,
 Gaussian 16:  EM64L-G16RevA.03 25-Dec-2016

 -------------
 #p 6-31g* mp2
 -------------

 ------------------------------------------------------
 Input file generated by CHIRIPA (05-May-2021 14:55:21)
 ------------------------------------------------------
 Symbolic Z-matrix:
 Charge =  0 Multiplicity = 1

                         Standard orientation:
 ---------------------------------------------------------------------
 Center     Atomic      Atomic             Coordinates (Angstroms)
 Number     Number       Type             X           Y           Z
 ---------------------------------------------------------------------
      1          6           0        2.884845    2.663174    0.052133
      2          6           0        2.932997    1.952383    1.255868
      3          6           0        2.986511    0.555358    1.253842
      4          6           0        2.990342   -0.101675    0.024378
      5          6           0        2.943159    0.578253   -1.191666
      6          6           0        2.890071    1.975054   -1.165646
      7          1           0        2.843439    3.748330    0.063026
      8          1           0        2.929065    2.484145    2.203105
      9          1           0        3.024487   -0.019841    2.170970
     10          1           0        2.948418    0.020333   -2.120168
     11          1           0        2.852748    2.524450   -2.102030
     12          7           0        3.046769   -1.580524    0.009532
     13          8           0        3.049013   -2.135872   -1.086926
     14          8           0        3.087685   -2.156296    1.094635
     15          6           0       -3.201791   -0.549801    0.232322
     16          6           0       -1.930586   -0.268601   -0.569519
     17          6           0       -0.710919   -1.011877   -0.023853
     18          1           0       -3.036603   -0.266227    1.280771
     19          1           0       -3.397964   -1.630955    0.228126
     20          1           0       -1.737634    0.811846   -0.564973
     21          1           0       -2.098883   -0.552699   -1.616218
     22          1           0       -0.878261   -2.093633   -0.043871
     23          1           0       -0.514959   -0.721336    1.013348
     24          1           0        0.186689   -0.796497   -0.611875
     25          6           0       -4.429676    0.186134   -0.300992
     26          6           0       -5.700881   -0.095066    0.500849
     27          6           0       -6.920547    0.648209   -0.044818
     28          1           0       -4.233503    1.267288   -0.296797
     29          1           0       -4.594864   -0.097440   -1.349440
     30          1           0       -5.532584    0.189032    1.547549
     31          1           0       -5.893834   -1.175513    0.496303
     32          1           0       -7.116508    0.357669   -1.082019
     33          1           0       -6.753206    1.729966   -0.024800
     34          1           0       -7.818156    0.432830    0.543204
 ---------------------------------------------------------------------

 SCF Done:  E(RHF) =  -669.535153776     A.U. after   15 cycles
 E2 =    -0.2092619896D+01 EUMP2 =    -0.67162777367171D+03

 The electronic state is 1-A.
 Alpha  occ. eigenvalues --  -20.60777 -20.60765 -15.85807 -11.31178 -11.27753
 Alpha  occ. eigenvalues --  -11.27748 -11.27507 -11.26798 -11.26787 -11.21566
 Alpha  occ. eigenvalues --  -11.21473 -11.21345 -11.21255 -11.21066 -11.20767
 Alpha  occ. eigenvalues --   -1.59835  -1.39391  -1.19371  -1.08765  -1.08345
 Alpha  occ. eigenvalues --   -1.04777  -1.03426  -0.95870  -0.95594  -0.86892
 Alpha  occ. eigenvalues --   -0.86175  -0.82428  -0.79501  -0.78162  -0.77471
 Alpha  occ. eigenvalues --   -0.72037  -0.71165  -0.70477  -0.65025  -0.64977
 Alpha  occ. eigenvalues --   -0.64782  -0.62125  -0.60820  -0.59268  -0.57498
 Alpha  occ. eigenvalues --   -0.55279  -0.55155  -0.53271  -0.52869  -0.52422
 Alpha  occ. eigenvalues --   -0.52253  -0.49794  -0.48797  -0.48793  -0.47810
 Alpha  occ. eigenvalues --   -0.46528  -0.45701  -0.45629  -0.44783  -0.43695
 Alpha  occ. eigenvalues --   -0.37296  -0.36373
 Alpha virt. eigenvalues --    0.05058   0.11178   0.16553   0.21399   0.22938
 Alpha virt. eigenvalues --    0.24374   0.26727   0.27278   0.27589   0.27815
 Alpha virt. eigenvalues --    0.28401   0.30745   0.31460   0.31736   0.31944

 Mulliken charges:
               1
     1  C   -0.171245
     2  C   -0.218303
     3  C   -0.171046
     4  C    0.159976
     5  C   -0.174440
     6  C   -0.217257
     7  H    0.225517
     8  H    0.223388
     9  H    0.275601
    10  H    0.275577
    11  H    0.223615
    12  N    0.491995
    13  O   -0.460694
    14  O   -0.459403
    15  C   -0.298321
    16  C   -0.299407
    17  C   -0.478439
    18  H    0.148614
    19  H    0.151765
    20  H    0.147905
    21  H    0.152110
    22  H    0.162916
    23  H    0.152969
    24  H    0.158449
    25  C   -0.297947
    26  C   -0.299570
    27  C   -0.475581
    28  H    0.147382
    29  H    0.149779
    30  H    0.151419
    31  H    0.153012
    32  H    0.155312
    33  H    0.154069
    34  H    0.160282
 Sum of Mulliken charges =  -0.00000

 Dipole moment (field-independent basis, Debye):
    X=             -0.1487    Y=              5.1500    Z=              0.0726  Tot=              5.1527
 Quadrupole moment (field-independent basis, Debye-Ang):
   XX=            -97.8780   YY=            -95.9053   ZZ=            -89.4595
   XY=             16.5388   XZ=              0.1656   YZ=              0.6914

 Normal termination of Gaussian 16 at Thu May  6 20:42:45 2021.
