 Gaussian 16, Revision A.03,
 Gaussian 16:  EM64L-G16RevA.03 25-Dec-2016

 -------------
 #p 6-31g* mp2
 -------------

 ------------------------------------------------------
 Input file generated by CHIRIPA (05-May-2021 14:53:14)
 ------------------------------------------------------
 Symbolic Z-matrix:
 Charge =  0 Multiplicity = 1

                         Standard orientation:
 ---------------------------------------------------------------------
 Center     Atomic      Atomic             Coordinates (Angstroms)
 Number     Number       Type             X           Y           Z
 ---------------------------------------------------------------------
      1          6           0       -3.044041   -0.305390   -0.093297
      2          6           0       -4.246892   -1.124052   -0.563324
      3          6           0       -4.184079   -2.582161   -0.107509
      4          1           0       -2.122595   -0.769628   -0.470611
      5          1           0       -2.987917   -0.345612    1.003346
      6          1           0       -4.301537   -1.081159   -1.658674
      7          1           0       -5.165593   -0.657703   -0.185007
      8          1           0       -4.153100   -2.643214    0.985154
      9          1           0       -3.284134   -3.069076   -0.496885
     10          1           0       -5.053629   -3.149057   -0.454456
     11          6           0       -3.092444    1.154347   -0.541131
     12          6           0       -1.889593    1.973009   -0.071104
     13          6           0       -1.952406    3.431118   -0.526918
     14          1           0       -3.148568    1.194569   -1.637774
     15          1           0       -4.013890    1.618585   -0.163817
     16          1           0       -0.970892    1.506660   -0.449420
     17          1           0       -1.834948    1.930116    1.024246
     18          1           0       -2.852351    3.918033   -0.137543
     19          1           0       -1.983385    3.492171   -1.619582
     20          1           0       -1.082856    3.998014   -0.179972
     21          6           0        4.512081   -0.159268   -1.117065
     22          6           0        3.661198   -1.257396   -1.280263
     23          6           0        2.486681   -1.363303   -0.529369
     24          6           0        2.192592   -0.348287    0.379775
     25          6           0        3.020107    0.758131    0.565114
     26          6           0        4.189390    0.843223   -0.196521
     27          1           0        5.422441   -0.085082   -1.704549
     28          1           0        3.909268   -2.037444   -1.994428
     29          1           0        1.810094   -2.202560   -0.635647
     30          1           0        2.746098    1.519923    1.284843
     31          1           0        4.848326    1.697182   -0.067675
     32          7           0        0.951955   -0.449388    1.180399
     33          8           0        0.715421    0.458180    1.974760
     34          8           0        0.239569   -1.434284    0.998406
 ---------------------------------------------------------------------

 SCF Done:  E(RHF) =  -669.535792079     A.U. after   15 cycles
 E2 =    -0.2092940824D+01 EUMP2 =    -0.67162873290226D+03

 The electronic state is 1-A.
 Alpha  occ. eigenvalues --  -20.60959 -20.60951 -15.85953 -11.31304 -11.27867
 Alpha  occ. eigenvalues --  -11.27860 -11.27601 -11.26872 -11.26861 -11.20530
 Alpha  occ. eigenvalues --  -11.20507 -11.20320 -11.20297 -11.20042 -11.19897
 Alpha  occ. eigenvalues --   -1.59998  -1.39557  -1.19470  -1.08871  -1.07279
 Alpha  occ. eigenvalues --   -1.04866  -1.02501  -0.95712  -0.94955  -0.86267
 Alpha  occ. eigenvalues --   -0.85976  -0.82549  -0.78554  -0.77604  -0.77034
 Alpha  occ. eigenvalues --   -0.72191  -0.71293  -0.70577  -0.65125  -0.64868
 Alpha  occ. eigenvalues --   -0.63924  -0.62214  -0.59918  -0.58326  -0.56555
 Alpha  occ. eigenvalues --   -0.55369  -0.54257  -0.53198  -0.52958  -0.51709
 Alpha  occ. eigenvalues --   -0.51376  -0.48997  -0.48962  -0.48880  -0.46941
 Alpha  occ. eigenvalues --   -0.45587  -0.45025  -0.44501  -0.44317  -0.42712
 Alpha  occ. eigenvalues --   -0.37444  -0.36467
 Alpha virt. eigenvalues --    0.04893   0.11184   0.16354   0.21305   0.23889
 Alpha virt. eigenvalues --    0.25220   0.27221   0.27476   0.28114   0.28711
 Alpha virt. eigenvalues --    0.28950   0.31025   0.32086   0.32387   0.32758

 Mulliken charges:
               1
     1  C   -0.299371
     2  C   -0.299647
     3  C   -0.473424
     4  H    0.157969
     5  H    0.159565
     6  H    0.145787
     7  H    0.147922
     8  H    0.158035
     9  H    0.155644
    10  H    0.154038
    11  C   -0.299176
    12  C   -0.296521
    13  C   -0.475198
    14  H    0.142572
    15  H    0.145878
    16  H    0.140814
    17  H    0.168550
    18  H    0.153792
    19  H    0.150255
    20  H    0.156166
    21  C   -0.170566
    22  C   -0.218513
    23  C   -0.171173
    24  C    0.157263
    25  C   -0.170670
    26  C   -0.218527
    27  H    0.226060
    28  H    0.223843
    29  H    0.275509
    30  H    0.276039
    31  H    0.223924
    32  N    0.488753
    33  O   -0.457580
    34  O   -0.458012
 Sum of Mulliken charges =  -0.00000

 Dipole moment (field-independent basis, Debye):
    X=              4.6253    Y=              0.2520    Z=             -2.5704  Tot=              5.2976
 Quadrupole moment (field-independent basis, Debye-Ang):
   XX=            -76.6136   YY=            -93.1489   ZZ=            -95.9353
   XY=              0.1879   XZ=             -5.2705   YZ=              4.1247

 Normal termination of Gaussian 16 at Thu May  6 05:50:28 2021.
