 Gaussian 16, Revision A.03,
 Gaussian 16:  EM64L-G16RevA.03 25-Dec-2016

 -------------
 #p 6-31g* mp2
 -------------

 ------------------------------------------------------
 Input file generated by CHIRIPA (05-May-2021 14:53:16)
 ------------------------------------------------------
 Symbolic Z-matrix:
 Charge =  0 Multiplicity = 1

                         Standard orientation:
 ---------------------------------------------------------------------
 Center     Atomic      Atomic             Coordinates (Angstroms)
 Number     Number       Type             X           Y           Z
 ---------------------------------------------------------------------
      1          6           0        3.437165   -0.719723    0.177632
      2          6           0        2.359899   -1.591432    0.823858
      3          6           0        2.857321   -2.999373    1.152597
      4          1           0        3.793228   -1.207895   -0.739894
      5          1           0        4.301357   -0.655845    0.853269
      6          1           0        1.497441   -1.652514    0.147804
      7          1           0        2.006224   -1.101036    1.739850
      8          1           0        3.703678   -2.956867    1.845760
      9          1           0        3.192004   -3.511478    0.244667
     10          1           0        2.071234   -3.605404    1.613740
     11          6           0        2.955053    0.690738   -0.156873
     12          6           0        4.032318    1.562447   -0.803100
     13          6           0        3.534896    2.970388   -1.131839
     14          1           0        2.090860    0.626860   -0.832511
     15          1           0        2.598990    1.178910    0.760652
     16          1           0        4.385994    1.072051   -1.719091
     17          1           0        4.894777    1.623529   -0.127045
     18          1           0        3.200213    3.482493   -0.223909
     19          1           0        2.688539    2.927882   -1.825001
     20          1           0        4.320984    3.576419   -1.592981
     21          6           0       -2.843770    2.176243    1.240396
     22          6           0       -1.673516    1.435345    1.435578
     23          6           0       -1.470710    0.234406    0.749167
     24          6           0       -2.463431   -0.197974   -0.128810
     25          6           0       -3.640068    0.517713   -0.344697
     26          6           0       -3.821587    1.715873    0.352447
     27          1           0       -2.993047    3.108082    1.777787
     28          1           0       -0.912419    1.790442    2.124551
     29          1           0       -0.574164   -0.359013    0.881366
     30          1           0       -4.380739    0.138107   -1.038040
     31          1           0       -4.731411    2.289184    0.198884
     32          7           0       -2.259998   -1.467885   -0.861164
     33          8           0       -3.149806   -1.827174   -1.629141
     34          8           0       -1.214590   -2.079904   -0.653340
 ---------------------------------------------------------------------

 SCF Done:  E(RHF) =  -669.536123522     A.U. after   15 cycles
 E2 =    -0.2092331546D+01 EUMP2 =    -0.67162845506783D+03

 The electronic state is 1-A.
 Alpha  occ. eigenvalues --  -20.60865 -20.60851 -15.85899 -11.31176 -11.27757
 Alpha  occ. eigenvalues --  -11.27689 -11.27490 -11.26758 -11.26733 -11.21694
 Alpha  occ. eigenvalues --  -11.21506 -11.21356 -11.21267 -11.21223 -11.20703
 Alpha  occ. eigenvalues --   -1.59928  -1.39485  -1.19351  -1.08767  -1.08412
 Alpha  occ. eigenvalues --   -1.04740  -1.03453  -0.95907  -0.95612  -0.86926
 Alpha  occ. eigenvalues --   -0.86146  -0.82448  -0.79560  -0.78296  -0.77456
 Alpha  occ. eigenvalues --   -0.72126  -0.71242  -0.70462  -0.65074  -0.64970
 Alpha  occ. eigenvalues --   -0.64741  -0.62097  -0.60831  -0.59282  -0.57516
 Alpha  occ. eigenvalues --   -0.55257  -0.55193  -0.53079  -0.52862  -0.52564
 Alpha  occ. eigenvalues --   -0.52331  -0.49855  -0.48917  -0.48870  -0.47835
 Alpha  occ. eigenvalues --   -0.46555  -0.45791  -0.45637  -0.44875  -0.43720
 Alpha  occ. eigenvalues --   -0.37339  -0.36337
 Alpha virt. eigenvalues --    0.05004   0.11286   0.16508   0.20711   0.23019
 Alpha virt. eigenvalues --    0.24254   0.25512   0.26394   0.27859   0.28133
 Alpha virt. eigenvalues --    0.29890   0.30428   0.31411   0.31635   0.32229

 Mulliken charges:
               1
     1  C   -0.296614
     2  C   -0.318555
     3  C   -0.473471
     4  H    0.153348
     5  H    0.147958
     6  H    0.179613
     7  H    0.139199
     8  H    0.151190
     9  H    0.158577
    10  H    0.164244
    11  C   -0.299619
    12  C   -0.299378
    13  C   -0.475637
    14  H    0.152295
    15  H    0.140626
    16  H    0.154701
    17  H    0.151927
    18  H    0.151576
    19  H    0.156112
    20  H    0.160991
    21  C   -0.170226
    22  C   -0.221648
    23  C   -0.174994
    24  C    0.155142
    25  C   -0.170199
    26  C   -0.219161
    27  H    0.225589
    28  H    0.223960
    29  H    0.287904
    30  H    0.275330
    31  H    0.223339
    32  N    0.491237
    33  O   -0.459565
    34  O   -0.465793
 Sum of Mulliken charges =  -0.00000

 Dipole moment (field-independent basis, Debye):
    X=             -0.7448    Y=              4.3436    Z=              2.4402  Tot=              5.0375
 Quadrupole moment (field-independent basis, Debye-Ang):
   XX=            -87.4679   YY=            -97.9070   ZZ=            -94.4401
   XY=            -11.5788   XZ=             -4.2337   YZ=             -0.6038

 Normal termination of Gaussian 16 at Thu May  6 09:05:26 2021.
