 Gaussian 16, Revision A.03,
 Gaussian 16:  EM64L-G16RevA.03 25-Dec-2016

 -------------
 #p 6-31g* mp2
 -------------

 ------------------------------------------------------
 Input file generated by CHIRIPA (05-May-2021 14:51:08)
 ------------------------------------------------------
 Symbolic Z-matrix:
 Charge =  0 Multiplicity = 1

                         Standard orientation:
 ---------------------------------------------------------------------
 Center     Atomic      Atomic             Coordinates (Angstroms)
 Number     Number       Type             X           Y           Z
 ---------------------------------------------------------------------
      1          6           0        2.192332    1.152868   -0.346882
      2          6           0        1.309272    1.982431    0.585865
      3          6           0        0.152657    2.663822   -0.146078
      4          1           0        2.589578    1.802231   -1.139010
      5          1           0        1.574653    0.393302   -0.845808
      6          1           0        1.928694    2.739312    1.083925
      7          1           0        0.914236    1.331057    1.375975
      8          1           0       -0.489166    1.919947   -0.629105
      9          1           0        0.531056    3.336204   -0.922814
     10          1           0       -0.465743    3.251486    0.539555
     11          6           0        3.352971    0.465488    0.370164
     12          6           0        4.236030   -0.364074   -0.562583
     13          6           0        5.392645   -1.045466    0.169360
     14          1           0        3.970649    1.225055    0.869090
     15          1           0        2.955724   -0.183875    1.162292
     16          1           0        4.631066    0.287300   -1.352693
     17          1           0        3.616609   -1.120955   -1.060643
     18          1           0        5.014246   -1.717847    0.946096
     19          1           0        6.034468   -0.301591    0.652387
     20          1           0        6.011045   -1.633129   -0.516273
     21          6           0       -3.201901   -0.210011   -0.212082
     22          6           0       -4.648856   -0.311817    0.271590
     23          6           0       -5.495043    0.894280   -0.137175
     24          1           0       -2.751700    0.708386    0.188931
     25          1           0       -3.194583   -0.109722   -1.306286
     26          1           0       -4.653385   -0.413275    1.364431
     27          1           0       -5.095605   -1.230177   -0.130464
     28          1           0       -5.520311    0.995564   -1.226994
     29          1           0       -5.075579    1.817107    0.276395
     30          1           0       -6.525753    0.800746    0.218842
     31          6           0       -2.343402   -1.408345    0.188800
     32          6           0       -0.896446   -1.306539   -0.294872
     33          6           0       -0.050259   -2.512637    0.113894
     34          1           0       -2.350719   -1.508634    1.283005
     35          1           0       -2.793602   -2.326743   -0.212213
     36          1           0       -0.449697   -0.388180    0.107183
     37          1           0       -0.891917   -1.205081   -1.387713
     38          1           0       -0.469724   -3.435463   -0.299677
     39          1           0       -0.024991   -2.613920    1.203712
     40          1           0        0.980451   -2.419102   -0.242123
 ---------------------------------------------------------------------

 SCF Done:  E(RHF) =  -470.731890313     A.U. after   11 cycles
 E2 =    -0.1585545768D+01 EUMP2 =    -0.47231743608025D+03

 The electronic state is 1-A.
 Alpha  occ. eigenvalues --  -11.21629 -11.21618 -11.21616 -11.21608 -11.21435
 Alpha  occ. eigenvalues --  -11.21372 -11.21370 -11.21294 -11.21168 -11.21072
 Alpha  occ. eigenvalues --  -11.21065 -11.21034  -1.08527  -1.08379  -1.03625
 Alpha  occ. eigenvalues --   -1.03495  -0.96047  -0.95952  -0.87050  -0.86983
 Alpha  occ. eigenvalues --   -0.79685  -0.79589  -0.78396  -0.78139  -0.65437
 Alpha  occ. eigenvalues --   -0.64837  -0.61234  -0.60693  -0.59410  -0.59298
 Alpha  occ. eigenvalues --   -0.57694  -0.57546  -0.55381  -0.55188  -0.52737
 Alpha  occ. eigenvalues --   -0.52667  -0.52448  -0.52390  -0.50051  -0.49843
 Alpha  occ. eigenvalues --   -0.48120  -0.47803  -0.46722  -0.46666  -0.46040
 Alpha  occ. eigenvalues --   -0.45782  -0.45717  -0.45242  -0.43821  -0.43773
 Alpha virt. eigenvalues --    0.19953   0.22233   0.23676   0.24791   0.25606
 Alpha virt. eigenvalues --    0.26382   0.26562   0.27348   0.29440   0.29503
 Alpha virt. eigenvalues --    0.30591   0.31120   0.31713   0.31875   0.32441

 Mulliken charges:
               1
     1  C   -0.304777
     2  C   -0.303073
     3  C   -0.481810
     4  H    0.149691
     5  H    0.157483
     6  H    0.153581
     7  H    0.150720
     8  H    0.161991
     9  H    0.155551
    10  H    0.159273
    11  C   -0.298362
    12  C   -0.301166
    13  C   -0.475695
    14  H    0.149485
    15  H    0.150206
    16  H    0.152128
    17  H    0.152357
    18  H    0.155427
    19  H    0.155220
    20  H    0.160234
    21  C   -0.302395
    22  C   -0.299561
    23  C   -0.475748
    24  H    0.154010
    25  H    0.149252
    26  H    0.151888
    27  H    0.151991
    28  H    0.155270
    29  H    0.155495
    30  H    0.160246
    31  C   -0.297220
    32  C   -0.310354
    33  C   -0.478498
    34  H    0.149197
    35  H    0.149641
    36  H    0.164115
    37  H    0.151232
    38  H    0.156019
    39  H    0.155179
    40  H    0.161779
 Sum of Mulliken charges =  -0.00000

 Dipole moment (field-independent basis, Debye):
    X=             -0.0191    Y=             -0.0012    Z=             -0.0112  Tot=              0.0222
 Quadrupole moment (field-independent basis, Debye-Ang):
   XX=            -85.7332   YY=            -84.9207   ZZ=            -84.2009
   XY=              1.6626   XZ=             -0.3889   YZ=              0.6407

 Normal termination of Gaussian 16 at Wed May  5 16:34:53 2021.
