 Gaussian 16, Revision A.03,
 Gaussian 16:  EM64L-G16RevA.03 25-Dec-2016

 -------------
 #p 6-31g* mp2
 -------------

 ------------------------------------------------------
 Input file generated by CHIRIPA (05-May-2021 14:55:25)
 ------------------------------------------------------
 Symbolic Z-matrix:
 Charge =  0 Multiplicity = 1

                         Standard orientation:
 ---------------------------------------------------------------------
 Center     Atomic      Atomic             Coordinates (Angstroms)
 Number     Number       Type             X           Y           Z
 ---------------------------------------------------------------------
      1          6           0       -1.553271   -1.714591    1.566614
      2          6           0       -0.877282   -0.916488    0.637855
      3          6           0       -1.584197   -0.051063   -0.202299
      4          6           0       -2.972737   -0.008883   -0.086252
      5          6           0       -3.674886   -0.791509    0.829048
      6          6           0       -2.947457   -1.649669    1.659083
      7          1           0       -0.996154   -2.384052    2.215335
      8          1           0        0.205413   -0.964826    0.563830
      9          1           0       -1.086144    0.577870   -0.930176
     10          1           0       -4.754679   -0.721392    0.879531
     11          1           0       -3.475088   -2.268326    2.379440
     12          7           0       -3.731975    0.903458   -0.970329
     13          8           0       -4.954851    0.922102   -0.848412
     14          8           0       -3.089813    1.582631   -1.768445
     15          6           0        3.420222   -0.524813   -0.120871
     16          6           0        4.238055   -1.351676   -1.113560
     17          6           0        3.776549   -2.807240   -1.191914
     18          1           0        3.487352   -0.986300    0.873850
     19          1           0        2.360878   -0.559465   -0.410671
     20          1           0        5.295724   -1.314339   -0.822768
     21          1           0        4.169128   -0.888059   -2.105993
     22          1           0        2.728727   -2.862866   -1.504283
     23          1           0        3.861724   -3.291569   -0.213767
     24          1           0        4.374721   -3.380099   -1.907374
     25          6           0        3.869649    0.932488   -0.031333
     26          6           0        3.051815    1.759351    0.961355
     27          6           0        3.513321    3.214915    1.039710
     28          1           0        4.928993    0.967141    0.258467
     29          1           0        3.802520    1.393976   -1.026053
     30          1           0        3.120743    1.295734    1.953789
     31          1           0        1.994147    1.722015    0.670564
     32          1           0        3.428147    3.699244    0.061564
     33          1           0        4.561144    3.270542    1.352079
     34          1           0        2.915150    3.787775    1.755170
 ---------------------------------------------------------------------

 SCF Done:  E(RHF) =  -669.535665729     A.U. after   15 cycles
 E2 =    -0.2091443717D+01 EUMP2 =    -0.67162710944630D+03

 The electronic state is 1-A.
 Alpha  occ. eigenvalues --  -20.60735 -20.60730 -15.85788 -11.31142 -11.27708
 Alpha  occ. eigenvalues --  -11.27702 -11.27434 -11.26723 -11.26662 -11.22391
 Alpha  occ. eigenvalues --  -11.22310 -11.22261 -11.22068 -11.21774 -11.21503
 Alpha  occ. eigenvalues --   -1.59811  -1.39365  -1.19308  -1.09198  -1.08703
 Alpha  occ. eigenvalues --   -1.04709  -1.04191  -0.96646  -0.95543  -0.87656
 Alpha  occ. eigenvalues --   -0.86107  -0.82379  -0.80268  -0.79057  -0.77420
 Alpha  occ. eigenvalues --   -0.72006  -0.71134  -0.70418  -0.65852  -0.64958
 Alpha  occ. eigenvalues --   -0.64698  -0.62065  -0.61577  -0.60012  -0.58261
 Alpha  occ. eigenvalues --   -0.55938  -0.55207  -0.53300  -0.53113  -0.53037
 Alpha  occ. eigenvalues --   -0.52767  -0.50578  -0.48770  -0.48763  -0.48573
 Alpha  occ. eigenvalues --   -0.47305  -0.46538  -0.46485  -0.44773  -0.44481
 Alpha  occ. eigenvalues --   -0.37286  -0.36311
 Alpha virt. eigenvalues --    0.05098   0.11337   0.16569   0.19441   0.22694
 Alpha virt. eigenvalues --    0.23642   0.24533   0.26188   0.27350   0.28211
 Alpha virt. eigenvalues --    0.29556   0.30661   0.31186   0.31336   0.31882

 Mulliken charges:
               1
     1  C   -0.172388
     2  C   -0.226284
     3  C   -0.174006
     4  C    0.158762
     5  C   -0.171297
     6  C   -0.218349
     7  H    0.226221
     8  H    0.235599
     9  H    0.274346
    10  H    0.275405
    11  H    0.223162
    12  N    0.488142
    13  O   -0.460598
    14  O   -0.460723
    15  C   -0.303991
    16  C   -0.299358
    17  C   -0.476969
    18  H    0.148464
    19  H    0.143267
    20  H    0.155248
    21  H    0.155538
    22  H    0.153809
    23  H    0.153941
    24  H    0.164402
    25  C   -0.298500
    26  C   -0.300525
    27  C   -0.476202
    28  H    0.152876
    29  H    0.153179
    30  H    0.151191
    31  H    0.148199
    32  H    0.158126
    33  H    0.156355
    34  H    0.162958
 Sum of Mulliken charges =  -0.00000

 Dipole moment (field-independent basis, Debye):
    X=              2.9033    Y=             -3.1642    Z=              3.0938  Tot=              5.2928
 Quadrupole moment (field-independent basis, Debye-Ang):
   XX=           -105.8902   YY=            -95.6926   ZZ=            -94.4122
   XY=             10.8638   XZ=            -11.4141   YZ=             -0.8390

 Normal termination of Gaussian 16 at Thu May  6 04:48:10 2021.
