 Gaussian 16, Revision A.03,
 Gaussian 16:  EM64L-G16RevA.03 25-Dec-2016

 -------------
 #p 6-31g* mp2
 -------------

 ------------------------------------------------------
 Input file generated by CHIRIPA (05-May-2021 14:51:07)
 ------------------------------------------------------
 Symbolic Z-matrix:
 Charge =  0 Multiplicity = 1

                         Standard orientation:
 ---------------------------------------------------------------------
 Center     Atomic      Atomic             Coordinates (Angstroms)
 Number     Number       Type             X           Y           Z
 ---------------------------------------------------------------------
      1          6           0       -2.433292   -0.231419   -0.926634
      2          6           0       -2.450985   -1.720799   -0.581063
      3          6           0       -2.032312   -2.605259   -1.755898
      4          1           0       -3.102011   -0.051433   -1.779491
      5          1           0       -1.423475    0.049343   -1.256536
      6          1           0       -3.460123   -1.998366   -0.250591
      7          1           0       -1.782293   -1.897230    0.271193
      8          1           0       -1.017348   -2.356826   -2.082592
      9          1           0       -2.704711   -2.458536   -2.607341
     10          1           0       -2.052038   -3.665965   -1.486875
     11          6           0       -2.849476    0.665638    0.237757
     12          6           0       -2.831784    2.155018   -0.107815
     13          6           0       -3.250456    3.039478    1.067021
     14          1           0       -3.859294    0.384876    0.567659
     15          1           0       -2.180757    0.485652    1.090614
     16          1           0       -3.500475    2.331449   -0.960070
     17          1           0       -1.822645    2.432585   -0.438287
     18          1           0       -2.578058    2.892755    1.918463
     19          1           0       -4.265421    2.791045    1.393715
     20          1           0       -3.230730    4.100184    0.797998
     21          6           0        2.410481   -0.540265    0.996885
     22          6           0        1.263072   -1.533282    0.808851
     23          6           0        0.812227   -2.171458    2.123106
     24          1           0        3.259690   -1.055544    1.466222
     25          1           0        2.095295    0.245108    1.697773
     26          1           0        1.579847   -2.315788    0.107457
     27          1           0        0.416564   -1.015627    0.339732
     28          1           0        0.470238   -1.405033    2.826127
     29          1           0        1.640131   -2.712583    2.592531
     30          1           0       -0.008762   -2.877860    1.965516
     31          6           0        2.872288    0.106046   -0.308008
     32          6           0        4.019696    1.099063   -0.119974
     33          6           0        4.470542    1.737238   -1.434229
     34          1           0        3.187473   -0.679326   -1.008895
     35          1           0        2.023078    0.621324   -0.777344
     36          1           0        4.866204    0.581407    0.349145
     37          1           0        3.702921    1.881569    0.581421
     38          1           0        3.642638    2.278364   -1.903654
     39          1           0        4.812530    0.970814   -2.137250
     40          1           0        5.291530    2.443640   -1.276638
 ---------------------------------------------------------------------

 SCF Done:  E(RHF) =  -470.732742012     A.U. after   11 cycles
 E2 =    -0.1584400318D+01 EUMP2 =    -0.47231714233053D+03

 The electronic state is 1-A.
 Alpha  occ. eigenvalues --  -11.21647 -11.21644 -11.21640 -11.21536 -11.21467
 Alpha  occ. eigenvalues --  -11.21431 -11.21408 -11.21369 -11.21149 -11.21105
 Alpha  occ. eigenvalues --  -11.21104 -11.21030  -1.08525  -1.08421  -1.03635
 Alpha  occ. eigenvalues --   -1.03493  -0.96047  -0.95981  -0.87055  -0.87003
 Alpha  occ. eigenvalues --   -0.79673  -0.79587  -0.78318  -0.78258  -0.65396
 Alpha  occ. eigenvalues --   -0.64879  -0.61210  -0.60775  -0.59426  -0.59293
 Alpha  occ. eigenvalues --   -0.57683  -0.57548  -0.55327  -0.55270  -0.52738
 Alpha  occ. eigenvalues --   -0.52671  -0.52474  -0.52402  -0.50033  -0.49884
 Alpha  occ. eigenvalues --   -0.47995  -0.47892  -0.46781  -0.46536  -0.46007
 Alpha  occ. eigenvalues --   -0.45799  -0.45714  -0.45530  -0.43845  -0.43792
 Alpha virt. eigenvalues --    0.19802   0.23066   0.23672   0.24230   0.25472
 Alpha virt. eigenvalues --    0.26422   0.26787   0.27938   0.29024   0.29642
 Alpha virt. eigenvalues --    0.30440   0.31013   0.31555   0.31789   0.32517

 Mulliken charges:
               1
     1  C   -0.300732
     2  C   -0.307304
     3  C   -0.476067
     4  H    0.150518
     5  H    0.149681
     6  H    0.152116
     7  H    0.160133
     8  H    0.156487
     9  H    0.154910
    10  H    0.159718
    11  C   -0.299274
    12  C   -0.299470
    13  C   -0.475673
    14  H    0.150086
    15  H    0.149685
    16  H    0.152256
    17  H    0.151223
    18  H    0.154949
    19  H    0.155422
    20  H    0.160352
    21  C   -0.297584
    22  C   -0.308280
    23  C   -0.478237
    24  H    0.149953
    25  H    0.149224
    26  H    0.152716
    27  H    0.160255
    28  H    0.155086
    29  H    0.156151
    30  H    0.161928
    31  C   -0.298676
    32  C   -0.299687
    33  C   -0.475773
    34  H    0.149781
    35  H    0.148932
    36  H    0.152218
    37  H    0.152000
    38  H    0.155212
    39  H    0.155313
    40  H    0.160457
 Sum of Mulliken charges =  -0.00000

 Dipole moment (field-independent basis, Debye):
    X=              0.0164    Y=             -0.0132    Z=              0.0108  Tot=              0.0237
 Quadrupole moment (field-independent basis, Debye-Ang):
   XX=            -83.5909   YY=            -85.0859   ZZ=            -86.0083
   XY=             -0.5361   XZ=              0.7793   YZ=             -0.0242

 Normal termination of Gaussian 16 at Wed May  5 22:53:53 2021.
