 Gaussian 16, Revision A.03,
 Gaussian 16:  EM64L-G16RevA.03 25-Dec-2016

 -------------
 #p 6-31g* mp2
 -------------

 ------------------------------------------------------
 Input file generated by CHIRIPA (05-May-2021 14:57:27)
 ------------------------------------------------------
 Symbolic Z-matrix:
 Charge =  0 Multiplicity = 1

                         Standard orientation:
 ---------------------------------------------------------------------
 Center     Atomic      Atomic             Coordinates (Angstroms)
 Number     Number       Type             X           Y           Z
 ---------------------------------------------------------------------
      1          6           0        2.441172    2.656401    0.295099
      2          6           0        3.359694    2.272695   -0.687554
      3          6           0        3.726521    0.931334   -0.831557
      4          6           0        3.152733   -0.004171    0.028029
      5          6           0        2.234865    0.346860    1.016758
      6          6           0        1.882674    1.693956    1.142625
      7          1           0        2.161897    3.700630    0.399920
      8          1           0        3.795035    3.017978   -1.347158
      9          1           0        4.435208    0.606694   -1.583747
     10          1           0        1.817797   -0.418883    1.659495
     11          1           0        1.169086    1.989056    1.906663
     12          7           0        3.533329   -1.427245   -0.114821
     13          8           0        3.013551   -2.232170    0.654961
     14          8           0        4.344211   -1.710780   -0.993863
     15          6           0       -2.084459   -2.537600    0.125870
     16          6           0       -3.446041   -2.387278   -0.157003
     17          6           0       -4.013928   -1.113729   -0.257637
     18          6           0       -3.187219   -0.007314   -0.068726
     19          6           0       -1.827263   -0.124435    0.214283
     20          6           0       -1.280832   -1.407690    0.310286
     21          1           0       -1.651645   -3.530693    0.202246
     22          1           0       -4.072557   -3.262992   -0.300701
     23          1           0       -5.065039   -0.968546   -0.475593
     24          1           0       -1.228095    0.767371    0.352486
     25          1           0       -0.223097   -1.521412    0.530078
     26          7           0       -3.777057    1.346073   -0.172812
     27          8           0       -3.027303    2.304911   -0.002125
     28          8           0       -4.977958    1.422392   -0.423110
 ---------------------------------------------------------------------

 SCF Done:  E(RHF) =  -868.339419987     A.U. after   16 cycles
 E2 =    -0.2600571238D+01 EUMP2 =    -0.87093999122522D+03

 The electronic state is 1-A.
 Alpha  occ. eigenvalues --  -20.61626 -20.61575 -20.60957 -20.60931 -15.86633
 Alpha  occ. eigenvalues --  -15.85995 -11.31902 -11.31213 -11.28526 -11.28390
 Alpha  occ. eigenvalues --  -11.28054 -11.27768 -11.27754 -11.27425 -11.27393
 Alpha  occ. eigenvalues --  -11.27337 -11.26714 -11.26662  -1.60663  -1.60022
 Alpha  occ. eigenvalues --   -1.40224  -1.39582  -1.20046  -1.19358  -1.09426
 Alpha  occ. eigenvalues --   -1.08760  -1.05444  -1.04741  -0.96290  -0.95627
 Alpha  occ. eigenvalues --   -0.86827  -0.86128  -0.83131  -0.82476  -0.78235
 Alpha  occ. eigenvalues --   -0.77548  -0.72848  -0.72219  -0.71980  -0.71342
 Alpha  occ. eigenvalues --   -0.71103  -0.70431  -0.65685  -0.65443  -0.65001
 Alpha  occ. eigenvalues --   -0.64689  -0.62850  -0.62036  -0.55849  -0.55189
 Alpha  occ. eigenvalues --   -0.53732  -0.53542  -0.53076  -0.52769  -0.49624
 Alpha  occ. eigenvalues --   -0.49588  -0.48984  -0.48953  -0.45642  -0.45021
 Alpha  occ. eigenvalues --   -0.37953  -0.37300  -0.37042  -0.36354
 Alpha virt. eigenvalues --    0.04259   0.04970   0.10460   0.11301   0.15754
 Alpha virt. eigenvalues --    0.16495   0.19978   0.22131   0.25641   0.26801
 Alpha virt. eigenvalues --    0.28344   0.29236   0.29623   0.31209   0.32152

 Mulliken charges:
               1
     1  C   -0.168517
     2  C   -0.217311
     3  C   -0.169673
     4  C    0.160413
     5  C   -0.181099
     6  C   -0.223040
     7  H    0.233368
     8  H    0.227763
     9  H    0.277758
    10  H    0.271727
    11  H    0.229652
    12  N    0.489020
    13  O   -0.467734
    14  O   -0.454909
    15  C   -0.171117
    16  C   -0.218767
    17  C   -0.170961
    18  C    0.158814
    19  C   -0.175768
    20  C   -0.227021
    21  H    0.232153
    22  H    0.224245
    23  H    0.275159
    24  H    0.270434
    25  H    0.231968
    26  N    0.488386
    27  O   -0.465504
    28  O   -0.459439
 Sum of Mulliken charges =  -0.00000

 Dipole moment (field-independent basis, Debye):
    X=              1.0159    Y=              0.3405    Z=              0.7477  Tot=              1.3065
 Quadrupole moment (field-independent basis, Debye-Ang):
   XX=           -120.4997   YY=           -103.8230   ZZ=           -102.9469
   XY=             35.0742   XZ=             -1.7155   YZ=             -0.0329

 Normal termination of Gaussian 16 at Thu May  6 03:38:13 2021.
