 Gaussian 16, Revision A.03,
 Gaussian 16:  EM64L-G16RevA.03 25-Dec-2016

 -------------
 #p 6-31g* mp2
 -------------

 ------------------------------------------------------
 Input file generated by CHIRIPA (05-May-2021 14:53:15)
 ------------------------------------------------------
 Symbolic Z-matrix:
 Charge =  0 Multiplicity = 1

                         Standard orientation:
 ---------------------------------------------------------------------
 Center     Atomic      Atomic             Coordinates (Angstroms)
 Number     Number       Type             X           Y           Z
 ---------------------------------------------------------------------
      1          6           0        2.253701   -0.892507   -0.621123
      2          6           0        1.528226   -2.169632   -0.196125
      3          6           0        0.272443   -2.440006   -1.025403
      4          1           0        1.564952   -0.041006   -0.534431
      5          1           0        2.524089   -0.968924   -1.683406
      6          1           0        1.260510   -2.091404    0.865395
      7          1           0        2.218840   -3.018164   -0.283657
      8          1           0        0.525843   -2.544493   -2.085342
      9          1           0       -0.437932   -1.612468   -0.929762
     10          1           0       -0.230527   -3.357652   -0.704768
     11          6           0        3.511124   -0.608670    0.198664
     12          6           0        4.236599    0.668455   -0.226334
     13          6           0        5.492382    0.938830    0.602943
     14          1           0        3.240736   -0.532252    1.260947
     15          1           0        4.199873   -1.460171    0.111971
     16          1           0        3.545985    1.516987   -0.138802
     17          1           0        4.504315    0.590227   -1.287854
     18          1           0        6.202757    0.111291    0.507303
     19          1           0        5.238982    1.043317    1.662883
     20          1           0        5.995352    1.856476    0.282308
     21          6           0       -1.148604    2.794130   -0.359012
     22          6           0       -0.900616    2.160270    0.862972
     23          6           0       -1.506436    0.936786    1.164000
     24          6           0       -2.358546    0.372961    0.215685
     25          6           0       -2.625581    0.979908   -1.010528
     26          6           0       -2.008778    2.202968   -1.290220
     27          1           0       -0.673724    3.744397   -0.584571
     28          1           0       -0.233046    2.617046    1.588059
     29          1           0       -1.332062    0.424381    2.102324
     30          1           0       -3.295826    0.500046   -1.713324
     31          1           0       -2.203215    2.692958   -2.240036
     32          7           0       -3.005713   -0.922061    0.523076
     33          8           0       -3.752389   -1.398087   -0.329282
     34          8           0       -2.754035   -1.436554    1.610547
 ---------------------------------------------------------------------

 SCF Done:  E(RHF) =  -669.535566459     A.U. after   15 cycles
 E2 =    -0.2093246496D+01 EUMP2 =    -0.67162881295470D+03

 The electronic state is 1-A.
 Alpha  occ. eigenvalues --  -20.60820 -20.60815 -15.85869 -11.31272 -11.27865
 Alpha  occ. eigenvalues --  -11.27841 -11.27605 -11.26898 -11.26859 -11.21867
 Alpha  occ. eigenvalues --  -11.21510 -11.21418 -11.21336 -11.21335 -11.20732
 Alpha  occ. eigenvalues --   -1.59891  -1.39443  -1.19467  -1.08851  -1.08480
 Alpha  occ. eigenvalues --   -1.04867  -1.03542  -0.95983  -0.95673  -0.87001
 Alpha  occ. eigenvalues --   -0.86261  -0.82500  -0.79626  -0.78277  -0.77542
 Alpha  occ. eigenvalues --   -0.72090  -0.71238  -0.70556  -0.65124  -0.65111
 Alpha  occ. eigenvalues --   -0.64862  -0.62208  -0.60956  -0.59358  -0.57583
 Alpha  occ. eigenvalues --   -0.55372  -0.55286  -0.53220  -0.52953  -0.52645
 Alpha  occ. eigenvalues --   -0.52400  -0.49955  -0.48853  -0.48842  -0.47928
 Alpha  occ. eigenvalues --   -0.46681  -0.45807  -0.45728  -0.44833  -0.43784
 Alpha  occ. eigenvalues --   -0.37409  -0.36460
 Alpha virt. eigenvalues --    0.04986   0.11151   0.16460   0.21230   0.22700
 Alpha virt. eigenvalues --    0.24108   0.26352   0.27192   0.27334   0.27915
 Alpha virt. eigenvalues --    0.28308   0.30549   0.31441   0.31622   0.32165

 Mulliken charges:
               1
     1  C   -0.300898
     2  C   -0.300119
     3  C   -0.476652
     4  H    0.149329
     5  H    0.148517
     6  H    0.153309
     7  H    0.152113
     8  H    0.152978
     9  H    0.150061
    10  H    0.170071
    11  C   -0.297709
    12  C   -0.298407
    13  C   -0.475513
    14  H    0.147408
    15  H    0.151155
    16  H    0.146316
    17  H    0.152548
    18  H    0.157019
    19  H    0.154108
    20  H    0.159263
    21  C   -0.170881
    22  C   -0.218437
    23  C   -0.171796
    24  C    0.155429
    25  C   -0.171888
    26  C   -0.217463
    27  H    0.226344
    28  H    0.224086
    29  H    0.276020
    30  H    0.276525
    31  H    0.224167
    32  N    0.492916
    33  O   -0.459620
    34  O   -0.460298
 Sum of Mulliken charges =  -0.00000

 Dipole moment (field-independent basis, Debye):
    X=              2.1722    Y=              4.5103    Z=             -1.0860  Tot=              5.1226
 Quadrupole moment (field-independent basis, Debye-Ang):
   XX=           -105.7730   YY=            -91.4647   ZZ=            -91.2733
   XY=            -10.7389   XZ=              4.6144   YZ=              0.6124

 Normal termination of Gaussian 16 at Wed May  5 21:55:31 2021.
