 Gaussian 16, Revision A.03,
 Gaussian 16:  EM64L-G16RevA.03 25-Dec-2016

 -------------
 #p 6-31g* mp2
 -------------

 ------------------------------------------------------
 Input file generated by CHIRIPA (05-May-2021 14:55:25)
 ------------------------------------------------------
 Symbolic Z-matrix:
 Charge =  0 Multiplicity = 1

                         Standard orientation:
 ---------------------------------------------------------------------
 Center     Atomic      Atomic             Coordinates (Angstroms)
 Number     Number       Type             X           Y           Z
 ---------------------------------------------------------------------
      1          6           0       -3.390382    2.255379    1.013229
      2          6           0       -2.083878    1.761136    1.085969
      3          6           0       -1.732819    0.582008    0.421918
      4          6           0       -2.717835   -0.080312   -0.309085
      5          6           0       -4.028065    0.386805   -0.400675
      6          6           0       -4.356602    1.567848    0.271447
      7          1           0       -3.654345    3.172098    1.532215
      8          1           0       -1.331431    2.292983    1.661302
      9          1           0       -0.728891    0.177050    0.461362
     10          1           0       -4.756362   -0.165473   -0.982044
     11          1           0       -5.372039    1.949343    0.213188
     12          7           0       -2.358106   -1.329616   -1.016358
     13          8           0       -3.244292   -1.894458   -1.653748
     14          8           0       -1.196776   -1.720323   -0.919938
     15          6           0        3.351575   -0.442358    0.926764
     16          6           0        2.226554   -1.474599    0.844357
     17          6           0        1.831273   -2.028757    2.213464
     18          1           0        4.227624   -0.901567    1.404895
     19          1           0        3.035573    0.382750    1.580014
     20          1           0        2.544052   -2.296844    0.190350
     21          1           0        1.353146   -1.012935    0.366193
     22          1           0        1.489064   -1.223062    2.870998
     23          1           0        2.686737   -2.514267    2.694156
     24          1           0        1.025527   -2.764875    2.131230
     25          6           0        3.757858    0.120853   -0.433918
     26          6           0        4.882879    1.153094   -0.351511
     27          6           0        5.278160    1.707251   -1.720618
     28          1           0        4.073861   -0.704255   -1.087169
     29          1           0        2.881810    0.580063   -0.912049
     30          1           0        5.756288    0.691429    0.126654
     31          1           0        4.565382    1.975339    0.302495
     32          1           0        4.422697    2.192761   -2.201310
     33          1           0        5.620369    0.901557   -2.378151
     34          1           0        6.083907    2.443370   -1.638384
 ---------------------------------------------------------------------

 SCF Done:  E(RHF) =  -669.535460261     A.U. after   15 cycles
 E2 =    -0.2091900779D+01 EUMP2 =    -0.67162736103985D+03

 The electronic state is 1-A.
 Alpha  occ. eigenvalues --  -20.60843 -20.60838 -15.85886 -11.31238 -11.27805
 Alpha  occ. eigenvalues --  -11.27800 -11.27550 -11.26823 -11.26813 -11.21542
 Alpha  occ. eigenvalues --  -11.21277 -11.21224 -11.21184 -11.21003 -11.20801
 Alpha  occ. eigenvalues --   -1.59914  -1.39468  -1.19412  -1.08810  -1.08274
 Alpha  occ. eigenvalues --   -1.04815  -1.03346  -0.95816  -0.95646  -0.86831
 Alpha  occ. eigenvalues --   -0.86216  -0.82481  -0.79401  -0.78085  -0.77506
 Alpha  occ. eigenvalues --   -0.72110  -0.71232  -0.70529  -0.65075  -0.65001
 Alpha  occ. eigenvalues --   -0.64758  -0.62196  -0.60738  -0.59157  -0.57388
 Alpha  occ. eigenvalues --   -0.55327  -0.55124  -0.53143  -0.52915  -0.52484
 Alpha  occ. eigenvalues --   -0.52226  -0.49786  -0.48893  -0.48863  -0.47684
 Alpha  occ. eigenvalues --   -0.46431  -0.45589  -0.45535  -0.44874  -0.43602
 Alpha  occ. eigenvalues --   -0.37393  -0.36416
 Alpha virt. eigenvalues --    0.05002   0.11234   0.16499   0.20160   0.22881
 Alpha virt. eigenvalues --    0.24088   0.26135   0.27300   0.27648   0.28167
 Alpha virt. eigenvalues --    0.29201   0.30641   0.31517   0.31829   0.32200

 Mulliken charges:
               1
     1  C   -0.170153
     2  C   -0.223309
     3  C   -0.173613
     4  C    0.154007
     5  C   -0.169610
     6  C   -0.219149
     7  H    0.225856
     8  H    0.224180
     9  H    0.289102
    10  H    0.275809
    11  H    0.223647
    12  N    0.489321
    13  O   -0.459734
    14  O   -0.465293
    15  C   -0.298311
    16  C   -0.310212
    17  C   -0.476922
    18  H    0.149873
    19  H    0.141492
    20  H    0.159313
    21  H    0.164232
    22  H    0.145929
    23  H    0.154544
    24  H    0.168388
    25  C   -0.297366
    26  C   -0.299153
    27  C   -0.475494
    28  H    0.153262
    29  H    0.147848
    30  H    0.152236
    31  H    0.148554
    32  H    0.154618
    33  H    0.156793
    34  H    0.159313
 Sum of Mulliken charges =  -0.00000

 Dipole moment (field-independent basis, Debye):
    X=             -1.3317    Y=              4.2629    Z=              2.3874  Tot=              5.0641
 Quadrupole moment (field-independent basis, Debye-Ang):
   XX=            -83.2073   YY=            -95.5453   ZZ=            -97.5735
   XY=            -12.7452   XZ=             -4.6375   YZ=             -0.7487

 Normal termination of Gaussian 16 at Wed May  5 16:08:24 2021.
