 Gaussian 16, Revision A.03,
 Gaussian 16:  EM64L-G16RevA.03 25-Dec-2016

 -------------
 #p 6-31g* mp2
 -------------

 ------------------------------------------------------
 Input file generated by CHIRIPA (05-May-2021 14:55:22)
 ------------------------------------------------------
 Symbolic Z-matrix:
 Charge =  0 Multiplicity = 1

                         Standard orientation:
 ---------------------------------------------------------------------
 Center     Atomic      Atomic             Coordinates (Angstroms)
 Number     Number       Type             X           Y           Z
 ---------------------------------------------------------------------
      1          6           0        2.435712    2.112231   -1.201272
      2          6           0        1.259321    1.387063   -0.985036
      3          6           0        1.302427    0.128966   -0.376857
      4          6           0        2.544643   -0.375988    0.004211
      5          6           0        3.734184    0.322251   -0.197640
      6          6           0        3.667217    1.578451   -0.807578
      7          1           0        2.392959    3.088814   -1.674404
      8          1           0        0.301509    1.799118   -1.289751
      9          1           0        0.407124   -0.453844   -0.197463
     10          1           0        4.674130   -0.114686    0.117010
     11          1           0        4.582434    2.139382   -0.974253
     12          7           0        2.602907   -1.706875    0.648995
     13          8           0        3.709836   -2.129638    0.975517
     14          8           0        1.540542   -2.302061    0.815644
     15          6           0       -2.760713    0.635210    0.530721
     16          6           0       -3.160854    2.110458    0.569659
     17          6           0       -2.182567    2.967292    1.373763
     18          1           0       -2.694895    0.252469    1.558399
     19          1           0       -1.754060    0.546800    0.099181
     20          1           0       -4.167012    2.195941    0.999723
     21          1           0       -3.225913    2.489682   -0.458238
     22          1           0       -1.177648    2.911723    0.942891
     23          1           0       -2.124093    2.616313    2.409135
     24          1           0       -2.487728    4.018253    1.388527
     25          6           0       -3.728989   -0.234207   -0.269456
     26          6           0       -3.328848   -1.709454   -0.308393
     27          6           0       -4.307136   -2.566289   -1.112498
     28          1           0       -4.735642   -0.145797    0.162085
     29          1           0       -3.794807    0.148534   -1.297133
     30          1           0       -3.263789   -2.088678    0.719504
     31          1           0       -2.322690   -1.794937   -0.738456
     32          1           0       -4.365609   -2.215309   -2.147870
     33          1           0       -5.312054   -2.510720   -0.681625
     34          1           0       -4.001974   -3.617249   -1.127260
 ---------------------------------------------------------------------

 SCF Done:  E(RHF) =  -669.535250703     A.U. after   15 cycles
 E2 =    -0.2092573198D+01 EUMP2 =    -0.67162782390116D+03

 The electronic state is 1-A.
 Alpha  occ. eigenvalues --  -20.60754 -20.60748 -15.85806 -11.31176 -11.27765
 Alpha  occ. eigenvalues --  -11.27738 -11.27514 -11.26778 -11.26768 -11.22182
 Alpha  occ. eigenvalues --  -11.21993 -11.21767 -11.21708 -11.21625 -11.21124
 Alpha  occ. eigenvalues --   -1.59828  -1.39381  -1.19362  -1.08873  -1.08754
 Alpha  occ. eigenvalues --   -1.04772  -1.03886  -0.96350  -0.95587  -0.87361
 Alpha  occ. eigenvalues --   -0.86165  -0.82428  -0.79962  -0.78686  -0.77451
 Alpha  occ. eigenvalues --   -0.72026  -0.71151  -0.70479  -0.65559  -0.65006
 Alpha  occ. eigenvalues --   -0.64782  -0.62132  -0.61268  -0.59716  -0.57939
 Alpha  occ. eigenvalues --   -0.55665  -0.55270  -0.53095  -0.53020  -0.52898
 Alpha  occ. eigenvalues --   -0.52708  -0.50302  -0.48786  -0.48780  -0.48258
 Alpha  occ. eigenvalues --   -0.47019  -0.46186  -0.46111  -0.44785  -0.44165
 Alpha  occ. eigenvalues --   -0.37341  -0.36357
 Alpha virt. eigenvalues --    0.05057   0.11220   0.16435   0.19076   0.22991
 Alpha virt. eigenvalues --    0.23216   0.24646   0.26465   0.27321   0.28230
 Alpha virt. eigenvalues --    0.29287   0.31076   0.31357   0.31796   0.32206

 Mulliken charges:
               1
     1  C   -0.170839
     2  C   -0.221568
     3  C   -0.177599
     4  C    0.159450
     5  C   -0.170126
     6  C   -0.218942
     7  H    0.225835
     8  H    0.224904
     9  H    0.282818
    10  H    0.275672
    11  H    0.223574
    12  N    0.488123
    13  O   -0.460547
    14  O   -0.460323
    15  C   -0.302208
    16  C   -0.300395
    17  C   -0.477552
    18  H    0.157197
    19  H    0.139506
    20  H    0.156143
    21  H    0.148327
    22  H    0.150441
    23  H    0.160033
    24  H    0.161287
    25  C   -0.298694
    26  C   -0.301470
    27  C   -0.476309
    28  H    0.152174
    29  H    0.147307
    30  H    0.158004
    31  H    0.152071
    32  H    0.153658
    33  H    0.155370
    34  H    0.164678
 Sum of Mulliken charges =  -0.00000

 Dipole moment (field-independent basis, Debye):
    X=             -0.3189    Y=              4.5931    Z=             -2.1714  Tot=              5.0905
 Quadrupole moment (field-independent basis, Debye-Ang):
   XX=            -90.2852   YY=            -99.2945   ZZ=            -95.0371
   XY=             12.5128   XZ=             -6.5812   YZ=              0.3531

 Normal termination of Gaussian 16 at Thu May  6 14:13:20 2021.
