 Gaussian 16, Revision A.03,
 Gaussian 16:  EM64L-G16RevA.03 25-Dec-2016

 -------------
 #p 6-31g* mp2
 -------------

 ------------------------------------------------------
 Input file generated by CHIRIPA (05-May-2021 14:51:08)
 ------------------------------------------------------
 Symbolic Z-matrix:
 Charge =  0 Multiplicity = 1

                         Standard orientation:
 ---------------------------------------------------------------------
 Center     Atomic      Atomic             Coordinates (Angstroms)
 Number     Number       Type             X           Y           Z
 ---------------------------------------------------------------------
      1          6           0       -3.320614   -0.068872   -0.413449
      2          6           0       -2.640911    1.299178   -0.346913
      3          6           0       -1.200670    1.269252   -0.859362
      4          1           0       -2.736046   -0.790583    0.173370
      5          1           0       -3.307408   -0.426970   -1.452192
      6          1           0       -2.656627    1.655211    0.691167
      7          1           0       -3.227270    2.017761   -0.933802
      8          1           0       -1.169746    0.938509   -1.902556
      9          1           0       -0.595861    0.573899   -0.268355
     10          1           0       -0.733812    2.257536   -0.802812
     11          6           0       -4.760955   -0.055108    0.095429
     12          6           0       -5.440658   -1.423159    0.028893
     13          6           0       -6.880899   -1.393232    0.541342
     14          1           0       -4.774162    0.302989    1.134172
     15          1           0       -5.345524    0.666603   -0.491390
     16          1           0       -4.854299   -2.141741    0.615782
     17          1           0       -5.424943   -1.779191   -1.009187
     18          1           0       -7.485709   -0.697879   -0.049665
     19          1           0       -6.911823   -1.062489    1.584536
     20          1           0       -7.347758   -2.381516    0.484792
     21          6           0        4.502179   -0.354737   -0.284708
     22          6           0        5.273898   -1.428786    0.482656
     23          6           0        6.192669   -2.254178   -0.418668
     24          1           0        3.908767   -0.833314   -1.075765
     25          1           0        5.216716    0.310445   -0.789054
     26          1           0        4.558143   -2.090919    0.986532
     27          1           0        5.865394   -0.947615    1.272101
     28          1           0        6.928894   -1.610630   -0.911029
     29          1           0        5.614215   -2.760430   -1.198219
     30          1           0        6.734625   -3.015980    0.150366
     31          6           0        3.579390    0.478717    0.602728
     32          6           0        2.807671    1.552767   -0.164636
     33          6           0        1.888901    2.378158    0.736688
     34          1           0        2.864853   -0.186464    1.107074
     35          1           0        4.172803    0.957295    1.393785
     36          1           0        2.216175    1.071595   -0.954081
     37          1           0        3.523427    2.214900   -0.668512
     38          1           0        2.467354    2.884411    1.516239
     39          1           0        1.152676    1.734611    1.229049
     40          1           0        1.346945    3.139960    0.167654
 ---------------------------------------------------------------------

 SCF Done:  E(RHF) =  -470.732300873     A.U. after   11 cycles
 E2 =    -0.1583110282D+01 EUMP2 =    -0.47231541115482D+03

 The electronic state is 1-A.
 Alpha  occ. eigenvalues --  -11.21605 -11.21584 -11.21582 -11.21523 -11.21405
 Alpha  occ. eigenvalues --  -11.21373 -11.21345 -11.21314 -11.21073 -11.21055
 Alpha  occ. eigenvalues --  -11.20998 -11.20963  -1.08433  -1.08386  -1.03566
 Alpha  occ. eigenvalues --   -1.03443  -0.96067  -0.95847  -0.87096  -0.86853
 Alpha  occ. eigenvalues --   -0.79612  -0.79525  -0.78243  -0.78204  -0.65107
 Alpha  occ. eigenvalues --   -0.64986  -0.61109  -0.60739  -0.59582  -0.59113
 Alpha  occ. eigenvalues --   -0.57678  -0.57444  -0.55513  -0.54995  -0.52907
 Alpha  occ. eigenvalues --   -0.52456  -0.52427  -0.52206  -0.50080  -0.49677
 Alpha  occ. eigenvalues --   -0.47996  -0.47771  -0.46664  -0.46516  -0.45810
 Alpha  occ. eigenvalues --   -0.45728  -0.45693  -0.45663  -0.43874  -0.43615
 Alpha virt. eigenvalues --    0.21501   0.23019   0.23563   0.25058   0.26184
 Alpha virt. eigenvalues --    0.26634   0.26955   0.27493   0.27756   0.28738
 Alpha virt. eigenvalues --    0.29602   0.31232   0.31338   0.32052   0.32314

 Mulliken charges:
               1
     1  C   -0.298464
     2  C   -0.300551
     3  C   -0.477495
     4  H    0.149218
     5  H    0.149458
     6  H    0.152017
     7  H    0.151788
     8  H    0.153802
     9  H    0.155415
    10  H    0.165016
    11  C   -0.298235
    12  C   -0.299614
    13  C   -0.475698
    14  H    0.149540
    15  H    0.149690
    16  H    0.151829
    17  H    0.151893
    18  H    0.155200
    19  H    0.155200
    20  H    0.160233
    21  C   -0.298269
    22  C   -0.299601
    23  C   -0.475687
    24  H    0.149745
    25  H    0.149513
    26  H    0.151755
    27  H    0.151882
    28  H    0.155169
    29  H    0.155176
    30  H    0.160153
    31  C   -0.298238
    32  C   -0.302904
    33  C   -0.474844
    34  H    0.148693
    35  H    0.149595
    36  H    0.155738
    37  H    0.151550
    38  H    0.153788
    39  H    0.156726
    40  H    0.159817
 Sum of Mulliken charges =  -0.00000

 Dipole moment (field-independent basis, Debye):
    X=             -0.0090    Y=              0.0146    Z=             -0.0103  Tot=              0.0200
 Quadrupole moment (field-independent basis, Debye-Ang):
   XX=            -85.8712   YY=            -84.8090   ZZ=            -84.2842
   XY=              0.7350   XZ=              1.1103   YZ=             -0.4372

 Normal termination of Gaussian 16 at Wed May  5 15:05:14 2021.
