 Gaussian 16, Revision A.03,
 Gaussian 16:  EM64L-G16RevA.03 25-Dec-2016

 -------------
 #p 6-31g* mp2
 -------------

 ------------------------------------------------------
 Input file generated by CHIRIPA (05-May-2021 14:57:26)
 ------------------------------------------------------
 Symbolic Z-matrix:
 Charge =  0 Multiplicity = 1

                         Standard orientation:
 ---------------------------------------------------------------------
 Center     Atomic      Atomic             Coordinates (Angstroms)
 Number     Number       Type             X           Y           Z
 ---------------------------------------------------------------------
      1          6           0       -1.311421    2.327636   -1.046461
      2          6           0       -0.783827    1.072428   -1.366802
      3          6           0       -1.390713   -0.094682   -0.893417
      4          6           0       -2.528992    0.030850   -0.098525
      5          6           0       -3.078507    1.267007    0.237986
      6          6           0       -2.455060    2.420755   -0.246500
      7          1           0       -0.833545    3.229085   -1.418510
      8          1           0        0.104231    0.997081   -1.987866
      9          1           0       -1.003322   -1.079162   -1.126107
     10          1           0       -3.964895    1.310195    0.859169
     11          1           0       -2.867003    3.394231    0.003886
     12          7           0       -3.180241   -1.197644    0.408502
     13          8           0       -4.182113   -1.060101    1.107051
     14          8           0       -2.676485   -2.274820    0.097761
     15          6           0        2.686336    2.108612    1.082765
     16          6           0        2.780091    1.872895   -0.292796
     17          6           0        2.635093    0.579368   -0.803002
     18          6           0        2.396071   -0.459730    0.095016
     19          6           0        2.297407   -0.256889    1.470665
     20          6           0        2.445717    1.044843    1.958561
     21          1           0        2.800260    3.116643    1.470441
     22          1           0        2.966892    2.697112   -0.975304
     23          1           0        2.703040    0.368638   -1.863376
     24          1           0        2.110501   -1.098744    2.126230
     25          1           0        2.372420    1.224945    3.027316
     26          7           0        2.240814   -1.833474   -0.433308
     27          8           0        2.030819   -2.731836    0.378778
     28          8           0        2.332059   -1.985838   -1.649489
 ---------------------------------------------------------------------

 SCF Done:  E(RHF) =  -868.335247067     A.U. after   16 cycles
 E2 =    -0.2604053035D+01 EUMP2 =    -0.87093930010195D+03

 The electronic state is 1-A.
 Alpha  occ. eigenvalues --  -20.61334 -20.61273 -20.60567 -20.60523 -15.86349
 Alpha  occ. eigenvalues --  -15.85602 -11.31800 -11.31103 -11.28465 -11.28322
 Alpha  occ. eigenvalues --  -11.28144 -11.27693 -11.27603 -11.27497 -11.27485
 Alpha  occ. eigenvalues --  -11.27345 -11.26788 -11.26698  -1.60385  -1.59626
 Alpha  occ. eigenvalues --   -1.39932  -1.39171  -1.20004  -1.19287  -1.09370
 Alpha  occ. eigenvalues --   -1.08679  -1.05439  -1.04703  -0.96193  -0.95484
 Alpha  occ. eigenvalues --   -0.86826  -0.86110  -0.83020  -0.82311  -0.78068
 Alpha  occ. eigenvalues --   -0.77326  -0.72552  -0.71836  -0.71727  -0.71116
 Alpha  occ. eigenvalues --   -0.70957  -0.70411  -0.65653  -0.65441  -0.64942
 Alpha  occ. eigenvalues --   -0.64751  -0.62787  -0.62040  -0.55903  -0.55265
 Alpha  occ. eigenvalues --   -0.54015  -0.53523  -0.52912  -0.52626  -0.49337
 Alpha  occ. eigenvalues --   -0.49302  -0.48596  -0.48560  -0.45302  -0.44546
 Alpha  occ. eigenvalues --   -0.38051  -0.37544  -0.36864  -0.36067
 Alpha virt. eigenvalues --    0.04419   0.05186   0.10473   0.11398   0.15902
 Alpha virt. eigenvalues --    0.16673   0.20113   0.21825   0.25726   0.26977
 Alpha virt. eigenvalues --    0.28165   0.28600   0.30038   0.30978   0.32186

 Mulliken charges:
               1
     1  C   -0.172664
     2  C   -0.209837
     3  C   -0.179056
     4  C    0.158794
     5  C   -0.172315
     6  C   -0.219038
     7  H    0.219392
     8  H    0.219953
     9  H    0.284356
    10  H    0.274824
    11  H    0.221083
    12  N    0.487049
    13  O   -0.462872
    14  O   -0.453830
    15  C   -0.169250
    16  C   -0.218351
    17  C   -0.183093
    18  C    0.162402
    19  C   -0.168711
    20  C   -0.216627
    21  H    0.226350
    22  H    0.220750
    23  H    0.272698
    24  H    0.280773
    25  H    0.226863
    26  N    0.485361
    27  O   -0.450304
    28  O   -0.464701
 Sum of Mulliken charges =  -0.00000

 Dipole moment (field-independent basis, Debye):
    X=              2.9547    Y=              8.9173    Z=              0.3291  Tot=              9.3998
 Quadrupole moment (field-independent basis, Debye-Ang):
   XX=           -112.7535   YY=           -107.7871   ZZ=            -99.3528
   XY=             -1.3023   XZ=              6.8790   YZ=             -1.1041

 Normal termination of Gaussian 16 at Thu May  6 11:30:17 2021.
