 Gaussian 16, Revision A.03,
 Gaussian 16:  EM64L-G16RevA.03 25-Dec-2016

 -------------
 #p 6-31g* mp2
 -------------

 ------------------------------------------------------
 Input file generated by CHIRIPA (05-May-2021 14:51:14)
 ------------------------------------------------------
 Symbolic Z-matrix:
 Charge =  0 Multiplicity = 1

                         Standard orientation:
 ---------------------------------------------------------------------
 Center     Atomic      Atomic             Coordinates (Angstroms)
 Number     Number       Type             X           Y           Z
 ---------------------------------------------------------------------
      1          6           0       -2.866550    1.100914   -0.381126
      2          6           0       -2.892890    2.452256    0.333833
      3          6           0       -2.484273    3.610748   -0.576508
      4          1           0       -1.856780    0.921184   -0.774835
      5          1           0       -3.538290    1.140388   -1.249804
      6          1           0       -2.222357    2.409800    1.201704
      7          1           0       -3.902666    2.628703    0.726052
      8          1           0       -3.158707    3.681689   -1.435989
      9          1           0       -1.468851    3.461542   -0.957635
     10          1           0       -2.510076    4.567235   -0.045164
     11          6           0       -3.272632   -0.067068    0.515893
     12          6           0       -3.246292   -1.418410   -0.199066
     13          6           0       -3.654909   -2.576902    0.711276
     14          1           0       -2.600892   -0.106542    1.384571
     15          1           0       -4.282402    0.112662    0.909602
     16          1           0       -2.236517   -1.594857   -0.591285
     17          1           0       -3.916825   -1.375955   -1.066937
     18          1           0       -4.670331   -2.427697    1.092402
     19          1           0       -2.980475   -2.647843    1.570756
     20          1           0       -3.629106   -3.533389    0.179931
     21          6           0        2.833142   -1.214259   -0.270475
     22          6           0        1.312676   -1.372577   -0.237210
     23          6           0        0.855066   -2.773031   -0.646007
     24          1           0        3.196830   -1.439598   -1.282353
     25          1           0        3.287064   -1.959006    0.397883
     26          1           0        0.861687   -0.626844   -0.904372
     27          1           0        0.952546   -1.146649    0.774659
     28          1           0        1.277741   -3.527656    0.025176
     29          1           0        1.186365   -3.004897   -1.663396
     30          1           0       -0.235172   -2.864089   -0.615201
     31          6           0        3.306041    0.180413    0.135707
     32          6           0        4.826505    0.338731    0.102442
     33          6           0        5.284117    1.739185    0.511241
     34          1           0        2.852119    0.925160   -0.532651
     35          1           0        2.942353    0.405752    1.147586
     36          1           0        5.186637    0.112803   -0.909427
     37          1           0        5.277496   -0.407003    0.769605
     38          1           0        4.952817    1.971052    1.528629
     39          1           0        4.861442    2.493811   -0.159942
     40          1           0        6.374355    1.830243    0.480434
 ---------------------------------------------------------------------

 SCF Done:  E(RHF) =  -470.733348787     A.U. after   11 cycles
 E2 =    -0.1583102656D+01 EUMP2 =    -0.47231645144312D+03

 The electronic state is 1-A.
 Alpha  occ. eigenvalues --  -11.21687 -11.21638 -11.21583 -11.21576 -11.21461
 Alpha  occ. eigenvalues --  -11.21401 -11.21385 -11.21325 -11.21104 -11.21099
 Alpha  occ. eigenvalues --  -11.21073 -11.21060  -1.08488  -1.08410  -1.03592
 Alpha  occ. eigenvalues --   -1.03509  -0.96032  -0.95963  -0.87046  -0.86981
 Alpha  occ. eigenvalues --   -0.79652  -0.79575  -0.78308  -0.78220  -0.65118
 Alpha  occ. eigenvalues --   -0.65055  -0.60984  -0.60970  -0.59458  -0.59258
 Alpha  occ. eigenvalues --   -0.57681  -0.57529  -0.55311  -0.55256  -0.52737
 Alpha  occ. eigenvalues --   -0.52654  -0.52468  -0.52380  -0.49973  -0.49895
 Alpha  occ. eigenvalues --   -0.48026  -0.47839  -0.46687  -0.46588  -0.45882
 Alpha  occ. eigenvalues --   -0.45798  -0.45737  -0.45615  -0.43827  -0.43762
 Alpha virt. eigenvalues --    0.20269   0.23115   0.23538   0.24658   0.25821
 Alpha virt. eigenvalues --    0.26485   0.27068   0.27355   0.28131   0.29117
 Alpha virt. eigenvalues --    0.30690   0.31288   0.31545   0.31845   0.32267

 Mulliken charges:
               1
     1  C   -0.300113
     2  C   -0.299579
     3  C   -0.475666
     4  H    0.151436
     5  H    0.149309
     6  H    0.152123
     7  H    0.151845
     8  H    0.155061
     9  H    0.155042
    10  H    0.160240
    11  C   -0.297341
    12  C   -0.307744
    13  C   -0.475785
    14  H    0.149565
    15  H    0.149512
    16  H    0.158999
    17  H    0.152012
    18  H    0.155410
    19  H    0.155254
    20  H    0.160212
    21  C   -0.298296
    22  C   -0.301249
    23  C   -0.482257
    24  H    0.150013
    25  H    0.149932
    26  H    0.152627
    27  H    0.151679
    28  H    0.155664
    29  H    0.155548
    30  H    0.166390
    31  C   -0.298306
    32  C   -0.299713
    33  C   -0.475758
    34  H    0.149343
    35  H    0.149573
    36  H    0.152087
    37  H    0.152046
    38  H    0.155204
    39  H    0.155264
    40  H    0.160419
 Sum of Mulliken charges =  -0.00000

 Dipole moment (field-independent basis, Debye):
    X=              0.0210    Y=             -0.0104    Z=             -0.0006  Tot=              0.0235
 Quadrupole moment (field-independent basis, Debye-Ang):
   XX=            -84.1129   YY=            -86.4909   ZZ=            -84.0980
   XY=             -0.8675   XZ=              0.3308   YZ=             -0.0875

 Normal termination of Gaussian 16 at Wed May  5 20:02:25 2021.
