 Gaussian 16, Revision A.03,
 Gaussian 16:  EM64L-G16RevA.03 25-Dec-2016

 -------------
 #p 6-31g* mp2
 -------------

 ------------------------------------------------------
 Input file generated by CHIRIPA (05-May-2021 14:53:13)
 ------------------------------------------------------
 Symbolic Z-matrix:
 Charge =  0 Multiplicity = 1

                         Standard orientation:
 ---------------------------------------------------------------------
 Center     Atomic      Atomic             Coordinates (Angstroms)
 Number     Number       Type             X           Y           Z
 ---------------------------------------------------------------------
      1          6           0        4.089694    0.064579   -0.282349
      2          6           0        4.234644    1.454515    0.338178
      3          6           0        5.619132    2.062093    0.110505
      4          1           0        4.856911   -0.599687    0.138452
      5          1           0        4.289821    0.129467   -1.360836
      6          1           0        4.032948    1.387270    1.414939
      7          1           0        3.466872    2.115498   -0.084008
      8          1           0        5.826346    2.158148   -0.960213
      9          1           0        6.395639    1.425782    0.547250
     10          1           0        5.700804    3.055594    0.562331
     11          6           0        2.711057   -0.555944   -0.063174
     12          6           0        2.566107   -1.945879   -0.683701
     13          6           0        1.181619   -2.553458   -0.456028
     14          1           0        2.510930   -0.620831    1.015313
     15          1           0        1.943840    0.108323   -0.483976
     16          1           0        3.333879   -2.606863   -0.261515
     17          1           0        2.767803   -1.878634   -1.760462
     18          1           0        0.405112   -1.917146   -0.892774
     19          1           0        0.974405   -2.649513    0.614690
     20          1           0        1.099947   -3.546958   -0.907854
     21          6           0       -3.356383    2.517421   -0.549341
     22          6           0       -2.784158    2.300261    0.708404
     23          6           0       -2.392641    1.015988    1.098152
     24          6           0       -2.588886   -0.032880    0.201126
     25          6           0       -3.156258    0.151466   -1.058791
     26          6           0       -3.540283    1.444223   -1.427376
     27          1           0       -3.657613    3.518370   -0.843885
     28          1           0       -2.640136    3.131836    1.392353
     29          1           0       -1.947218    0.819621    2.065859
     30          1           0       -3.287137   -0.697356   -1.718934
     31          1           0       -3.984426    1.609911   -2.404786
     32          7           0       -2.178370   -1.396973    0.602533
     33          8           0       -2.361974   -2.304252   -0.206028
     34          8           0       -1.680776   -1.533040    1.718115
 ---------------------------------------------------------------------

 SCF Done:  E(RHF) =  -669.535797800     A.U. after   15 cycles
 E2 =    -0.2092146177D+01 EUMP2 =    -0.67162794397714D+03

 The electronic state is 1-A.
 Alpha  occ. eigenvalues --  -20.60860 -20.60854 -15.85862 -11.31243 -11.27810
 Alpha  occ. eigenvalues --  -11.27804 -11.27552 -11.26824 -11.26813 -11.21391
 Alpha  occ. eigenvalues --  -11.21017 -11.20923 -11.20850 -11.20774 -11.19795
 Alpha  occ. eigenvalues --   -1.59903  -1.39462  -1.19413  -1.08808  -1.07950
 Alpha  occ. eigenvalues --   -1.04814  -1.02963  -0.95648  -0.95376  -0.86389
 Alpha  occ. eigenvalues --   -0.86212  -0.82479  -0.79059  -0.77741  -0.77526
 Alpha  occ. eigenvalues --   -0.72102  -0.71222  -0.70520  -0.65067  -0.64816
 Alpha  occ. eigenvalues --   -0.64590  -0.62160  -0.60366  -0.58815  -0.56989
 Alpha  occ. eigenvalues --   -0.55317  -0.54671  -0.53151  -0.52906  -0.52050
 Alpha  occ. eigenvalues --   -0.51794  -0.49349  -0.48868  -0.48859  -0.47315
 Alpha  occ. eigenvalues --   -0.46157  -0.45302  -0.45220  -0.44700  -0.43212
 Alpha  occ. eigenvalues --   -0.37392  -0.36416
 Alpha virt. eigenvalues --    0.04977   0.11230   0.16443   0.21369   0.23283
 Alpha virt. eigenvalues --    0.24871   0.27061   0.27288   0.27843   0.28197
 Alpha virt. eigenvalues --    0.28688   0.30915   0.31851   0.32217   0.32545

 Mulliken charges:
               1
     1  C   -0.297456
     2  C   -0.298948
     3  C   -0.475273
     4  H    0.149871
     5  H    0.148035
     6  H    0.151540
     7  H    0.148982
     8  H    0.154524
     9  H    0.155673
    10  H    0.158258
    11  C   -0.297655
    12  C   -0.301201
    13  C   -0.474524
    14  H    0.151941
    15  H    0.144558
    16  H    0.149908
    17  H    0.147272
    18  H    0.148544
    19  H    0.170113
    20  H    0.160676
    21  C   -0.170725
    22  C   -0.218593
    23  C   -0.170451
    24  C    0.158017
    25  C   -0.171677
    26  C   -0.218603
    27  H    0.225812
    28  H    0.223746
    29  H    0.275837
    30  H    0.275901
    31  H    0.223637
    32  N    0.488885
    33  O   -0.457420
    34  O   -0.459205
 Sum of Mulliken charges =  -0.00000

 Dipole moment (field-independent basis, Debye):
    X=             -1.6449    Y=              4.6968    Z=             -1.3186  Tot=              5.1482
 Quadrupole moment (field-independent basis, Debye-Ang):
   XX=            -88.8680   YY=            -94.9036   ZZ=            -90.9058
   XY=            -12.7619   XZ=              5.6196   YZ=              2.2999

 Normal termination of Gaussian 16 at Thu May  6 13:44:50 2021.
