 Gaussian 16, Revision A.03,
 Gaussian 16:  EM64L-G16RevA.03 25-Dec-2016

 -------------
 #p 6-31g* mp2
 -------------

 ------------------------------------------------------
 Input file generated by CHIRIPA (05-May-2021 14:53:13)
 ------------------------------------------------------
 Symbolic Z-matrix:
 Charge =  0 Multiplicity = 1

                         Standard orientation:
 ---------------------------------------------------------------------
 Center     Atomic      Atomic             Coordinates (Angstroms)
 Number     Number       Type             X           Y           Z
 ---------------------------------------------------------------------
      1          6           0        3.748054    0.628838    0.418629
      2          6           0        3.319292    1.854462   -0.388833
      3          6           0        2.995143    3.060101    0.493865
      4          1           0        2.948404    0.364247    1.123964
      5          1           0        4.627059    0.887214    1.025247
      6          1           0        2.442194    1.593453   -0.994794
      7          1           0        4.119977    2.116049   -1.092461
      8          1           0        3.868309    3.348374    1.088070
      9          1           0        2.180994    2.822808    1.186291
     10          1           0        2.690942    3.925032   -0.103811
     11          6           0        4.075451   -0.584565   -0.449814
     12          6           0        4.504213   -1.810189    0.357647
     13          6           0        4.828362   -3.015828   -0.525050
     14          1           0        3.196446   -0.842941   -1.056433
     15          1           0        4.875101   -0.319975   -1.155149
     16          1           0        3.703528   -2.071776    1.061275
     17          1           0        5.381311   -1.549180    0.963609
     18          1           0        5.642511   -2.778536   -1.217477
     19          1           0        3.955196   -3.304101   -1.119255
     20          1           0        5.132563   -3.880759    0.072626
     21          6           0       -0.674001    0.811919    0.076532
     22          6           0       -1.450448    1.001557   -1.071374
     23          6           0       -2.771454    0.546262   -1.118228
     24          6           0       -3.286345   -0.097459    0.005960
     25          6           0       -2.538021   -0.301445    1.164275
     26          6           0       -1.219305    0.162169    1.188733
     27          1           0        0.351299    1.168834    0.104230
     28          1           0       -1.029585    1.505826   -1.936611
     29          1           0       -3.394849    0.679799   -1.993993
     30          1           0       -2.985244   -0.807673    2.011118
     31          1           0       -0.618644    0.013502    2.081564
     32          7           0       -4.683623   -0.583863   -0.031786
     33          8           0       -5.113868   -1.147987    0.971853
     34          8           0       -5.322107   -0.391773   -1.064296
 ---------------------------------------------------------------------

 SCF Done:  E(RHF) =  -669.535302866     A.U. after   15 cycles
 E2 =    -0.2091846404D+01 EUMP2 =    -0.67162714926937D+03

 The electronic state is 1-A.
 Alpha  occ. eigenvalues --  -20.60748 -20.60743 -15.85802 -11.31167 -11.27739
 Alpha  occ. eigenvalues --  -11.27736 -11.27434 -11.26751 -11.26740 -11.22899
 Alpha  occ. eigenvalues --  -11.22531 -11.22333 -11.22302 -11.22253 -11.21637
 Alpha  occ. eigenvalues --   -1.59824  -1.39377  -1.19339  -1.09463  -1.08730
 Alpha  occ. eigenvalues --   -1.04744  -1.04513  -0.96936  -0.95568  -0.87947
 Alpha  occ. eigenvalues --   -0.86141  -0.82405  -0.80592  -0.79223  -0.77450
 Alpha  occ. eigenvalues --   -0.72020  -0.71147  -0.70514  -0.66106  -0.64990
 Alpha  occ. eigenvalues --   -0.64743  -0.62094  -0.61936  -0.60321  -0.58531
 Alpha  occ. eigenvalues --   -0.56274  -0.55154  -0.53615  -0.53336  -0.53071
 Alpha  occ. eigenvalues --   -0.52835  -0.50893  -0.48881  -0.48775  -0.48773
 Alpha  occ. eigenvalues --   -0.47674  -0.46757  -0.46679  -0.44783  -0.44752
 Alpha  occ. eigenvalues --   -0.37312  -0.36352
 Alpha virt. eigenvalues --    0.05075   0.11295   0.16521   0.18317   0.22844
 Alpha virt. eigenvalues --    0.23793   0.24991   0.25635   0.27055   0.27815
 Alpha virt. eigenvalues --    0.29319   0.30265   0.30747   0.30954   0.31834

 Mulliken charges:
               1
     1  C   -0.298634
     2  C   -0.305995
     3  C   -0.478064
     4  H    0.142260
     5  H    0.154961
     6  H    0.142340
     7  H    0.160377
     8  H    0.162032
     9  H    0.149543
    10  H    0.164155
    11  C   -0.298875
    12  C   -0.300023
    13  C   -0.476429
    14  H    0.149399
    15  H    0.152612
    16  H    0.151282
    17  H    0.153507
    18  H    0.156378
    19  H    0.156600
    20  H    0.162676
    21  C   -0.180133
    22  C   -0.221905
    23  C   -0.170552
    24  C    0.158138
    25  C   -0.170517
    26  C   -0.221508
    27  H    0.241867
    28  H    0.223367
    29  H    0.275535
    30  H    0.275488
    31  H    0.223084
    32  N    0.488002
    33  O   -0.460491
    34  O   -0.460479
 Sum of Mulliken charges =  -0.00000

 Dipole moment (field-independent basis, Debye):
    X=              5.1991    Y=              1.7095    Z=              0.1128  Tot=              5.4741
 Quadrupole moment (field-independent basis, Debye-Ang):
   XX=           -125.6771   YY=            -95.6234   ZZ=            -90.7598
   XY=             -5.6486   XZ=              0.1550   YZ=             -2.3762

 Normal termination of Gaussian 16 at Wed May  5 15:33:25 2021.
