 Gaussian 16, Revision A.03,
 Gaussian 16:  EM64L-G16RevA.03 25-Dec-2016

 -------------
 #p 6-31g* mp2
 -------------

 ------------------------------------------------------
 Input file generated by CHIRIPA (05-May-2021 14:51:12)
 ------------------------------------------------------
 Symbolic Z-matrix:
 Charge =  0 Multiplicity = 1

                         Standard orientation:
 ---------------------------------------------------------------------
 Center     Atomic      Atomic             Coordinates (Angstroms)
 Number     Number       Type             X           Y           Z
 ---------------------------------------------------------------------
      1          6           0       -4.074500   -0.100887   -0.019240
      2          6           0       -5.088830   -0.209217   -1.158268
      3          6           0       -5.994261   -1.434484   -1.028999
      4          1           0       -3.460407   -1.011538    0.004216
      5          1           0       -4.611836   -0.061487    0.938420
      6          1           0       -4.549790   -0.247007   -2.113581
      7          1           0       -5.700453    0.701880   -1.179136
      8          1           0       -6.557602   -1.399949   -0.090887
      9          1           0       -5.400401   -2.354227   -1.030641
     10          1           0       -6.711614   -1.492358   -1.853569
     11          6           0       -3.162140    1.118969   -0.134483
     12          6           0       -2.147810    1.227299    1.004545
     13          6           0       -1.242379    2.452565    0.875276
     14          1           0       -2.624804    1.079568   -1.092143
     15          1           0       -3.776233    2.029619   -0.157939
     16          1           0       -1.536187    0.316201    1.025413
     17          1           0       -2.686850    1.265089    1.959858
     18          1           0       -1.836239    3.372309    0.876918
     19          1           0       -0.679038    2.418030   -0.062837
     20          1           0       -0.525026    2.510439    1.699846
     21          6           0        4.128691   -0.527142   -0.491139
     22          6           0        5.137861    0.620274   -0.436343
     23          6           0        6.152330    0.570381   -1.579215
     24          1           0        4.668578   -1.483517   -0.462605
     25          1           0        3.599803   -0.495371   -1.453772
     26          1           0        5.663714    0.587176    0.526465
     27          1           0        4.595499    1.574028   -0.464817
     28          1           0        5.644741    0.626546   -2.547614
     29          1           0        6.719025   -0.365914   -1.550700
     30          1           0        6.864147    1.399688   -1.520672
     31          6           0        3.107948   -0.490940    0.644863
     32          6           0        2.098780   -1.638355    0.590066
     33          6           0        1.084310   -1.588463    1.732938
     34          1           0        3.636837   -0.522711    1.607496
     35          1           0        2.568063    0.465436    0.616329
     36          1           0        2.641141   -2.592110    0.618540
     37          1           0        1.572926   -1.605258   -0.372741
     38          1           0        0.517615   -0.652168    1.704424
     39          1           0        1.591899   -1.644627    2.701338
     40          1           0        0.372493   -2.417770    1.674395
 ---------------------------------------------------------------------

 SCF Done:  E(RHF) =  -470.733313296     A.U. after   11 cycles
 E2 =    -0.1582630714D+01 EUMP2 =    -0.47231594401078D+03

 The electronic state is 1-A.
 Alpha  occ. eigenvalues --  -11.21622 -11.21604 -11.21603 -11.21590 -11.21412
 Alpha  occ. eigenvalues --  -11.21409 -11.21353 -11.21349 -11.21119 -11.21073
 Alpha  occ. eigenvalues --  -11.21072 -11.21071  -1.08448  -1.08429  -1.03566
 Alpha  occ. eigenvalues --   -1.03519  -0.96012  -0.95974  -0.87025  -0.86994
 Alpha  occ. eigenvalues --   -0.79658  -0.79553  -0.78272  -0.78227  -0.65146
 Alpha  occ. eigenvalues --   -0.65005  -0.61109  -0.60795  -0.59377  -0.59344
 Alpha  occ. eigenvalues --   -0.57662  -0.57547  -0.55364  -0.55200  -0.52696
 Alpha  occ. eigenvalues --   -0.52680  -0.52418  -0.52416  -0.50057  -0.49843
 Alpha  occ. eigenvalues --   -0.47999  -0.47850  -0.46792  -0.46476  -0.45851
 Alpha  occ. eigenvalues --   -0.45758  -0.45736  -0.45586  -0.43799  -0.43789
 Alpha virt. eigenvalues --    0.21018   0.23209   0.23562   0.24977   0.26258
 Alpha virt. eigenvalues --    0.26818   0.27015   0.27175   0.28261   0.28906
 Alpha virt. eigenvalues --    0.30744   0.31436   0.31658   0.31760   0.32040

 Mulliken charges:
               1
     1  C   -0.298434
     2  C   -0.299655
     3  C   -0.475712
     4  H    0.149955
     5  H    0.149665
     6  H    0.151822
     7  H    0.151935
     8  H    0.155234
     9  H    0.155195
    10  H    0.160239
    11  C   -0.297594
    12  C   -0.306975
    13  C   -0.476557
    14  H    0.149114
    15  H    0.149603
    16  H    0.158786
    17  H    0.152309
    18  H    0.155786
    19  H    0.154522
    20  H    0.160533
    21  C   -0.298269
    22  C   -0.299724
    23  C   -0.475706
    24  H    0.149649
    25  H    0.149336
    26  H    0.151958
    27  H    0.152161
    28  H    0.155134
    29  H    0.155155
    30  H    0.160315
    31  C   -0.298879
    32  C   -0.299390
    33  C   -0.482725
    34  H    0.149590
    35  H    0.150411
    36  H    0.152102
    37  H    0.151298
    38  H    0.162476
    39  H    0.155544
    40  H    0.159794
 Sum of Mulliken charges =  -0.00000

 Dipole moment (field-independent basis, Debye):
    X=             -0.0022    Y=              0.0024    Z=              0.0138  Tot=              0.0142
 Quadrupole moment (field-independent basis, Debye-Ang):
   XX=            -85.1094   YY=            -84.8927   ZZ=            -84.7431
   XY=             -1.4188   XZ=              0.5659   YZ=              0.0148

 Normal termination of Gaussian 16 at Wed May  5 18:17:54 2021.
