 Gaussian 16, Revision A.03,
 Gaussian 16:  EM64L-G16RevA.03 25-Dec-2016

 -------------
 #p 6-31g* mp2
 -------------

 ------------------------------------------------------
 Input file generated by CHIRIPA (05-May-2021 14:55:25)
 ------------------------------------------------------
 Symbolic Z-matrix:
 Charge =  0 Multiplicity = 1

                         Standard orientation:
 ---------------------------------------------------------------------
 Center     Atomic      Atomic             Coordinates (Angstroms)
 Number     Number       Type             X           Y           Z
 ---------------------------------------------------------------------
      1          6           0       -4.070250   -1.828951    0.453574
      2          6           0       -4.405579   -0.700179    1.208524
      3          6           0       -3.798008    0.532346    0.951061
      4          6           0       -2.855106    0.600448   -0.073434
      5          6           0       -2.499795   -0.506202   -0.843090
      6          6           0       -3.120103   -1.728537   -0.568022
      7          1           0       -4.547173   -2.782448    0.660416
      8          1           0       -5.143128   -0.775207    2.002525
      9          1           0       -4.038888    1.422064    1.520093
     10          1           0       -1.760912   -0.400279   -1.628106
     11          1           0       -2.857721   -2.603494   -1.155943
     12          7           0       -2.205156    1.899873   -0.355317
     13          8           0       -1.377546    1.933587   -1.263372
     14          8           0       -2.535641    2.860043    0.337134
     15          6           0        3.173711   -0.628855   -0.393863
     16          6           0        2.207592   -1.634063    0.233956
     17          6           0        0.976305   -1.892532   -0.634905
     18          1           0        2.643995    0.316930   -0.572287
     19          1           0        3.489978   -1.000522   -1.378359
     20          1           0        1.894319   -1.261271    1.217572
     21          1           0        2.739721   -2.577505    0.411083
     22          1           0        1.270737   -2.287809   -1.612487
     23          1           0        0.420531   -0.964098   -0.801415
     24          1           0        0.299172   -2.614041   -0.167169
     25          6           0        4.409587   -0.360039    0.462921
     26          6           0        5.375706    0.645170   -0.164897
     27          6           0        6.606994    0.903638    0.703964
     28          1           0        4.093320    0.011629    1.447417
     29          1           0        4.939303   -1.305824    0.641345
     30          1           0        4.843577    1.588610   -0.342025
     31          1           0        5.688979    0.272377   -1.148514
     32          1           0        7.162767   -0.024796    0.870474
     33          1           0        6.312561    1.298916    1.681546
     34          1           0        7.284126    1.625147    0.236228
 ---------------------------------------------------------------------

 SCF Done:  E(RHF) =  -669.535257687     A.U. after   15 cycles
 E2 =    -0.2091886956D+01 EUMP2 =    -0.67162714464333D+03

 The electronic state is 1-A.
 Alpha  occ. eigenvalues --  -20.60827 -20.60821 -15.85870 -11.31180 -11.27763
 Alpha  occ. eigenvalues --  -11.27730 -11.27500 -11.26762 -11.26740 -11.21596
 Alpha  occ. eigenvalues --  -11.21326 -11.21249 -11.21184 -11.21124 -11.20830
 Alpha  occ. eigenvalues --   -1.59896  -1.39452  -1.19363  -1.08766  -1.08258
 Alpha  occ. eigenvalues --   -1.04760  -1.03420  -0.95899  -0.95601  -0.86930
 Alpha  occ. eigenvalues --   -0.86158  -0.82438  -0.79502  -0.78051  -0.77485
 Alpha  occ. eigenvalues --   -0.72089  -0.71217  -0.70485  -0.65014  -0.64910
 Alpha  occ. eigenvalues --   -0.64745  -0.62142  -0.60799  -0.59264  -0.57487
 Alpha  occ. eigenvalues --   -0.55342  -0.55123  -0.53142  -0.52894  -0.52560
 Alpha  occ. eigenvalues --   -0.52262  -0.49807  -0.48849  -0.48842  -0.47803
 Alpha  occ. eigenvalues --   -0.46499  -0.45602  -0.45499  -0.44851  -0.43666
 Alpha  occ. eigenvalues --   -0.37345  -0.36310
 Alpha virt. eigenvalues --    0.05018   0.11211   0.16491   0.21149   0.23079
 Alpha virt. eigenvalues --    0.24398   0.26256   0.26913   0.27519   0.28102
 Alpha virt. eigenvalues --    0.29059   0.29828   0.31536   0.31742   0.32250

 Mulliken charges:
               1
     1  C   -0.171040
     2  C   -0.218652
     3  C   -0.171019
     4  C    0.157185
     5  C   -0.168083
     6  C   -0.219115
     7  H    0.225582
     8  H    0.223316
     9  H    0.275408
    10  H    0.277558
    11  H    0.224408
    12  N    0.488689
    13  O   -0.462297
    14  O   -0.459909
    15  C   -0.300967
    16  C   -0.298306
    17  C   -0.483282
    18  H    0.158863
    19  H    0.148406
    20  H    0.153143
    21  H    0.150510
    22  H    0.153557
    23  H    0.160903
    24  H    0.155021
    25  C   -0.298362
    26  C   -0.300252
    27  C   -0.475713
    28  H    0.150081
    29  H    0.147693
    30  H    0.155745
    31  H    0.151262
    32  H    0.153789
    33  H    0.155445
    34  H    0.160434
 Sum of Mulliken charges =  -0.00000

 Dipole moment (field-independent basis, Debye):
    X=             -2.2958    Y=             -4.4951    Z=              0.9947  Tot=              5.1445
 Quadrupole moment (field-independent basis, Debye-Ang):
   XX=            -81.4809   YY=            -99.6315   ZZ=            -92.7057
   XY=             10.2197   XZ=             -5.7563   YZ=              2.9218

 Normal termination of Gaussian 16 at Thu May  6 14:23:10 2021.
