 Gaussian 16, Revision A.03,
 Gaussian 16:  EM64L-G16RevA.03 25-Dec-2016

 -------------
 #p 6-31g* mp2
 -------------

 ------------------------------------------------------
 Input file generated by CHIRIPA (05-May-2021 14:57:25)
 ------------------------------------------------------
 Symbolic Z-matrix:
 Charge =  0 Multiplicity = 1

                         Standard orientation:
 ---------------------------------------------------------------------
 Center     Atomic      Atomic             Coordinates (Angstroms)
 Number     Number       Type             X           Y           Z
 ---------------------------------------------------------------------
      1          6           0       -5.188304   -1.981464    0.461085
      2          6           0       -3.856128   -1.980029    0.034677
      3          6           0       -3.194702   -0.775790   -0.223920
      4          6           0       -3.898904    0.413890   -0.044891
      5          6           0       -5.226603    0.445282    0.378806
      6          6           0       -5.868092   -0.770939    0.631488
      7          1           0       -5.694372   -2.921600    0.659672
      8          1           0       -3.325707   -2.918623   -0.098516
      9          1           0       -2.163745   -0.745718   -0.555041
     10          1           0       -5.729125    1.396898    0.502563
     11          1           0       -6.902716   -0.769018    0.962537
     12          7           0       -3.209235    1.695106   -0.315525
     13          8           0       -3.851781    2.729725   -0.150188
     14          8           0       -2.039186    1.640445   -0.687860
     15          6           0        1.786493   -1.283511   -0.492073
     16          6           0        1.855761    0.088841   -0.230586
     17          6           0        3.083764    0.698312    0.043461
     18          6           0        4.227778   -0.098244    0.047887
     19          6           0        4.191293   -1.467944   -0.208789
     20          6           0        2.952424   -2.056160   -0.480361
     21          1           0        0.828330   -1.748707   -0.703998
     22          1           0        0.951915    0.691364   -0.239011
     23          1           0        3.166093    1.758630    0.249294
     24          1           0        5.109477   -2.042503   -0.193331
     25          1           0        2.901636   -3.122167   -0.683080
     26          7           0        5.533562    0.535725    0.336697
     27          8           0        6.526932   -0.188049    0.334636
     28          8           0        5.538940    1.744400    0.559661
 ---------------------------------------------------------------------

 SCF Done:  E(RHF) =  -868.338607190     A.U. after   16 cycles
 E2 =    -0.2599201445D+01 EUMP2 =    -0.87093780863489D+03

 The electronic state is 1-A.
 Alpha  occ. eigenvalues --  -20.61782 -20.61718 -20.60467 -20.60453 -15.86796
 Alpha  occ. eigenvalues --  -15.85510 -11.32055 -11.30859 -11.28702 -11.28547
 Alpha  occ. eigenvalues --  -11.28286 -11.27628 -11.27533 -11.27442 -11.27316
 Alpha  occ. eigenvalues --  -11.27234 -11.26531 -11.26263  -1.60806  -1.59537
 Alpha  occ. eigenvalues --   -1.40370  -1.39091  -1.20205  -1.19018  -1.09607
 Alpha  occ. eigenvalues --   -1.08441  -1.05602  -1.04390  -0.96469  -0.95283
 Alpha  occ. eigenvalues --   -0.87001  -0.85801  -0.83316  -0.82090  -0.78389
 Alpha  occ. eigenvalues --   -0.77118  -0.73021  -0.72113  -0.71731  -0.71315
 Alpha  occ. eigenvalues --   -0.70858  -0.70202  -0.65865  -0.65604  -0.64672
 Alpha  occ. eigenvalues --   -0.64362  -0.62969  -0.61708  -0.56080  -0.54997
 Alpha  occ. eigenvalues --   -0.53917  -0.53696  -0.52755  -0.52456  -0.49785
 Alpha  occ. eigenvalues --   -0.49740  -0.48488  -0.48484  -0.45794  -0.44499
 Alpha  occ. eigenvalues --   -0.38152  -0.37195  -0.37046  -0.35982
 Alpha virt. eigenvalues --    0.04148   0.05371   0.10464   0.11657   0.15661
 Alpha virt. eigenvalues --    0.16868   0.18568   0.21869   0.25039   0.26874
 Alpha virt. eigenvalues --    0.27997   0.29114   0.30707   0.31149   0.32231

 Mulliken charges:
               1
     1  C   -0.169887
     2  C   -0.217557
     3  C   -0.170711
     4  C    0.159320
     5  C   -0.169719
     6  C   -0.218031
     7  H    0.228401
     8  H    0.222261
     9  H    0.266977
    10  H    0.278036
    11  H    0.226678
    12  N    0.492186
    13  O   -0.453687
    14  O   -0.472001
    15  C   -0.172351
    16  C   -0.226455
    17  C   -0.172112
    18  C    0.159100
    19  C   -0.172382
    20  C   -0.217987
    21  H    0.214960
    22  H    0.245762
    23  H    0.278584
    24  H    0.274082
    25  H    0.219868
    26  N    0.487897
    27  O   -0.462024
    28  O   -0.459210
 Sum of Mulliken charges =  -0.00000

 Dipole moment (field-independent basis, Debye):
    X=             -7.4420    Y=             -6.5584    Z=              0.0112  Tot=              9.9194
 Quadrupole moment (field-independent basis, Debye-Ang):
   XX=           -119.5613   YY=           -103.4179   ZZ=           -106.3955
   XY=              3.4039   XZ=             -9.8920   YZ=              1.7518

 Normal termination of Gaussian 16 at Fri May  7 03:28:44 2021.
