 Gaussian 16, Revision A.03,
 Gaussian 16:  EM64L-G16RevA.03 25-Dec-2016

 -------------
 #p 6-31g* mp2
 -------------

 ------------------------------------------------------
 Input file generated by CHIRIPA (05-May-2021 14:55:23)
 ------------------------------------------------------
 Symbolic Z-matrix:
 Charge =  0 Multiplicity = 1

                         Standard orientation:
 ---------------------------------------------------------------------
 Center     Atomic      Atomic             Coordinates (Angstroms)
 Number     Number       Type             X           Y           Z
 ---------------------------------------------------------------------
      1          6           0        1.199419   -2.495861    0.924583
      2          6           0        0.546372   -1.815577   -0.108502
      3          6           0        1.145748   -0.711272   -0.721532
      4          6           0        2.404525   -0.312667   -0.274448
      5          6           0        3.080566   -0.969760    0.752435
      6          6           0        2.462206   -2.071529    1.351003
      7          1           0        0.726436   -3.352727    1.395182
      8          1           0       -0.434383   -2.142884   -0.441721
      9          1           0        0.662588   -0.166362   -1.523434
     10          1           0        4.057616   -0.619931    1.062939
     11          1           0        2.971720   -2.597932    2.153088
     12          7           0        3.049107    0.855069   -0.915779
     13          8           0        4.158611    1.186355   -0.503606
     14          8           0        2.432620    1.416944   -1.818486
     15          6           0       -2.767357    1.373407    0.373128
     16          6           0       -1.414990    1.535836    1.067899
     17          6           0       -1.080071    2.995587    1.375711
     18          1           0       -2.765841    1.955125   -0.558830
     19          1           0       -3.552714    1.804459    1.009369
     20          1           0       -0.632590    1.103367    0.431160
     21          1           0       -1.419659    0.953509    1.998216
     22          1           0       -1.839529    3.435314    2.030283
     23          1           0       -1.047989    3.586023    0.454323
     24          1           0       -0.109169    3.088629    1.872253
     25          6           0       -3.116267   -0.080288    0.058867
     26          6           0       -4.468633   -0.242717   -0.635904
     27          6           0       -4.803554   -1.702469   -0.943716
     28          1           0       -2.330911   -0.511340   -0.577374
     29          1           0       -3.117783   -0.662006    0.990826
     30          1           0       -4.463966    0.339609   -1.566221
     31          1           0       -5.251033    0.189752    0.000836
     32          1           0       -4.835635   -2.292905   -0.022327
     33          1           0       -4.044095   -2.142196   -1.598288
     34          1           0       -5.774454   -1.795510   -1.440257
 ---------------------------------------------------------------------

 SCF Done:  E(RHF) =  -669.534333076     A.U. after   15 cycles
 E2 =    -0.2093910853D+01 EUMP2 =    -0.67162824392880D+03

 The electronic state is 1-A.
 Alpha  occ. eigenvalues --  -20.60792 -20.60787 -15.85845 -11.31208 -11.27768
 Alpha  occ. eigenvalues --  -11.27764 -11.27495 -11.26782 -11.26743 -11.22124
 Alpha  occ. eigenvalues --  -11.22025 -11.21689 -11.21681 -11.21623 -11.20976
 Alpha  occ. eigenvalues --   -1.59867  -1.39421  -1.19383  -1.08842  -1.08764
 Alpha  occ. eigenvalues --   -1.04792  -1.03836  -0.96310  -0.95610  -0.87320
 Alpha  occ. eigenvalues --   -0.86180  -0.82449  -0.79935  -0.78678  -0.77473
 Alpha  occ. eigenvalues --   -0.72063  -0.71192  -0.70493  -0.65504  -0.65021
 Alpha  occ. eigenvalues --   -0.64790  -0.62135  -0.61235  -0.59697  -0.57916
 Alpha  occ. eigenvalues --   -0.55615  -0.55275  -0.53211  -0.52962  -0.52886
 Alpha  occ. eigenvalues --   -0.52664  -0.50244  -0.48823  -0.48819  -0.48229
 Alpha  occ. eigenvalues --   -0.46984  -0.46171  -0.46095  -0.44819  -0.44119
 Alpha  occ. eigenvalues --   -0.37346  -0.36271
 Alpha virt. eigenvalues --    0.05015   0.11175   0.16442   0.19957   0.22907
 Alpha virt. eigenvalues --    0.23724   0.25168   0.26663   0.27459   0.28227
 Alpha virt. eigenvalues --    0.29845   0.30136   0.31413   0.31615   0.32066

 Mulliken charges:
               1
     1  C   -0.171765
     2  C   -0.214332
     3  C   -0.176422
     4  C    0.160729
     5  C   -0.171342
     6  C   -0.218107
     7  H    0.225912
     8  H    0.227004
     9  H    0.275058
    10  H    0.275599
    11  H    0.223459
    12  N    0.488452
    13  O   -0.460205
    14  O   -0.461184
    15  C   -0.299032
    16  C   -0.304683
    17  C   -0.475831
    18  H    0.152512
    19  H    0.151033
    20  H    0.156920
    21  H    0.149189
    22  H    0.153535
    23  H    0.159981
    24  H    0.162356
    25  C   -0.298936
    26  C   -0.299725
    27  C   -0.475989
    28  H    0.139349
    29  H    0.148401
    30  H    0.154741
    31  H    0.154914
    32  H    0.154071
    33  H    0.150546
    34  H    0.163791
 Sum of Mulliken charges =  -0.00000

 Dipole moment (field-independent basis, Debye):
    X=             -2.2937    Y=             -4.0415    Z=              2.2849  Tot=              5.1784
 Quadrupole moment (field-independent basis, Debye-Ang):
   XX=           -102.4648   YY=            -93.6220   ZZ=            -94.0045
   XY=            -10.2443   XZ=              8.4381   YZ=             -0.4733

 Normal termination of Gaussian 16 at Thu May  6 09:28:05 2021.
