 Gaussian 16, Revision A.03,
 Gaussian 16:  EM64L-G16RevA.03 25-Dec-2016

 -------------
 #p 6-31g* mp2
 -------------

 ------------------------------------------------------
 Input file generated by CHIRIPA (05-May-2021 14:57:21)
 ------------------------------------------------------
 Symbolic Z-matrix:
 Charge =  0 Multiplicity = 1

                         Standard orientation:
 ---------------------------------------------------------------------
 Center     Atomic      Atomic             Coordinates (Angstroms)
 Number     Number       Type             X           Y           Z
 ---------------------------------------------------------------------
      1          6           0        5.292339    2.046854   -0.055599
      2          6           0        5.812599    0.792876    0.281136
      3          6           0        4.996364   -0.342048    0.265146
      4          6           0        3.658491   -0.185937   -0.094041
      5          6           0        3.110676    1.049855   -0.434640
      6          6           0        3.945412    2.171122   -0.411784
      7          1           0        5.933596    2.923186   -0.040511
      8          1           0        6.858260    0.693381    0.558152
      9          1           0        5.373130   -1.324817    0.521333
     10          1           0        2.064310    1.117558   -0.706582
     11          1           0        3.538646    3.143722   -0.673769
     12          7           0        2.784587   -1.380201   -0.114603
     13          8           0        1.609296   -1.216090   -0.434596
     14          8           0        3.291459   -2.457763    0.189662
     15          6           0       -5.563894    1.789747   -0.054907
     16          6           0       -4.292411    2.092906    0.443035
     17          6           0       -3.308704    1.103153    0.528222
     18          6           0       -3.632238   -0.184972    0.104725
     19          6           0       -4.889837   -0.518208   -0.395963
     20          6           0       -5.858030    0.487453   -0.472082
     21          1           0       -6.322035    2.564790   -0.117560
     22          1           0       -4.061161    3.103418    0.767745
     23          1           0       -2.316236    1.310325    0.909675
     24          1           0       -5.090654   -1.534681   -0.711994
     25          1           0       -6.844629    0.249131   -0.859214
     26          7           0       -2.599044   -1.241201    0.190108
     27          8           0       -2.909157   -2.368320   -0.189457
     28          8           0       -1.498677   -0.921953    0.634980
 ---------------------------------------------------------------------

 SCF Done:  E(RHF) =  -868.334672253     A.U. after   16 cycles
 E2 =    -0.2600549986D+01 EUMP2 =    -0.87093522223926D+03

 The electronic state is 1-A.
 Alpha  occ. eigenvalues --  -20.59904 -20.59835 -20.59761 -20.59646 -15.84937
 Alpha  occ. eigenvalues --  -15.84761 -11.30697 -11.30542 -11.27333 -11.27295
 Alpha  occ. eigenvalues --  -11.27165 -11.27160 -11.27125 -11.26994 -11.26433
 Alpha  occ. eigenvalues --  -11.26396 -11.26289 -11.26264  -1.58937  -1.58779
 Alpha  occ. eigenvalues --   -1.38486  -1.38318  -1.18906  -1.18759  -1.08225
 Alpha  occ. eigenvalues --   -1.08079  -1.04370  -1.04225  -0.94997  -0.94835
 Alpha  occ. eigenvalues --   -0.85749  -0.85603  -0.81841  -0.81655  -0.76819
 Alpha  occ. eigenvalues --   -0.76641  -0.71235  -0.70868  -0.70279  -0.70118
 Alpha  occ. eigenvalues --   -0.70011  -0.69864  -0.64550  -0.64400  -0.64374
 Alpha  occ. eigenvalues --   -0.64238  -0.61717  -0.61569  -0.54856  -0.54720
 Alpha  occ. eigenvalues --   -0.52675  -0.52531  -0.52470  -0.52326  -0.47974
 Alpha  occ. eigenvalues --   -0.47900  -0.47727  -0.47651  -0.43838  -0.43574
 Alpha  occ. eigenvalues --   -0.36905  -0.36763  -0.35993  -0.35849
 Alpha virt. eigenvalues --    0.05710   0.05922   0.11657   0.11801   0.17130
 Alpha virt. eigenvalues --    0.17337   0.21706   0.21894   0.27561   0.27761
 Alpha virt. eigenvalues --    0.28561   0.28898   0.31147   0.31472   0.32740

 Mulliken charges:
               1
     1  C   -0.172116
     2  C   -0.218539
     3  C   -0.171456
     4  C    0.159577
     5  C   -0.171287
     6  C   -0.218697
     7  H    0.222711
     8  H    0.221409
     9  H    0.275356
    10  H    0.275924
    11  H    0.219505
    12  N    0.486928
    13  O   -0.445239
    14  O   -0.464304
    15  C   -0.172083
    16  C   -0.218484
    17  C   -0.171890
    18  C    0.159906
    19  C   -0.171310
    20  C   -0.218382
    21  H    0.223354
    22  H    0.220129
    23  H    0.273179
    24  H    0.276037
    25  H    0.222079
    26  N    0.487292
    27  O   -0.460407
    28  O   -0.449192
 Sum of Mulliken charges =  -0.00000

 Dipole moment (field-independent basis, Debye):
    X=             -0.6247    Y=              7.6930    Z=             -0.2295  Tot=              7.7218
 Quadrupole moment (field-independent basis, Debye-Ang):
   XX=            -53.5735   YY=           -105.1837   ZZ=           -105.4334
   XY=              1.9752   XZ=              3.5076   YZ=              0.5576

 Normal termination of Gaussian 16 at Thu May  6 00:08:51 2021.
