 Gaussian 16, Revision A.03,
 Gaussian 16:  EM64L-G16RevA.03 25-Dec-2016

 -------------
 #p 6-31g* mp2
 -------------

 ------------------------------------------------------
 Input file generated by CHIRIPA (05-May-2021 14:57:21)
 ------------------------------------------------------
 Symbolic Z-matrix:
 Charge =  0 Multiplicity = 1

                         Standard orientation:
 ---------------------------------------------------------------------
 Center     Atomic      Atomic             Coordinates (Angstroms)
 Number     Number       Type             X           Y           Z
 ---------------------------------------------------------------------
      1          6           0       -1.423050   -2.231257    1.290112
      2          6           0       -2.152461   -2.176278    0.097863
      3          6           0       -2.560294   -0.947173   -0.428940
      4          6           0       -2.219902    0.212504    0.265735
      5          6           0       -1.494188    0.190485    1.455754
      6          6           0       -1.096817   -1.049782    1.964064
      7          1           0       -1.110299   -3.190391    1.692162
      8          1           0       -2.407239   -3.092212   -0.427682
      9          1           0       -3.125876   -0.875706   -1.350040
     10          1           0       -1.255180    1.120545    1.957034
     11          1           0       -0.530440   -1.089450    2.890179
     12          7           0       -2.646119    1.519612   -0.282179
     13          8           0       -2.333599    2.526926    0.348919
     14          8           0       -3.284638    1.512057   -1.332357
     15          6           0        2.978746    2.232345    0.485517
     16          6           0        1.925717    2.178692   -0.433600
     17          6           0        1.458177    0.949000   -0.906687
     18          6           0        2.069504   -0.212609   -0.437397
     19          6           0        3.120500   -0.191946    0.478174
     20          6           0        3.571730    1.048940    0.937673
     21          1           0        3.335608    3.191947    0.847745
     22          1           0        1.463300    3.096125   -0.786489
     23          1           0        0.644580    0.878529   -1.618384
     24          1           0        3.561461   -1.123491    0.811634
     25          1           0        4.389695    1.087575    1.651456
     26          7           0        1.583172   -1.520355   -0.931040
     27          8           0        2.138637   -2.529380   -0.502129
     28          8           0        0.655731   -1.511577   -1.737521
 ---------------------------------------------------------------------

 SCF Done:  E(RHF) =  -868.339535229     A.U. after   16 cycles
 E2 =    -0.2603679834D+01 EUMP2 =    -0.87094321506315D+03

 The electronic state is 1-A.
 Alpha  occ. eigenvalues --  -20.61092 -20.61028 -20.60748 -20.60714 -15.86074
 Alpha  occ. eigenvalues --  -15.85767 -11.31275 -11.30766 -11.27857 -11.27750
 Alpha  occ. eigenvalues --  -11.27500 -11.27376 -11.27229 -11.26919 -11.26849
 Alpha  occ. eigenvalues --  -11.26695 -11.26310 -11.26100  -1.60120  -1.59825
 Alpha  occ. eigenvalues --   -1.39685  -1.39381  -1.19428  -1.18916  -1.08849
 Alpha  occ. eigenvalues --   -1.08372  -1.04796  -1.04248  -0.95722  -0.95260
 Alpha  occ. eigenvalues --   -0.86197  -0.85669  -0.82558  -0.82099  -0.77628
 Alpha  occ. eigenvalues --   -0.77202  -0.72338  -0.71990  -0.71466  -0.71152
 Alpha  occ. eigenvalues --   -0.70519  -0.69993  -0.65075  -0.64775  -0.64557
 Alpha  occ. eigenvalues --   -0.64251  -0.62138  -0.61617  -0.55299  -0.54739
 Alpha  occ. eigenvalues --   -0.53239  -0.52877  -0.52513  -0.52341  -0.49095
 Alpha  occ. eigenvalues --   -0.49072  -0.48764  -0.48715  -0.45118  -0.44860
 Alpha  occ. eigenvalues --   -0.37535  -0.36979  -0.36337  -0.35531
 Alpha virt. eigenvalues --    0.04831   0.05314   0.11097   0.11989   0.16286
 Alpha virt. eigenvalues --    0.17024   0.21431   0.21983   0.27317   0.27868
 Alpha virt. eigenvalues --    0.28202   0.28863   0.31017   0.31515   0.32334

 Mulliken charges:
               1
     1  C   -0.171320
     2  C   -0.203500
     3  C   -0.161674
     4  C    0.150901
     5  C   -0.172522
     6  C   -0.224432
     7  H    0.229528
     8  H    0.227871
     9  H    0.275422
    10  H    0.270722
    11  H    0.220553
    12  N    0.485771
    13  O   -0.467126
    14  O   -0.459972
    15  C   -0.172195
    16  C   -0.217782
    17  C   -0.173117
    18  C    0.161175
    19  C   -0.174944
    20  C   -0.219742
    21  H    0.227258
    22  H    0.233358
    23  H    0.277247
    24  H    0.272602
    25  H    0.222428
    26  N    0.489590
    27  O   -0.466598
    28  O   -0.459504
 Sum of Mulliken charges =  -0.00000

 Dipole moment (field-independent basis, Debye):
    X=              3.1329    Y=             -0.1713    Z=              3.4794  Tot=              4.6851
 Quadrupole moment (field-independent basis, Debye-Ang):
   XX=           -102.4844   YY=           -106.9377   ZZ=           -101.7619
   XY=             20.2931   XZ=              3.3598   YZ=             -2.7508

 Normal termination of Gaussian 16 at Thu May  6 16:10:58 2021.
