 Gaussian 16, Revision A.03,
 Gaussian 16:  EM64L-G16RevA.03 25-Dec-2016

 -------------
 #p 6-31g* mp2
 -------------

 ------------------------------------------------------
 Input file generated by CHIRIPA (05-May-2021 14:55:20)
 ------------------------------------------------------
 Symbolic Z-matrix:
 Charge =  0 Multiplicity = 1

                         Standard orientation:
 ---------------------------------------------------------------------
 Center     Atomic      Atomic             Coordinates (Angstroms)
 Number     Number       Type             X           Y           Z
 ---------------------------------------------------------------------
      1          6           0        2.215606    2.157129    0.013615
      2          6           0        3.283469    1.894255   -0.850727
      3          6           0        3.902477    0.640712   -0.853727
      4          6           0        3.425841   -0.331143    0.024684
      5          6           0        2.363989   -0.099779    0.897742
      6          6           0        1.760077    1.161029    0.883557
      7          1           0        1.740609    3.133733    0.009270
      8          1           0        3.639346    2.665935   -1.527414
      9          1           0        4.731022    0.410253   -1.512376
     10          1           0        2.031435   -0.889089    1.560929
     11          1           0        0.930953    1.362355    1.555916
     12          7           0        4.073166   -1.662058    0.030605
     13          8           0        3.634506   -2.501328    0.814085
     14          8           0        5.006943   -1.840759   -0.748346
     15          6           0       -4.821337   -0.189934   -0.410349
     16          6           0       -5.283989   -1.504003    0.219858
     17          6           0       -6.430466   -2.158257   -0.551723
     18          1           0       -5.671964    0.503275   -0.463635
     19          1           0       -4.506718   -0.378848   -1.446072
     20          1           0       -5.596338   -1.312912    1.254526
     21          1           0       -4.432116   -2.194096    0.271824
     22          1           0       -6.126810   -2.377395   -1.580496
     23          1           0       -7.297647   -1.491204   -0.592211
     24          1           0       -6.745483   -3.096204   -0.083878
     25          6           0       -3.675698    0.476123    0.349656
     26          6           0       -3.213046    1.790191   -0.280551
     27          6           0       -2.066569    2.444445    0.491030
     28          1           0       -3.990316    0.665036    1.385379
     29          1           0       -2.825071   -0.217086    0.402941
     30          1           0       -4.064917    2.480284   -0.332517
     31          1           0       -2.900697    1.599101   -1.315219
     32          1           0       -1.199388    1.777393    0.531517
     33          1           0       -2.370224    2.663584    1.519804
     34          1           0       -1.751551    3.382391    0.023185
 ---------------------------------------------------------------------

 SCF Done:  E(RHF) =  -669.535477332     A.U. after   15 cycles
 E2 =    -0.2091245540D+01 EUMP2 =    -0.67162672287173D+03

 The electronic state is 1-A.
 Alpha  occ. eigenvalues --  -20.60764 -20.60759 -15.85818 -11.31184 -11.27759
 Alpha  occ. eigenvalues --  -11.27752 -11.27483 -11.26761 -11.26726 -11.22279
 Alpha  occ. eigenvalues --  -11.22040 -11.21918 -11.21881 -11.21748 -11.21278
 Alpha  occ. eigenvalues --   -1.59840  -1.39393  -1.19358  -1.08915  -1.08747
 Alpha  occ. eigenvalues --   -1.04763  -1.04046  -0.96523  -0.95581  -0.87555
 Alpha  occ. eigenvalues --   -0.86154  -0.82415  -0.80127  -0.78696  -0.77466
 Alpha  occ. eigenvalues --   -0.72036  -0.71164  -0.70452  -0.65554  -0.65006
 Alpha  occ. eigenvalues --   -0.64778  -0.62149  -0.61409  -0.59908  -0.58112
 Alpha  occ. eigenvalues --   -0.55822  -0.55244  -0.53257  -0.53132  -0.53020
 Alpha  occ. eigenvalues --   -0.52708  -0.50443  -0.48800  -0.48791  -0.48422
 Alpha  occ. eigenvalues --   -0.47130  -0.46247  -0.46142  -0.44799  -0.44291
 Alpha  occ. eigenvalues --   -0.37321  -0.36357
 Alpha virt. eigenvalues --    0.05071   0.11146   0.16544   0.20671   0.22530
 Alpha virt. eigenvalues --    0.23957   0.25802   0.26396   0.26985   0.27854
 Alpha virt. eigenvalues --    0.28966   0.29979   0.31136   0.31677   0.32135

 Mulliken charges:
               1
     1  C   -0.170765
     2  C   -0.218829
     3  C   -0.170754
     4  C    0.158404
     5  C   -0.172264
     6  C   -0.220515
     7  H    0.227152
     8  H    0.223423
     9  H    0.275609
    10  H    0.275657
    11  H    0.227315
    12  N    0.488091
    13  O   -0.460480
    14  O   -0.460464
    15  C   -0.298785
    16  C   -0.300295
    17  C   -0.476048
    18  H    0.150209
    19  H    0.150905
    20  H    0.151982
    21  H    0.153390
    22  H    0.156061
    23  H    0.155189
    24  H    0.161699
    25  C   -0.299138
    26  C   -0.298608
    27  C   -0.483336
    28  H    0.149645
    29  H    0.149740
    30  H    0.154276
    31  H    0.154382
    32  H    0.152910
    33  H    0.156300
    34  H    0.157944
 Sum of Mulliken charges =  -0.00000

 Dipole moment (field-independent basis, Debye):
    X=             -2.4017    Y=              4.6616    Z=             -0.0610  Tot=              5.2443
 Quadrupole moment (field-independent basis, Debye-Ang):
   XX=           -108.5653   YY=            -98.1473   ZZ=            -92.5039
   XY=             17.3619   XZ=             -3.4338   YZ=             -1.1788

 Normal termination of Gaussian 16 at Thu May  6 06:08:41 2021.
