 Gaussian 16, Revision A.03,
 Gaussian 16:  EM64L-G16RevA.03 25-Dec-2016

 -------------
 #p 6-31g* mp2
 -------------

 ------------------------------------------------------
 Input file generated by CHIRIPA (05-May-2021 14:53:15)
 ------------------------------------------------------
 Symbolic Z-matrix:
 Charge =  0 Multiplicity = 1

                         Standard orientation:
 ---------------------------------------------------------------------
 Center     Atomic      Atomic             Coordinates (Angstroms)
 Number     Number       Type             X           Y           Z
 ---------------------------------------------------------------------
      1          6           0       -3.375844   -0.517784    0.836553
      2          6           0       -2.086113   -1.329382    0.710507
      3          6           0       -1.635500   -1.933629    2.040780
      4          1           0       -3.226771    0.283576    1.573130
      5          1           0       -4.170251   -1.164282    1.234491
      6          1           0       -1.294732   -0.681907    0.311623
      7          1           0       -2.238214   -2.128784   -0.025996
      8          1           0       -2.405119   -2.601648    2.440827
      9          1           0       -1.456276   -1.146549    2.780365
     10          1           0       -0.711745   -2.509602    1.927681
     11          6           0       -3.839086    0.092662   -0.484995
     12          6           0       -5.128817    0.904259   -0.358949
     13          6           0       -5.579430    1.508507   -1.689222
     14          1           0       -3.044679    0.739160   -0.882933
     15          1           0       -3.988159   -0.708698   -1.221572
     16          1           0       -4.976716    1.703662    0.377554
     17          1           0       -5.920198    0.256785    0.039935
     18          1           0       -5.758654    0.721427   -2.428807
     19          1           0       -4.809811    2.176526   -2.089269
     20          1           0       -6.503185    2.084479   -1.576123
     21          6           0        2.961442    2.428420    0.970457
     22          6           0        3.935417    2.039300    0.044994
     23          6           0        3.866166    0.788126   -0.574938
     24          6           0        2.804497   -0.052653   -0.244424
     25          6           0        1.818719    0.306306    0.673553
     26          6           0        1.908059    1.562208    1.281235
     27          1           0        3.023040    3.402198    1.447277
     28          1           0        4.754611    2.709954   -0.198291
     29          1           0        4.606611    0.461532   -1.295004
     30          1           0        1.013954   -0.383918    0.895725
     31          1           0        1.150236    1.861746    1.999583
     32          7           0        2.720551   -1.379717   -0.894233
     33          8           0        1.775215   -2.102138   -0.585872
     34          8           0        3.601678   -1.672322   -1.699612
 ---------------------------------------------------------------------

 SCF Done:  E(RHF) =  -669.535609606     A.U. after   15 cycles
 E2 =    -0.2091790031D+01 EUMP2 =    -0.67162739963755D+03

 The electronic state is 1-A.
 Alpha  occ. eigenvalues --  -20.60794 -20.60789 -15.85841 -11.31193 -11.27769
 Alpha  occ. eigenvalues --  -11.27729 -11.27515 -11.26788 -11.26776 -11.21658
 Alpha  occ. eigenvalues --  -11.21603 -11.21460 -11.21387 -11.21116 -11.21106
 Alpha  occ. eigenvalues --   -1.59864  -1.39417  -1.19370  -1.08769  -1.08480
 Alpha  occ. eigenvalues --   -1.04774  -1.03577  -0.96033  -0.95602  -0.87043
 Alpha  occ. eigenvalues --   -0.86173  -0.82436  -0.79627  -0.78287  -0.77478
 Alpha  occ. eigenvalues --   -0.72061  -0.71184  -0.70491  -0.65173  -0.65023
 Alpha  occ. eigenvalues --   -0.64756  -0.62187  -0.60940  -0.59361  -0.57611
 Alpha  occ. eigenvalues --   -0.55400  -0.55215  -0.53104  -0.52872  -0.52684
 Alpha  occ. eigenvalues --   -0.52437  -0.49990  -0.48818  -0.48813  -0.47933
 Alpha  occ. eigenvalues --   -0.46675  -0.45817  -0.45761  -0.44817  -0.43816
 Alpha  occ. eigenvalues --   -0.37355  -0.36371
 Alpha virt. eigenvalues --    0.05020   0.11227   0.16537   0.20223   0.22959
 Alpha virt. eigenvalues --    0.23821   0.26366   0.26973   0.27493   0.27776
 Alpha virt. eigenvalues --    0.29482   0.30486   0.31446   0.31709   0.31995

 Mulliken charges:
               1
     1  C   -0.297726
     2  C   -0.300944
     3  C   -0.484045
     4  H    0.144191
     5  H    0.150860
     6  H    0.146409
     7  H    0.162035
     8  H    0.158641
     9  H    0.145647
    10  H    0.172413
    11  C   -0.298277
    12  C   -0.299447
    13  C   -0.475676
    14  H    0.148518
    15  H    0.152911
    16  H    0.149745
    17  H    0.152505
    18  H    0.156657
    19  H    0.154625
    20  H    0.159932
    21  C   -0.170451
    22  C   -0.218831
    23  C   -0.170178
    24  C    0.157032
    25  C   -0.179113
    26  C   -0.221805
    27  H    0.225599
    28  H    0.223491
    29  H    0.275597
    30  H    0.290304
    31  H    0.223500
    32  N    0.487682
    33  O   -0.461740
    34  O   -0.460064
 Sum of Mulliken charges =  -0.00000

 Dipole moment (field-independent basis, Debye):
    X=              0.2791    Y=              4.5383    Z=              2.2116  Tot=              5.0562
 Quadrupole moment (field-independent basis, Debye-Ang):
   XX=            -89.6261   YY=            -94.8672   ZZ=            -96.1201
   XY=             15.3065   XZ=              3.8282   YZ=             -1.2061

 Normal termination of Gaussian 16 at Thu May  6 20:25:31 2021.
