 Gaussian 16, Revision A.03,
 Gaussian 16:  EM64L-G16RevA.03 25-Dec-2016

 -------------
 #p 6-31g* mp2
 -------------

 ------------------------------------------------------
 Input file generated by CHIRIPA (05-May-2021 14:53:12)
 ------------------------------------------------------
 Symbolic Z-matrix:
 Charge =  0 Multiplicity = 1

                         Standard orientation:
 ---------------------------------------------------------------------
 Center     Atomic      Atomic             Coordinates (Angstroms)
 Number     Number       Type             X           Y           Z
 ---------------------------------------------------------------------
      1          6           0       -2.464800    0.999875    0.260374
      2          6           0       -2.565644    2.519952    0.391460
      3          6           0       -1.216934    3.179012    0.682004
      4          1           0       -2.044578    0.585393    1.186961
      5          1           0       -1.755242    0.754285   -0.541877
      6          1           0       -3.275847    2.762611    1.192299
      7          1           0       -2.985853    2.930845   -0.535474
      8          1           0       -0.503275    2.966058   -0.120457
      9          1           0       -0.794916    2.796868    1.617134
     10          1           0       -1.312141    4.265624    0.771828
     11          6           0       -3.804980    0.326629   -0.030119
     12          6           0       -3.704136   -1.193447   -0.161204
     13          6           0       -5.052846   -1.852507   -0.451749
     14          1           0       -4.514538    0.572219    0.772132
     15          1           0       -4.225202    0.741112   -0.956706
     16          1           0       -3.283926   -1.604341    0.765729
     17          1           0       -2.993933   -1.436106   -0.962044
     18          1           0       -5.474863   -1.470363   -1.386879
     19          1           0       -5.766505   -1.639554    0.350712
     20          1           0       -4.957638   -2.939120   -0.541573
     21          6           0        0.853647   -2.437425    0.279913
     22          6           0        0.451459   -1.327404   -0.470165
     23          6           0        1.327121   -0.258248   -0.681512
     24          6           0        2.603379   -0.332619   -0.125700
     25          6           0        3.033542   -1.424783    0.626250
     26          6           0        2.141136   -2.482493    0.824766
     27          1           0        0.166908   -3.263525    0.439110
     28          1           0       -0.547820   -1.289678   -0.894503
     29          1           0        1.041749    0.613252   -1.258114
     30          1           0        4.036007   -1.433668    1.036619
     31          1           0        2.456205   -3.343275    1.407715
     32          7           0        3.539266    0.793191   -0.342652
     33          8           0        4.658302    0.703422    0.157685
     34          8           0        3.136057    1.744050   -1.008929
 ---------------------------------------------------------------------

 SCF Done:  E(RHF) =  -669.534511335     A.U. after   15 cycles
 E2 =    -0.2093412479D+01 EUMP2 =    -0.67162792381466D+03

 The electronic state is 1-A.
 Alpha  occ. eigenvalues --  -20.60710 -20.60705 -15.85759 -11.31106 -11.27661
 Alpha  occ. eigenvalues --  -11.27650 -11.27381 -11.26688 -11.26596 -11.22652
 Alpha  occ. eigenvalues --  -11.22151 -11.22082 -11.21979 -11.21879 -11.21215
 Alpha  occ. eigenvalues --   -1.59783  -1.39337  -1.19266  -1.09162  -1.08661
 Alpha  occ. eigenvalues --   -1.04668  -1.04159  -0.96568  -0.95506  -0.87584
 Alpha  occ. eigenvalues --   -0.86069  -0.82356  -0.80270  -0.79015  -0.77360
 Alpha  occ. eigenvalues --   -0.71979  -0.71103  -0.70378  -0.65842  -0.64915
 Alpha  occ. eigenvalues --   -0.64661  -0.62024  -0.61550  -0.59977  -0.58191
 Alpha  occ. eigenvalues --   -0.55841  -0.55169  -0.53277  -0.53090  -0.52921
 Alpha  occ. eigenvalues --   -0.52736  -0.50520  -0.48749  -0.48735  -0.48547
 Alpha  occ. eigenvalues --   -0.47310  -0.46434  -0.46390  -0.44745  -0.44421
 Alpha  occ. eigenvalues --   -0.37244  -0.36223
 Alpha virt. eigenvalues --    0.05116   0.11323   0.16578   0.19538   0.22754
 Alpha virt. eigenvalues --    0.22878   0.24730   0.26040   0.26639   0.28164
 Alpha virt. eigenvalues --    0.29289   0.30896   0.31214   0.31539   0.31863

 Mulliken charges:
               1
     1  C   -0.299480
     2  C   -0.300869
     3  C   -0.477272
     4  H    0.153231
     5  H    0.139721
     6  H    0.153483
     7  H    0.153027
     8  H    0.158461
     9  H    0.156793
    10  H    0.164053
    11  C   -0.298476
    12  C   -0.304226
    13  C   -0.475093
    14  H    0.153557
    15  H    0.152180
    16  H    0.151511
    17  H    0.143711
    18  H    0.158187
    19  H    0.158841
    20  H    0.159971
    21  C   -0.174913
    22  C   -0.220182
    23  C   -0.172962
    24  C    0.158285
    25  C   -0.171701
    26  C   -0.218455
    27  H    0.225577
    28  H    0.233048
    29  H    0.275384
    30  H    0.275111
    31  H    0.222897
    32  N    0.488302
    33  O   -0.460632
    34  O   -0.461071
 Sum of Mulliken charges =  -0.00000

 Dipole moment (field-independent basis, Debye):
    X=             -3.4738    Y=             -3.8432    Z=              0.8518  Tot=              5.2501
 Quadrupole moment (field-independent basis, Debye-Ang):
   XX=           -110.0250   YY=            -91.5313   ZZ=            -93.1797
   XY=            -11.8182   XZ=              4.0980   YZ=             -1.4303

 Normal termination of Gaussian 16 at Thu May  6 08:50:47 2021.
