 Gaussian 16, Revision A.03,
 Gaussian 16:  EM64L-G16RevA.03 25-Dec-2016

 -------------
 #p 6-31g* mp2
 -------------

 ------------------------------------------------------
 Input file generated by CHIRIPA (05-May-2021 14:57:25)
 ------------------------------------------------------
 Symbolic Z-matrix:
 Charge =  0 Multiplicity = 1

                         Standard orientation:
 ---------------------------------------------------------------------
 Center     Atomic      Atomic             Coordinates (Angstroms)
 Number     Number       Type             X           Y           Z
 ---------------------------------------------------------------------
      1          6           0        2.680205   -2.219763   -0.950739
      2          6           0        3.788849   -1.469871   -0.544426
      3          6           0        3.642495   -0.129664   -0.174327
      4          6           0        2.367235    0.431296   -0.222575
      5          6           0        1.243315   -0.289680   -0.622931
      6          6           0        1.413210   -1.628317   -0.988628
      7          1           0        2.803040   -3.260258   -1.236531
      8          1           0        4.774010   -1.926577   -0.514030
      9          1           0        4.483695    0.473961    0.144166
     10          1           0        0.273850    0.193180   -0.643000
     11          1           0        0.550432   -2.208274   -1.303763
     12          7           0        2.199836    1.849282    0.166902
     13          8           0        1.065700    2.320194    0.115758
     14          8           0        3.205933    2.462939    0.515944
     15          6           0       -1.086183   -1.583822    1.939567
     16          6           0       -1.790639   -2.208283    0.905010
     17          6           0       -2.519121   -1.450195   -0.016491
     18          6           0       -2.521340   -0.063580    0.126979
     19          6           0       -1.829579    0.587913    1.146937
     20          6           0       -1.107862   -0.190173    2.057022
     21          1           0       -0.522908   -2.180491    2.650977
     22          1           0       -1.775595   -3.290433    0.811347
     23          1           0       -3.073406   -1.907756   -0.826939
     24          1           0       -1.863465    1.668515    1.214530
     25          1           0       -0.561707    0.297504    2.859474
     26          7           0       -3.288970    0.749560   -0.842530
     27          8           0       -3.274977    1.969598   -0.694373
     28          8           0       -3.890096    0.151466   -1.732231
 ---------------------------------------------------------------------

 SCF Done:  E(RHF) =  -868.336336349     A.U. after   16 cycles
 E2 =    -0.2605699552D+01 EUMP2 =    -0.87094203590096D+03

 The electronic state is 1-A.
 Alpha  occ. eigenvalues --  -20.61082 -20.61071 -20.60925 -20.60870 -15.86116
 Alpha  occ. eigenvalues --  -15.85965 -11.31521 -11.31340 -11.28248 -11.27958
 Alpha  occ. eigenvalues --  -11.27919 -11.27873 -11.27808 -11.27696 -11.27238
 Alpha  occ. eigenvalues --  -11.26970 -11.26944 -11.26846  -1.60152  -1.59983
 Alpha  occ. eigenvalues --   -1.39709  -1.39521  -1.19795  -1.19517  -1.09089
 Alpha  occ. eigenvalues --   -1.08968  -1.05140  -1.04911  -0.95893  -0.95798
 Alpha  occ. eigenvalues --   -0.86504  -0.86329  -0.82697  -0.82624  -0.77754
 Alpha  occ. eigenvalues --   -0.77656  -0.72355  -0.72157  -0.71485  -0.71358
 Alpha  occ. eigenvalues --   -0.70761  -0.70655  -0.65343  -0.65190  -0.65081
 Alpha  occ. eigenvalues --   -0.64933  -0.62428  -0.62332  -0.55588  -0.55539
 Alpha  occ. eigenvalues --   -0.53847  -0.53156  -0.53138  -0.52643  -0.49104
 Alpha  occ. eigenvalues --   -0.49081  -0.48953  -0.48900  -0.45147  -0.44873
 Alpha  occ. eigenvalues --   -0.38028  -0.37650  -0.36657  -0.36171
 Alpha virt. eigenvalues --    0.04705   0.04879   0.10387   0.11583   0.16020
 Alpha virt. eigenvalues --    0.16443   0.20927   0.21528   0.26553   0.27604
 Alpha virt. eigenvalues --    0.28067   0.28229   0.30500   0.31099   0.32420

 Mulliken charges:
               1
     1  C   -0.172506
     2  C   -0.220259
     3  C   -0.171165
     4  C    0.151163
     5  C   -0.167149
     6  C   -0.221859
     7  H    0.224103
     8  H    0.222920
     9  H    0.275177
    10  H    0.285103
    11  H    0.221556
    12  N    0.488100
    13  O   -0.464097
    14  O   -0.459540
    15  C   -0.167191
    16  C   -0.223339
    17  C   -0.179870
    18  C    0.149123
    19  C   -0.170704
    20  C   -0.218822
    21  H    0.227032
    22  H    0.221563
    23  H    0.275667
    24  H    0.290873
    25  H    0.230769
    26  N    0.487735
    27  O   -0.451002
    28  O   -0.463383
 Sum of Mulliken charges =  -0.00000

 Dipole moment (field-independent basis, Debye):
    X=              3.1411    Y=             -7.5631    Z=              2.2453  Tot=              8.4917
 Quadrupole moment (field-independent basis, Debye-Ang):
   XX=           -111.4516   YY=           -106.1548   ZZ=           -103.0886
   XY=             -3.3511   XZ=            -10.1796   YZ=              2.2951

 Normal termination of Gaussian 16 at Thu May  6 09:53:08 2021.
