 Gaussian 16, Revision A.03,
 Gaussian 16:  EM64L-G16RevA.03 25-Dec-2016

 -------------
 #p 6-31g* mp2
 -------------

 ------------------------------------------------------
 Input file generated by CHIRIPA (05-May-2021 14:53:17)
 ------------------------------------------------------
 Symbolic Z-matrix:
 Charge =  0 Multiplicity = 1

                         Standard orientation:
 ---------------------------------------------------------------------
 Center     Atomic      Atomic             Coordinates (Angstroms)
 Number     Number       Type             X           Y           Z
 ---------------------------------------------------------------------
      1          6           0       -2.553756   -0.452416   -0.072753
      2          6           0       -3.213116   -1.509157   -0.959616
      3          6           0       -2.633847   -2.907527   -0.743272
      4          1           0       -1.473408   -0.438141   -0.271728
      5          1           0       -2.673781   -0.741088    0.980650
      6          1           0       -3.093087   -1.217872   -2.010978
      7          1           0       -4.292047   -1.520785   -0.758645
      8          1           0       -2.767120   -3.223078    0.296568
      9          1           0       -1.561348   -2.918443   -0.962881
     10          1           0       -3.119550   -3.647317   -1.387215
     11          6           0       -3.122156    0.950691   -0.277546
     12          6           0       -2.462796    2.007432    0.609317
     13          6           0       -3.042065    3.405801    0.392972
     14          1           0       -3.002131    1.239362   -1.330949
     15          1           0       -4.202504    0.936416   -0.078571
     16          1           0       -1.383865    2.019060    0.408345
     17          1           0       -2.582825    1.716146    1.660679
     18          1           0       -4.114564    3.416718    0.612582
     19          1           0       -2.908792    3.721352   -0.646867
     20          1           0       -2.556362    4.145592    1.036915
     21          6           0        1.088777   -1.681478    1.834481
     22          6           0        1.737707   -0.513528    2.248369
     23          6           0        2.366251    0.317793    1.316498
     24          6           0        2.326241   -0.050896   -0.027286
     25          6           0        1.687845   -1.208064   -0.470802
     26          6           0        1.065957   -2.024414    0.478606
     27          1           0        0.603093   -2.321453    2.565192
     28          1           0        1.757026   -0.244701    3.300702
     29          1           0        2.875824    1.227707    1.609433
     30          1           0        1.685424   -1.449716   -1.526745
     31          1           0        0.562743   -2.930858    0.154294
     32          7           0        2.988130    0.821262   -1.023099
     33          8           0        2.938665    0.474218   -2.201127
     34          8           0        3.543849    1.835388   -0.606733
 ---------------------------------------------------------------------

 SCF Done:  E(RHF) =  -669.535004951     A.U. after   15 cycles
 E2 =    -0.2093327420D+01 EUMP2 =    -0.67162833237159D+03

 The electronic state is 1-A.
 Alpha  occ. eigenvalues --  -20.60821 -20.60815 -15.85875 -11.31257 -11.27808
 Alpha  occ. eigenvalues --  -11.27804 -11.27523 -11.26820 -11.26788 -11.22043
 Alpha  occ. eigenvalues --  -11.21837 -11.21725 -11.21623 -11.21529 -11.21115
 Alpha  occ. eigenvalues --   -1.59897  -1.39449  -1.19419  -1.08812  -1.08690
 Alpha  occ. eigenvalues --   -1.04826  -1.03850  -0.96314  -0.95639  -0.87341
 Alpha  occ. eigenvalues --   -0.86212  -0.82477  -0.79924  -0.78492  -0.77521
 Alpha  occ. eigenvalues --   -0.72090  -0.71222  -0.70508  -0.65354  -0.65062
 Alpha  occ. eigenvalues --   -0.64826  -0.62207  -0.61232  -0.59683  -0.57914
 Alpha  occ. eigenvalues --   -0.55639  -0.55291  -0.53227  -0.53044  -0.52982
 Alpha  occ. eigenvalues --   -0.52599  -0.50259  -0.48852  -0.48846  -0.48226
 Alpha  occ. eigenvalues --   -0.46942  -0.46024  -0.45921  -0.44852  -0.44069
 Alpha  occ. eigenvalues --   -0.37366  -0.36357
 Alpha virt. eigenvalues --    0.04986   0.11185   0.16398   0.20538   0.22773
 Alpha virt. eigenvalues --    0.24076   0.25661   0.26475   0.27254   0.28169
 Alpha virt. eigenvalues --    0.28861   0.30132   0.31278   0.31648   0.32281

 Mulliken charges:
               1
     1  C   -0.302998
     2  C   -0.299604
     3  C   -0.476919
     4  H    0.157007
     5  H    0.144305
     6  H    0.154971
     7  H    0.153510
     8  H    0.151917
     9  H    0.146752
    10  H    0.163684
    11  C   -0.298728
    12  C   -0.299569
    13  C   -0.475898
    14  H    0.152131
    15  H    0.149009
    16  H    0.154005
    17  H    0.148610
    18  H    0.154390
    19  H    0.157858
    20  H    0.160669
    21  C   -0.170311
    22  C   -0.217760
    23  C   -0.171193
    24  C    0.158912
    25  C   -0.174823
    26  C   -0.216614
    27  H    0.226181
    28  H    0.223760
    29  H    0.275832
    30  H    0.275482
    31  H    0.228019
    32  N    0.488005
    33  O   -0.460433
    34  O   -0.460159
 Sum of Mulliken charges =  -0.00000

 Dipole moment (field-independent basis, Debye):
    X=             -2.3169    Y=             -3.0196    Z=              3.5071  Tot=              5.1756
 Quadrupole moment (field-independent basis, Debye-Ang):
   XX=           -105.6412   YY=            -94.0899   ZZ=            -91.9701
   XY=             -5.7066   XZ=              9.1667   YZ=              2.3177

 Normal termination of Gaussian 16 at Thu May  6 04:23:33 2021.
