 Gaussian 16, Revision A.03,
 Gaussian 16:  EM64L-G16RevA.03 25-Dec-2016

 -------------
 #p 6-31g* mp2
 -------------

 ------------------------------------------------------
 Input file generated by CHIRIPA (05-May-2021 14:51:13)
 ------------------------------------------------------
 Symbolic Z-matrix:
 Charge =  0 Multiplicity = 1

                         Standard orientation:
 ---------------------------------------------------------------------
 Center     Atomic      Atomic             Coordinates (Angstroms)
 Number     Number       Type             X           Y           Z
 ---------------------------------------------------------------------
      1          6           0        3.098982   -0.426653   -0.240285
      2          6           0        4.323001    0.455833   -0.487227
      3          6           0        5.001135    0.164800   -1.826341
      4          1           0        3.402148   -1.481943   -0.277691
      5          1           0        2.378614   -0.279259   -1.056827
      6          1           0        5.040244    0.307853    0.330258
      7          1           0        4.016921    1.509148   -0.449038
      8          1           0        4.305005    0.330949   -2.654832
      9          1           0        5.334142   -0.877171   -1.871109
     10          1           0        5.873666    0.806822   -1.982408
     11          6           0        2.410229   -0.147527    1.094419
     12          6           0        1.186210   -1.030014    1.341361
     13          6           0        0.508076   -0.738980    2.680475
     14          1           0        3.130597   -0.294921    1.910961
     15          1           0        2.107062    0.907762    1.131825
     16          1           0        1.492290   -2.083329    1.303172
     17          1           0        0.468967   -0.882034    0.523876
     18          1           0        0.175069    0.302991    2.725243
     19          1           0        1.204206   -0.905129    3.508966
     20          1           0       -0.364455   -1.381003    2.836542
     21          6           0       -2.610146   -0.361221   -0.804235
     22          6           0       -3.458073   -1.541338   -0.328495
     23          6           0       -3.157600   -2.831189   -1.092560
     24          1           0       -2.783652   -0.202292   -1.877353
     25          1           0       -1.546692   -0.614691   -0.693724
     26          1           0       -4.519622   -1.285188   -0.438577
     27          1           0       -3.282674   -1.697354    0.743657
     28          1           0       -2.106648   -3.113755   -0.973156
     29          1           0       -3.350624   -2.699246   -2.162108
     30          1           0       -3.774826   -3.661863   -0.736370
     31          6           0       -2.899065    0.935401   -0.049899
     32          6           0       -2.051138    2.115519   -0.525639
     33          6           0       -2.351611    3.405369    0.238426
     34          1           0       -3.962520    1.188872   -0.160411
     35          1           0       -2.725559    0.776473    1.023219
     36          1           0       -2.226537    2.271536   -1.597791
     37          1           0       -0.989589    1.859369   -0.415556
     38          1           0       -2.158587    3.273428    1.307974
     39          1           0       -3.402563    3.687937    0.119022
     40          1           0       -1.734384    4.236044   -0.117765
 ---------------------------------------------------------------------

 SCF Done:  E(RHF) =  -470.733407423     A.U. after   11 cycles
 E2 =    -0.1583563502D+01 EUMP2 =    -0.47231697092476D+03

 The electronic state is 1-A.
 Alpha  occ. eigenvalues --  -11.21672 -11.21650 -11.21628 -11.21608 -11.21457
 Alpha  occ. eigenvalues --  -11.21416 -11.21395 -11.21355 -11.21165 -11.21110
 Alpha  occ. eigenvalues --  -11.21087 -11.21068  -1.08498  -1.08439  -1.03585
 Alpha  occ. eigenvalues --   -1.03550  -0.96036  -0.95992  -0.87050  -0.87011
 Alpha  occ. eigenvalues --   -0.79667  -0.79602  -0.78351  -0.78212  -0.65315
 Alpha  occ. eigenvalues --   -0.64912  -0.60976  -0.60952  -0.59400  -0.59364
 Alpha  occ. eigenvalues --   -0.57650  -0.57601  -0.55386  -0.55213  -0.52727
 Alpha  occ. eigenvalues --   -0.52693  -0.52463  -0.52416  -0.50039  -0.49892
 Alpha  occ. eigenvalues --   -0.48008  -0.47924  -0.46829  -0.46612  -0.46052
 Alpha  occ. eigenvalues --   -0.45807  -0.45771  -0.45315  -0.43834  -0.43803
 Alpha virt. eigenvalues --    0.19106   0.22976   0.23784   0.24821   0.25210
 Alpha virt. eigenvalues --    0.26381   0.27129   0.27820   0.28902   0.29566
 Alpha virt. eigenvalues --    0.30079   0.31531   0.31793   0.31840   0.32523

 Mulliken charges:
               1
     1  C   -0.298535
     2  C   -0.299700
     3  C   -0.475789
     4  H    0.149827
     5  H    0.149522
     6  H    0.152007
     7  H    0.152078
     8  H    0.155407
     9  H    0.155217
    10  H    0.160359
    11  C   -0.298051
    12  C   -0.308790
    13  C   -0.476004
    14  H    0.149903
    15  H    0.149734
    16  H    0.152363
    17  H    0.159391
    18  H    0.155143
    19  H    0.155891
    20  H    0.160154
    21  C   -0.306100
    22  C   -0.299473
    23  C   -0.476038
    24  H    0.149736
    25  H    0.156579
    26  H    0.152012
    27  H    0.152096
    28  H    0.155625
    29  H    0.155134
    30  H    0.160242
    31  C   -0.298851
    32  C   -0.300485
    33  C   -0.475736
    34  H    0.149712
    35  H    0.151150
    36  H    0.152128
    37  H    0.151242
    38  H    0.155141
    39  H    0.155554
    40  H    0.160206
 Sum of Mulliken charges =  -0.00000

 Dipole moment (field-independent basis, Debye):
    X=              0.0086    Y=             -0.0059    Z=              0.0033  Tot=              0.0109
 Quadrupole moment (field-independent basis, Debye-Ang):
   XX=            -84.2064   YY=            -85.2606   ZZ=            -85.1715
   XY=             -0.4602   XZ=              1.3840   YZ=             -1.0509

 Normal termination of Gaussian 16 at Wed May  5 21:33:44 2021.
