 Gaussian 16, Revision A.03,
 Gaussian 16:  EM64L-G16RevA.03 25-Dec-2016

 -------------
 #p 6-31g* mp2
 -------------

 ------------------------------------------------------
 Input file generated by CHIRIPA (05-May-2021 14:55:24)
 ------------------------------------------------------
 Symbolic Z-matrix:
 Charge =  0 Multiplicity = 1

                         Standard orientation:
 ---------------------------------------------------------------------
 Center     Atomic      Atomic             Coordinates (Angstroms)
 Number     Number       Type             X           Y           Z
 ---------------------------------------------------------------------
      1          6           0       -2.804944    0.721664    2.170114
      2          6           0       -3.672623    0.659550    1.074762
      3          6           0       -3.280548    0.022573   -0.106376
      4          6           0       -2.007955   -0.544138   -0.157727
      5          6           0       -1.120752   -0.498763    0.916564
      6          6           0       -1.534018    0.143329    2.087664
      7          1           0       -3.117748    1.218469    3.083752
      8          1           0       -4.660226    1.107814    1.135945
      9          1           0       -3.932233   -0.040082   -0.969393
     10          1           0       -0.142436   -0.954872    0.825561
     11          1           0       -0.858067    0.190040    2.936754
     12          7           0       -1.581666   -1.221184   -1.402832
     13          8           0       -0.455296   -1.712642   -1.422734
     14          8           0       -2.381982   -1.247574   -2.335267
     15          6           0        2.031547    0.929971   -0.276954
     16          6           0        2.306258    2.369991   -0.711535
     17          6           0        1.039008    3.109789   -1.141151
     18          1           0        1.552194    0.389105   -1.104377
     19          1           0        1.310375    0.935774    0.552064
     20          1           0        3.027752    2.361548   -1.538573
     21          1           0        2.785188    2.907439    0.116952
     22          1           0        0.317556    3.147851   -0.318558
     23          1           0        0.561499    2.598857   -1.983490
     24          1           0        1.258402    4.137257   -1.447803
     25          6           0        3.288678    0.177363    0.155403
     26          6           0        3.013966   -1.262656    0.589984
     27          6           0        4.281217   -2.002455    1.019600
     28          1           0        4.009850    0.171561   -0.673616
     29          1           0        3.768032    0.718230    0.982826
     30          1           0        2.535038   -1.800105   -0.238505
     31          1           0        2.292473   -1.254213    1.417021
     32          1           0        4.758727   -1.491523    1.861938
     33          1           0        5.002669   -2.040516    0.197007
     34          1           0        4.061823   -3.029923    1.326251
 ---------------------------------------------------------------------

 SCF Done:  E(RHF) =  -669.534822599     A.U. after   15 cycles
 E2 =    -0.2094802759D+01 EUMP2 =    -0.67162962535791D+03

 The electronic state is 1-A.
 Alpha  occ. eigenvalues --  -20.60889 -20.60884 -15.85911 -11.31158 -11.27772
 Alpha  occ. eigenvalues --  -11.27682 -11.27513 -11.26747 -11.26736 -11.21528
 Alpha  occ. eigenvalues --  -11.21455 -11.21258 -11.21105 -11.20984 -11.20951
 Alpha  occ. eigenvalues --   -1.59944  -1.39502  -1.19359  -1.08772  -1.08311
 Alpha  occ. eigenvalues --   -1.04755  -1.03419  -0.95871  -0.95616  -0.86883
 Alpha  occ. eigenvalues --   -0.86158  -0.82465  -0.79497  -0.78317  -0.77375
 Alpha  occ. eigenvalues --   -0.72137  -0.71250  -0.70484  -0.65112  -0.64896
 Alpha  occ. eigenvalues --   -0.64712  -0.62106  -0.60816  -0.59232  -0.57480
 Alpha  occ. eigenvalues --   -0.55283  -0.55140  -0.53118  -0.52893  -0.52525
 Alpha  occ. eigenvalues --   -0.52282  -0.49806  -0.48926  -0.48889  -0.47820
 Alpha  occ. eigenvalues --   -0.46522  -0.45716  -0.45613  -0.44693  -0.43653
 Alpha  occ. eigenvalues --   -0.37341  -0.36280
 Alpha virt. eigenvalues --    0.04974   0.11296   0.16359   0.20556   0.23191
 Alpha virt. eigenvalues --    0.24154   0.25500   0.26850   0.27930   0.27981
 Alpha virt. eigenvalues --    0.30238   0.30574   0.31447   0.31713   0.32074

 Mulliken charges:
               1
     1  C   -0.169632
     2  C   -0.219607
     3  C   -0.169589
     4  C    0.154617
     5  C   -0.172189
     6  C   -0.224402
     7  H    0.225638
     8  H    0.223359
     9  H    0.275430
    10  H    0.291092
    11  H    0.223122
    12  N    0.488749
    13  O   -0.462069
    14  O   -0.459306
    15  C   -0.311803
    16  C   -0.298274
    17  C   -0.476842
    18  H    0.169898
    19  H    0.139345
    20  H    0.153850
    21  H    0.148512
    22  H    0.152375
    23  H    0.158736
    24  H    0.159443
    25  C   -0.296121
    26  C   -0.308346
    27  C   -0.474767
    28  H    0.152527
    29  H    0.145605
    30  H    0.173908
    31  H    0.135576
    32  H    0.152415
    33  H    0.157915
    34  H    0.160837
 Sum of Mulliken charges =  -0.00000

 Dipole moment (field-independent basis, Debye):
    X=             -1.5218    Y=              2.2577    Z=              4.1602  Tot=              4.9719
 Quadrupole moment (field-independent basis, Debye-Ang):
   XX=            -85.5301   YY=            -98.3988   ZZ=            -95.0608
   XY=             -4.9447   XZ=             -7.4861   YZ=             -2.6185

 Normal termination of Gaussian 16 at Thu May  6 09:31:27 2021.
