 Gaussian 16, Revision A.03,
 Gaussian 16:  EM64L-G16RevA.03 25-Dec-2016

 -------------
 #p 6-31g* mp2
 -------------

 ------------------------------------------------------
 Input file generated by CHIRIPA (05-May-2021 14:51:14)
 ------------------------------------------------------
 Symbolic Z-matrix:
 Charge =  0 Multiplicity = 1

                         Standard orientation:
 ---------------------------------------------------------------------
 Center     Atomic      Atomic             Coordinates (Angstroms)
 Number     Number       Type             X           Y           Z
 ---------------------------------------------------------------------
      1          6           0       -4.698268   -0.398484    0.297451
      2          6           0       -5.704591    0.230373   -0.666830
      3          6           0       -7.100141    0.368648   -0.057640
      4          1           0       -5.064617   -1.387046    0.606449
      5          1           0       -4.642649    0.213085    1.208650
      6          1           0       -5.757271   -0.381443   -1.576513
      7          1           0       -5.335711    1.217471   -0.973718
      8          1           0       -7.068762    0.996657    0.838587
      9          1           0       -7.492717   -0.611342    0.232367
     10          1           0       -7.803575    0.820412   -0.764004
     11          6           0       -3.298554   -0.543361   -0.297142
     12          6           0       -2.292231   -1.172218    0.667138
     13          6           0       -0.896681   -1.310494    0.057948
     14          1           0       -3.354174   -1.154931   -1.208342
     15          1           0       -2.932206    0.445200   -0.606141
     16          1           0       -2.661111   -2.159317    0.974027
     17          1           0       -2.239551   -0.560403    1.576821
     18          1           0       -0.504105   -0.330504   -0.232059
     19          1           0       -0.928060   -1.938502   -0.838279
     20          1           0       -0.193248   -1.762258    0.764312
     21          6           0        4.601885    0.212289   -0.390488
     22          6           0        5.385589   -0.870505    0.352041
     23          6           0        6.589934   -1.377874   -0.441637
     24          1           0        4.264369   -0.186033   -1.357116
     25          1           0        5.273789    1.052014   -0.615877
     26          1           0        4.712071   -1.707345    0.577181
     27          1           0        5.721114   -0.469621    1.317096
     28          1           0        7.284226   -0.558464   -0.654062
     29          1           0        6.269450   -1.803220   -1.398179
     30          1           0        7.135803   -2.151271    0.107676
     31          6           0        3.394938    0.729557    0.390180
     32          6           0        2.611233    1.812350   -0.352348
     33          6           0        1.406888    2.319720    0.441329
     34          1           0        2.723033   -0.110169    0.615569
     35          1           0        3.732453    1.127878    1.356807
     36          1           0        2.275709    1.411467   -1.317404
     37          1           0        3.284752    2.649190   -0.577489
     38          1           0        1.727373    2.745065    1.397872
     39          1           0        0.712596    1.500309    0.653753
     40          1           0        0.861019    3.093117   -0.107985
 ---------------------------------------------------------------------

 SCF Done:  E(RHF) =  -470.733307129     A.U. after   11 cycles
 E2 =    -0.1582553696D+01 EUMP2 =    -0.47231586082517D+03

 The electronic state is 1-A.
 Alpha  occ. eigenvalues --  -11.21642 -11.21608 -11.21580 -11.21573 -11.21421
 Alpha  occ. eigenvalues --  -11.21366 -11.21361 -11.21306 -11.21130 -11.21075
 Alpha  occ. eigenvalues --  -11.21048 -11.21047  -1.08452  -1.08397  -1.03567
 Alpha  occ. eigenvalues --   -1.03498  -0.96025  -0.95944  -0.87045  -0.86960
 Alpha  occ. eigenvalues --   -0.79641  -0.79550  -0.78264  -0.78205  -0.65125
 Alpha  occ. eigenvalues --   -0.64995  -0.61117  -0.60773  -0.59381  -0.59319
 Alpha  occ. eigenvalues --   -0.57636  -0.57555  -0.55499  -0.55064  -0.52709
 Alpha  occ. eigenvalues --   -0.52652  -0.52474  -0.52340  -0.50121  -0.49736
 Alpha  occ. eigenvalues --   -0.47977  -0.47840  -0.46746  -0.46490  -0.45825
 Alpha  occ. eigenvalues --   -0.45750  -0.45722  -0.45616  -0.43808  -0.43758
 Alpha virt. eigenvalues --    0.20949   0.23021   0.23656   0.24910   0.26295
 Alpha virt. eigenvalues --    0.26583   0.27221   0.27467   0.27921   0.29102
 Alpha virt. eigenvalues --    0.30530   0.31356   0.31697   0.31771   0.32001

 Mulliken charges:
               1
     1  C   -0.298372
     2  C   -0.299700
     3  C   -0.475730
     4  H    0.149636
     5  H    0.149769
     6  H    0.151887
     7  H    0.152088
     8  H    0.155272
     9  H    0.155163
    10  H    0.160285
    11  C   -0.298516
    12  C   -0.299954
    13  C   -0.482227
    14  H    0.149485
    15  H    0.150136
    16  H    0.152268
    17  H    0.152457
    18  H    0.160861
    19  H    0.155544
    20  H    0.160218
    21  C   -0.298288
    22  C   -0.299647
    23  C   -0.475691
    24  H    0.149885
    25  H    0.149308
    26  H    0.152021
    27  H    0.151789
    28  H    0.155098
    29  H    0.155217
    30  H    0.160140
    31  C   -0.299674
    32  C   -0.299376
    33  C   -0.481740
    34  H    0.151543
    35  H    0.149309
    36  H    0.152101
    37  H    0.151899
    38  H    0.155277
    39  H    0.160683
    40  H    0.159579
 Sum of Mulliken charges =  -0.00000

 Dipole moment (field-independent basis, Debye):
    X=             -0.0240    Y=             -0.0114    Z=             -0.0005  Tot=              0.0266
 Quadrupole moment (field-independent basis, Debye-Ang):
   XX=            -86.3464   YY=            -83.6971   ZZ=            -84.7791
   XY=              1.2352   XZ=              1.0585   YZ=              0.3913

 Normal termination of Gaussian 16 at Wed May  5 23:15:00 2021.
