 Gaussian 16, Revision A.03,
 Gaussian 16:  EM64L-G16RevA.03 25-Dec-2016

 -------------
 #p 6-31g* mp2
 -------------

 ------------------------------------------------------
 Input file generated by CHIRIPA (05-May-2021 14:53:16)
 ------------------------------------------------------
 Symbolic Z-matrix:
 Charge =  0 Multiplicity = 1

                         Standard orientation:
 ---------------------------------------------------------------------
 Center     Atomic      Atomic             Coordinates (Angstroms)
 Number     Number       Type             X           Y           Z
 ---------------------------------------------------------------------
      1          6           0       -3.802918    0.464526   -0.514027
      2          6           0       -4.433659   -0.798262    0.073781
      3          6           0       -5.643896   -1.281763   -0.725812
      4          1           0       -4.559456    1.260141   -0.553915
      5          1           0       -3.502339    0.266686   -1.552250
      6          1           0       -4.731701   -0.598518    1.111031
      7          1           0       -3.675480   -1.590906    0.112451
      8          1           0       -5.358055   -1.508397   -1.758059
      9          1           0       -6.420278   -0.510370   -0.753805
     10          1           0       -6.079221   -2.185518   -0.288114
     11          6           0       -2.591900    0.960160    0.274333
     12          6           0       -1.961159    2.222948   -0.313475
     13          6           0       -0.750922    2.706449    0.486117
     14          1           0       -2.892479    1.158000    1.312556
     15          1           0       -1.835362    0.164545    0.314220
     16          1           0       -2.719338    3.015593   -0.352146
     17          1           0       -1.663116    2.023204   -1.350726
     18          1           0        0.025460    1.935056    0.514110
     19          1           0       -1.036762    2.933083    1.518364
     20          1           0       -0.315597    3.610204    0.048420
     21          6           0        0.744635   -2.155683    0.950598
     22          6           0        1.521452   -2.498615   -0.160921
     23          6           0        2.495829   -1.620336   -0.644412
     24          6           0        2.667482   -0.401917    0.010782
     25          6           0        1.909330   -0.031542    1.120431
     26          6           0        0.940708   -0.925410    1.586605
     27          1           0       -0.010049   -2.844007    1.319459
     28          1           0        1.371371   -3.453382   -0.656844
     29          1           0        3.111165   -1.860496   -1.502959
     30          1           0        2.082035    0.927364    1.593812
     31          1           0        0.338885   -0.656430    2.450030
     32          7           0        3.695965    0.536130   -0.491902
     33          8           0        3.827693    1.603525    0.103036
     34          8           0        4.350889    0.186212   -1.471325
 ---------------------------------------------------------------------

 SCF Done:  E(RHF) =  -669.534985081     A.U. after   15 cycles
 E2 =    -0.2093335534D+01 EUMP2 =    -0.67162832061464D+03

 The electronic state is 1-A.
 Alpha  occ. eigenvalues --  -20.60822 -20.60815 -15.85876 -11.31287 -11.27849
 Alpha  occ. eigenvalues --  -11.27829 -11.27604 -11.26876 -11.26865 -11.22093
 Alpha  occ. eigenvalues --  -11.21800 -11.21750 -11.21682 -11.21485 -11.21174
 Alpha  occ. eigenvalues --   -1.59896  -1.39448  -1.19471  -1.08852  -1.08770
 Alpha  occ. eigenvalues --   -1.04882  -1.03844  -0.96295  -0.95675  -0.87317
 Alpha  occ. eigenvalues --   -0.86258  -0.82505  -0.79930  -0.78610  -0.77538
 Alpha  occ. eigenvalues --   -0.72093  -0.71222  -0.70567  -0.65409  -0.65115
 Alpha  occ. eigenvalues --   -0.64863  -0.62236  -0.61240  -0.59657  -0.57911
 Alpha  occ. eigenvalues --   -0.55614  -0.55349  -0.53262  -0.53017  -0.52936
 Alpha  occ. eigenvalues --   -0.52653  -0.50236  -0.48856  -0.48845  -0.48237
 Alpha  occ. eigenvalues --   -0.46964  -0.46139  -0.46055  -0.44838  -0.44094
 Alpha  occ. eigenvalues --   -0.37432  -0.36383
 Alpha virt. eigenvalues --    0.04951   0.11049   0.16407   0.21013   0.22644
 Alpha virt. eigenvalues --    0.24023   0.26179   0.26520   0.26935   0.28306
 Alpha virt. eigenvalues --    0.28641   0.30508   0.31229   0.31570   0.31770

 Mulliken charges:
               1
     1  C   -0.298021
     2  C   -0.298668
     3  C   -0.475754
     4  H    0.151317
     5  H    0.150929
     6  H    0.151213
     7  H    0.146061
     8  H    0.155955
     9  H    0.157075
    10  H    0.159659
    11  C   -0.303258
    12  C   -0.298460
    13  C   -0.483066
    14  H    0.145864
    15  H    0.150296
    16  H    0.152706
    17  H    0.154337
    18  H    0.157388
    19  H    0.150539
    20  H    0.166912
    21  C   -0.172309
    22  C   -0.218237
    23  C   -0.171202
    24  C    0.158777
    25  C   -0.174660
    26  C   -0.215463
    27  H    0.226708
    28  H    0.223962
    29  H    0.276022
    30  H    0.278622
    31  H    0.226405
    32  N    0.488387
    33  O   -0.459778
    34  O   -0.460258
 Sum of Mulliken charges =  -0.00000

 Dipole moment (field-independent basis, Debye):
    X=             -3.5505    Y=             -3.3025    Z=              1.7248  Tot=              5.1466
 Quadrupole moment (field-independent basis, Debye-Ang):
   XX=           -114.9302   YY=            -90.1322   ZZ=            -92.3454
   XY=             -9.1105   XZ=              3.1532   YZ=              1.9136

 Normal termination of Gaussian 16 at Wed May  5 20:20:30 2021.
