 Gaussian 16, Revision A.03,
 Gaussian 16:  EM64L-G16RevA.03 25-Dec-2016

 -------------
 #p 6-31g* mp2
 -------------

 ------------------------------------------------------
 Input file generated by CHIRIPA (05-May-2021 14:55:19)
 ------------------------------------------------------
 Symbolic Z-matrix:
 Charge =  0 Multiplicity = 1

                         Standard orientation:
 ---------------------------------------------------------------------
 Center     Atomic      Atomic             Coordinates (Angstroms)
 Number     Number       Type             X           Y           Z
 ---------------------------------------------------------------------
      1          6           0        3.492954   -2.372491   -0.051733
      2          6           0        3.831518   -1.441178   -1.038927
      3          6           0        3.488179   -0.093958   -0.891733
      4          6           0        2.803337    0.288941    0.260512
      5          6           0        2.451963   -0.615111    1.261769
      6          6           0        2.805469   -1.957217    1.093445
      7          1           0        3.763617   -3.417057   -0.174284
      8          1           0        4.365417   -1.760832   -1.929331
      9          1           0        3.737883    0.648067   -1.640375
     10          1           0        1.919634   -0.266401    2.138378
     11          1           0        2.541236   -2.678282    1.861749
     12          7           0        2.434478    1.712476    0.427524
     13          8           0        1.831227    2.024429    1.451931
     14          8           0        2.755603    2.489333   -0.469141
     15          6           0       -4.201290   -0.351667    0.168030
     16          6           0       -5.619591    0.081403   -0.204603
     17          6           0       -6.679188   -0.491042    0.737394
     18          1           0       -4.145985   -1.448862    0.160938
     19          1           0       -3.987285   -0.034567    1.198099
     20          1           0       -5.830360   -0.235205   -1.234142
     21          1           0       -5.671477    1.177699   -0.196810
     22          1           0       -6.496699   -0.164587    1.766338
     23          1           0       -6.656485   -1.585520    0.723112
     24          1           0       -7.685664   -0.168842    0.452697
     25          6           0       -3.130882    0.212594   -0.764474
     26          6           0       -1.712580   -0.220477   -0.391842
     27          6           0       -0.652984    0.351969   -1.333838
     28          1           0       -3.344886   -0.104507   -1.794544
     29          1           0       -3.186187    1.309788   -0.757383
     30          1           0       -1.660695   -1.316773   -0.399634
     31          1           0       -1.501812    0.096131    0.637697
     32          1           0       -0.675687    1.446446   -1.319556
     33          1           0       -0.835473    0.025513   -2.362782
     34          1           0        0.353493    0.029768   -1.049142
 ---------------------------------------------------------------------

 SCF Done:  E(RHF) =  -669.534917473     A.U. after   15 cycles
 E2 =    -0.2093041305D+01 EUMP2 =    -0.67162795877774D+03

 The electronic state is 1-A.
 Alpha  occ. eigenvalues --  -20.60795 -20.60790 -15.85836 -11.31195 -11.27781
 Alpha  occ. eigenvalues --  -11.27775 -11.27538 -11.26820 -11.26810 -11.21431
 Alpha  occ. eigenvalues --  -11.21356 -11.21204 -11.21113 -11.20942 -11.20701
 Alpha  occ. eigenvalues --   -1.59862  -1.39415  -1.19411  -1.08798  -1.08213
 Alpha  occ. eigenvalues --   -1.04802  -1.03313  -0.95767  -0.95623  -0.86789
 Alpha  occ. eigenvalues --   -0.86199  -0.82453  -0.79388  -0.78031  -0.77497
 Alpha  occ. eigenvalues --   -0.72062  -0.71205  -0.70499  -0.65050  -0.64837
 Alpha  occ. eigenvalues --   -0.64802  -0.62144  -0.60696  -0.59195  -0.57429
 Alpha  occ. eigenvalues --   -0.55301  -0.55030  -0.53419  -0.52890  -0.52312
 Alpha  occ. eigenvalues --   -0.52039  -0.49688  -0.48823  -0.48815  -0.47696
 Alpha  occ. eigenvalues --   -0.46406  -0.45571  -0.45492  -0.44811  -0.43590
 Alpha  occ. eigenvalues --   -0.37315  -0.36409
 Alpha virt. eigenvalues --    0.05026   0.11206   0.16508   0.21370   0.23066
 Alpha virt. eigenvalues --    0.24430   0.26784   0.27264   0.27705   0.28066
 Alpha virt. eigenvalues --    0.28334   0.30844   0.31655   0.31896   0.31998

 Mulliken charges:
               1
     1  C   -0.171377
     2  C   -0.216729
     3  C   -0.172187
     4  C    0.154834
     5  C   -0.171845
     6  C   -0.216891
     7  H    0.225816
     8  H    0.223820
     9  H    0.276097
    10  H    0.275735
    11  H    0.223840
    12  N    0.493294
    13  O   -0.461198
    14  O   -0.460154
    15  C   -0.298209
    16  C   -0.299634
    17  C   -0.475609
    18  H    0.147099
    19  H    0.150353
    20  H    0.151221
    21  H    0.153445
    22  H    0.155444
    23  H    0.153856
    24  H    0.160052
    25  C   -0.298560
    26  C   -0.299049
    27  C   -0.484302
    28  H    0.148088
    29  H    0.153428
    30  H    0.146877
    31  H    0.154636
    32  H    0.165637
    33  H    0.152504
    34  H    0.159665
 Sum of Mulliken charges =  -0.00000

 Dipole moment (field-independent basis, Debye):
    X=              1.3724    Y=             -4.9412    Z=             -0.5746  Tot=              5.1604
 Quadrupole moment (field-independent basis, Debye-Ang):
   XX=            -88.1156   YY=            -97.4031   ZZ=            -91.4115
   XY=            -13.8559   XZ=             -3.0200   YZ=             -1.9448

 Normal termination of Gaussian 16 at Thu May  6 06:06:52 2021.
