 Gaussian 16, Revision A.03,
 Gaussian 16:  EM64L-G16RevA.03 25-Dec-2016

 -------------
 #p 6-31g* mp2
 -------------

 ------------------------------------------------------
 Input file generated by CHIRIPA (05-May-2021 14:57:26)
 ------------------------------------------------------
 Symbolic Z-matrix:
 Charge =  0 Multiplicity = 1

                         Standard orientation:
 ---------------------------------------------------------------------
 Center     Atomic      Atomic             Coordinates (Angstroms)
 Number     Number       Type             X           Y           Z
 ---------------------------------------------------------------------
      1          6           0       -1.900330   -1.929209    0.171617
      2          6           0       -2.197991   -1.343266   -1.063125
      3          6           0       -3.164672   -0.337669   -1.157207
      4          6           0       -3.817313    0.059499    0.008815
      5          6           0       -3.542985   -0.504985    1.253561
      6          6           0       -2.572592   -1.508940    1.323988
      7          1           0       -1.147947   -2.709743    0.235514
      8          1           0       -1.677490   -1.667659   -1.959726
      9          1           0       -3.414734    0.132983   -2.100272
     10          1           0       -4.078561   -0.160605    2.129905
     11          1           0       -2.343482   -1.962206    2.284250
     12          7           0       -4.842660    1.123210   -0.078264
     13          8           0       -5.403526    1.455379    0.963720
     14          8           0       -5.066045    1.604636   -1.186851
     15          6           0        4.659132    2.416855    0.199083
     16          6           0        5.478922    1.284538    0.247249
     17          6           0        4.929752    0.004670    0.125193
     18          6           0        3.550602   -0.106643   -0.044654
     19          6           0        2.707490    1.002298   -0.096639
     20          6           0        3.278466    2.272376    0.027595
     21          1           0        5.094210    3.407286    0.294745
     22          1           0        6.551495    1.393724    0.380335
     23          1           0        5.541169   -0.888888    0.158955
     24          1           0        1.641763    0.861650   -0.230292
     25          1           0        2.639369    3.149972   -0.010182
     26          7           0        2.957677   -1.456400   -0.175021
     27          8           0        1.739719   -1.527615   -0.323823
     28          8           0        3.722129   -2.417567   -0.125934
 ---------------------------------------------------------------------

 SCF Done:  E(RHF) =  -868.340351254     A.U. after   16 cycles
 E2 =    -0.2598378704D+01 EUMP2 =    -0.87093872995795D+03

 The electronic state is 1-A.
 Alpha  occ. eigenvalues --  -20.61627 -20.61580 -20.60360 -20.60355 -15.86642
 Alpha  occ. eigenvalues --  -15.85409 -11.31727 -11.30552 -11.28262 -11.28249
 Alpha  occ. eigenvalues --  -11.27946 -11.27215 -11.27192 -11.27135 -11.27108
 Alpha  occ. eigenvalues --  -11.26592 -11.26009 -11.25942  -1.60675  -1.59444
 Alpha  occ. eigenvalues --   -1.40236  -1.39004  -1.19873  -1.18693  -1.09319
 Alpha  occ. eigenvalues --   -1.08073  -1.05230  -1.04073  -0.96203  -0.94951
 Alpha  occ. eigenvalues --   -0.86641  -0.85445  -0.83046  -0.81808  -0.78119
 Alpha  occ. eigenvalues --   -0.76931  -0.72894  -0.71979  -0.71626  -0.70972
 Alpha  occ. eigenvalues --   -0.70772  -0.69652  -0.65527  -0.65225  -0.64313
 Alpha  occ. eigenvalues --   -0.64033  -0.62577  -0.61433  -0.55738  -0.54388
 Alpha  occ. eigenvalues --   -0.53579  -0.53313  -0.52407  -0.52134  -0.49640
 Alpha  occ. eigenvalues --   -0.49601  -0.48398  -0.48362  -0.45703  -0.44460
 Alpha  occ. eigenvalues --   -0.37837  -0.36823  -0.36564  -0.35713
 Alpha virt. eigenvalues --    0.04382   0.05617   0.10835   0.11964   0.15932
 Alpha virt. eigenvalues --    0.17202   0.21017   0.22313   0.26956   0.27823
 Alpha virt. eigenvalues --    0.28087   0.29306   0.30621   0.31985   0.32108

 Mulliken charges:
               1
     1  C   -0.165010
     2  C   -0.220670
     3  C   -0.174796
     4  C    0.155940
     5  C   -0.172936
     6  C   -0.222359
     7  H    0.242598
     8  H    0.227448
     9  H    0.272209
    10  H    0.272410
    11  H    0.222251
    12  N    0.488154
    13  O   -0.462967
    14  O   -0.463204
    15  C   -0.169885
    16  C   -0.218637
    17  C   -0.170712
    18  C    0.157248
    19  C   -0.171580
    20  C   -0.218719
    21  H    0.227990
    22  H    0.225065
    23  H    0.275858
    24  H    0.276480
    25  H    0.226771
    26  N    0.490796
    27  O   -0.471779
    28  O   -0.457965
 Sum of Mulliken charges =  -0.00000

 Dipole moment (field-independent basis, Debye):
    X=              6.1562    Y=              0.9095    Z=              0.7610  Tot=              6.2693
 Quadrupole moment (field-independent basis, Debye-Ang):
   XX=           -114.8057   YY=           -106.0332   ZZ=           -100.9932
   XY=             30.0973   XZ=              0.1324   YZ=             -0.8217

 Normal termination of Gaussian 16 at Fri May  7 06:35:56 2021.
