 Gaussian 16, Revision A.03,
 Gaussian 16:  EM64L-G16RevA.03 25-Dec-2016

 -------------
 #p 6-31g* mp2
 -------------

 ------------------------------------------------------
 Input file generated by CHIRIPA (05-May-2021 14:51:11)
 ------------------------------------------------------
 Symbolic Z-matrix:
 Charge =  0 Multiplicity = 1

                         Standard orientation:
 ---------------------------------------------------------------------
 Center     Atomic      Atomic             Coordinates (Angstroms)
 Number     Number       Type             X           Y           Z
 ---------------------------------------------------------------------
      1          6           0        3.875503   -0.140580   -0.486689
      2          6           0        3.733482   -1.564073    0.053202
      3          6           0        4.778491   -2.521127   -0.521078
      4          1           0        3.793593   -0.160801   -1.582055
      5          1           0        4.882626    0.233057   -0.255404
      6          1           0        2.726457   -1.934405   -0.177818
      7          1           0        3.815549   -1.540436    1.147424
      8          1           0        5.789513   -2.178162   -0.278566
      9          1           0        4.694233   -2.574370   -1.611338
     10          1           0        4.658595   -3.533055   -0.121720
     11          6           0        2.837850    0.827907    0.078147
     12          6           0        2.979871    2.251400   -0.461744
     13          6           0        1.934862    3.208454    0.112536
     14          1           0        1.830727    0.454270   -0.153138
     15          1           0        2.919760    0.848128    1.173513
     16          1           0        2.897805    2.227762   -1.555966
     17          1           0        3.986896    2.621732   -0.230724
     18          1           0        2.019120    3.261697    1.202796
     19          1           0        0.923841    2.865489   -0.129977
     20          1           0        2.054758    4.220382   -0.286823
     21          6           0       -2.801102   -0.155400    0.693481
     22          6           0       -1.494120   -0.909456    0.446131
     23          6           0       -0.392253   -0.521999    1.432820
     24          1           0       -2.611775    0.924807    0.628268
     25          1           0       -3.141002   -0.351760    1.719788
     26          1           0       -1.157512   -0.712837   -0.579857
     27          1           0       -1.686619   -1.987998    0.511750
     28          1           0       -0.703477   -0.734394    2.460745
     29          1           0       -0.171362    0.548013    1.362935
     30          1           0        0.533145   -1.072890    1.237840
     31          6           0       -3.912250   -0.531927   -0.284939
     32          6           0       -5.219233    0.222129   -0.037588
     33          6           0       -6.321101   -0.165329   -1.024278
     34          1           0       -3.572352   -0.335566   -1.311245
     35          1           0       -4.101578   -1.612134   -0.219726
     36          1           0       -5.026734    1.300672   -0.103208
     37          1           0       -5.555841    0.025510    0.988400
     38          1           0       -6.541990   -1.235340   -0.954392
     39          1           0       -6.009877    0.047067   -2.052203
     40          1           0       -7.246499    0.385564   -0.829299
 ---------------------------------------------------------------------

 SCF Done:  E(RHF) =  -470.732113521     A.U. after   11 cycles
 E2 =    -0.1583901064D+01 EUMP2 =    -0.47231601458513D+03

 The electronic state is 1-A.
 Alpha  occ. eigenvalues --  -11.21622 -11.21604 -11.21601 -11.21574 -11.21405
 Alpha  occ. eigenvalues --  -11.21355 -11.21346 -11.21232 -11.21099 -11.21081
 Alpha  occ. eigenvalues --  -11.21072 -11.20938  -1.08450  -1.08387  -1.03545
 Alpha  occ. eigenvalues --   -1.03505  -0.96020  -0.95920  -0.87037  -0.86943
 Alpha  occ. eigenvalues --   -0.79652  -0.79554  -0.78280  -0.78165  -0.65146
 Alpha  occ. eigenvalues --   -0.64972  -0.61017  -0.60847  -0.59396  -0.59307
 Alpha  occ. eigenvalues --   -0.57683  -0.57478  -0.55349  -0.55179  -0.52805
 Alpha  occ. eigenvalues --   -0.52600  -0.52388  -0.52341  -0.49995  -0.49869
 Alpha  occ. eigenvalues --   -0.48006  -0.47799  -0.46714  -0.46579  -0.45825
 Alpha  occ. eigenvalues --   -0.45743  -0.45687  -0.45509  -0.43794  -0.43663
 Alpha virt. eigenvalues --    0.21007   0.23032   0.23454   0.24048   0.26334
 Alpha virt. eigenvalues --    0.26433   0.26639   0.27268   0.27974   0.29675
 Alpha virt. eigenvalues --    0.30475   0.31198   0.31694   0.31852   0.32396

 Mulliken charges:
               1
     1  C   -0.297830
     2  C   -0.302295
     3  C   -0.475559
     4  H    0.149065
     5  H    0.149170
     6  H    0.153077
     7  H    0.152318
     8  H    0.155407
     9  H    0.155227
    10  H    0.160259
    11  C   -0.303897
    12  C   -0.299274
    13  C   -0.476888
    14  H    0.159480
    15  H    0.149573
    16  H    0.151327
    17  H    0.151596
    18  H    0.155622
    19  H    0.154714
    20  H    0.160414
    21  C   -0.298169
    22  C   -0.301806
    23  C   -0.483582
    24  H    0.149562
    25  H    0.149893
    26  H    0.150837
    27  H    0.152089
    28  H    0.154903
    29  H    0.158749
    30  H    0.166134
    31  C   -0.298204
    32  C   -0.299664
    33  C   -0.475699
    34  H    0.149237
    35  H    0.149662
    36  H    0.151990
    37  H    0.151991
    38  H    0.155166
    39  H    0.155118
    40  H    0.160285
 Sum of Mulliken charges =  -0.00000

 Dipole moment (field-independent basis, Debye):
    X=              0.0143    Y=             -0.0028    Z=              0.0150  Tot=              0.0209
 Quadrupole moment (field-independent basis, Debye-Ang):
   XX=            -85.6569   YY=            -84.9219   ZZ=            -84.3121
   XY=              0.7454   XZ=             -0.0142   YZ=             -0.6600

 Normal termination of Gaussian 16 at Wed May  5 21:28:06 2021.
