 Gaussian 16, Revision A.03,
 Gaussian 16:  EM64L-G16RevA.03 25-Dec-2016

 -------------
 #p 6-31g* mp2
 -------------

 ------------------------------------------------------
 Input file generated by CHIRIPA (05-May-2021 14:51:07)
 ------------------------------------------------------
 Symbolic Z-matrix:
 Charge =  0 Multiplicity = 1

                         Standard orientation:
 ---------------------------------------------------------------------
 Center     Atomic      Atomic             Coordinates (Angstroms)
 Number     Number       Type             X           Y           Z
 ---------------------------------------------------------------------
      1          6           0        4.203998    0.423294   -0.212741
      2          6           0        5.625501    0.252942    0.324189
      3          6           0        6.536535    1.428260   -0.031390
      4          1           0        4.242892    0.541773   -1.304251
      5          1           0        3.777299    1.353369    0.187612
      6          1           0        6.048891   -0.677240   -0.075959
      7          1           0        5.583203    0.134662    1.414527
      8          1           0        6.140122    2.361574    0.381385
      9          1           0        6.608456    1.545059   -1.117570
     10          1           0        7.547790    1.285744    0.362199
     11          6           0        3.281304   -0.743626    0.134621
     12          6           0        1.859800   -0.573274   -0.402309
     13          6           0        0.948766   -1.748593   -0.046730
     14          1           0        3.708003   -1.673702   -0.265733
     15          1           0        3.242410   -0.862106    1.226131
     16          1           0        1.902098   -0.454995   -1.492647
     17          1           0        1.436410    0.356907   -0.002161
     18          1           0        0.876846   -1.865391    1.039450
     19          1           0        1.345180   -2.681906   -0.459505
     20          1           0       -0.062489   -1.606076   -0.440319
     21          6           0       -3.671876    0.847180    0.365304
     22          6           0       -4.289208    1.976782   -0.459854
     23          6           0       -4.139624    3.345056    0.205912
     24          1           0       -4.142670    0.827088    1.357721
     25          1           0       -2.606736    1.061885    0.528929
     26          1           0       -5.352550    1.759325   -0.623050
     27          1           0       -3.817024    1.994065   -1.450490
     28          1           0       -3.082420    3.587784    0.354251
     29          1           0       -4.626671    3.351710    1.186393
     30          1           0       -4.587847    4.137954   -0.400939
     31          6           0       -3.813426   -0.526848   -0.287183
     32          6           0       -3.196093   -1.656449    0.537974
     33          6           0       -3.345678   -3.024724   -0.127792
     34          1           0       -4.878566   -0.741552   -0.450809
     35          1           0       -3.342631   -0.506756   -1.279601
     36          1           0       -3.668277   -1.673732    1.528610
     37          1           0       -2.132751   -1.438992    0.701171
     38          1           0       -2.858631   -3.031378   -1.108273
     39          1           0       -4.402881   -3.267452   -0.276131
     40          1           0       -2.897455   -3.817622    0.479059
 ---------------------------------------------------------------------

 SCF Done:  E(RHF) =  -470.733173257     A.U. after   11 cycles
 E2 =    -0.1582625905D+01 EUMP2 =    -0.47231579916206D+03

 The electronic state is 1-A.
 Alpha  occ. eigenvalues --  -11.21661 -11.21625 -11.21590 -11.21507 -11.21441
 Alpha  occ. eigenvalues --  -11.21384 -11.21381 -11.21324 -11.21117 -11.21089
 Alpha  occ. eigenvalues --  -11.21065 -11.21023  -1.08470  -1.08403  -1.03581
 Alpha  occ. eigenvalues --   -1.03489  -0.96029  -0.95943  -0.87044  -0.86963
 Alpha  occ. eigenvalues --   -0.79662  -0.79534  -0.78281  -0.78214  -0.65110
 Alpha  occ. eigenvalues --   -0.65045  -0.61016  -0.60921  -0.59408  -0.59266
 Alpha  occ. eigenvalues --   -0.57637  -0.57547  -0.55310  -0.55242  -0.52732
 Alpha  occ. eigenvalues --   -0.52632  -0.52450  -0.52364  -0.49992  -0.49864
 Alpha  occ. eigenvalues --   -0.47987  -0.47842  -0.46709  -0.46541  -0.45823
 Alpha  occ. eigenvalues --   -0.45760  -0.45743  -0.45675  -0.43798  -0.43732
 Alpha virt. eigenvalues --    0.20987   0.23035   0.23823   0.24801   0.26378
 Alpha virt. eigenvalues --    0.26678   0.27337   0.27390   0.28010   0.28888
 Alpha virt. eigenvalues --    0.30806   0.31289   0.31588   0.31789   0.32119

 Mulliken charges:
               1
     1  C   -0.298308
     2  C   -0.299685
     3  C   -0.475730
     4  H    0.149673
     5  H    0.149535
     6  H    0.151993
     7  H    0.152024
     8  H    0.155222
     9  H    0.155199
    10  H    0.160350
    11  C   -0.298535
    12  C   -0.299636
    13  C   -0.480891
    14  H    0.149741
    15  H    0.149855
    16  H    0.151949
    17  H    0.151544
    18  H    0.155586
    19  H    0.155799
    20  H    0.165559
    21  C   -0.298134
    22  C   -0.299620
    23  C   -0.475675
    24  H    0.149665
    25  H    0.149197
    26  H    0.151945
    27  H    0.151939
    28  H    0.155058
    29  H    0.155136
    30  H    0.160234
    31  C   -0.298493
    32  C   -0.306555
    33  C   -0.475587
    34  H    0.149581
    35  H    0.148988
    36  H    0.151768
    37  H    0.158820
    38  H    0.154824
    39  H    0.154938
    40  H    0.160730
 Sum of Mulliken charges =  -0.00000

 Dipole moment (field-independent basis, Debye):
    X=              0.0337    Y=             -0.0124    Z=              0.0051  Tot=              0.0363
 Quadrupole moment (field-independent basis, Debye-Ang):
   XX=            -84.5886   YY=            -86.2625   ZZ=            -83.9513
   XY=             -0.6688   XZ=             -0.5607   YZ=              0.1093

 Normal termination of Gaussian 16 at Wed May  5 21:16:36 2021.
