 Gaussian 16, Revision A.03,
 Gaussian 16:  EM64L-G16RevA.03 25-Dec-2016

 -------------
 #p 6-31g* mp2
 -------------

 ------------------------------------------------------
 Input file generated by CHIRIPA (05-May-2021 14:51:13)
 ------------------------------------------------------
 Symbolic Z-matrix:
 Charge =  0 Multiplicity = 1

                         Standard orientation:
 ---------------------------------------------------------------------
 Center     Atomic      Atomic             Coordinates (Angstroms)
 Number     Number       Type             X           Y           Z
 ---------------------------------------------------------------------
      1          6           0       -1.929415   -0.591923    0.431576
      2          6           0       -2.150851   -1.635795    1.526693
      3          6           0       -0.927985   -2.525781    1.751011
      4          1           0       -1.668912   -1.102573   -0.505611
      5          1           0       -1.064946    0.031646    0.698505
      6          1           0       -3.015493   -2.256324    1.258450
      7          1           0       -2.411045   -1.122610    2.461335
      8          1           0       -0.061554   -1.923539    2.042907
      9          1           0       -0.669437   -3.063694    0.833186
     10          1           0       -1.108176   -3.264721    2.538005
     11          6           0       -3.143026    0.305420    0.195673
     12          6           0       -2.921590    1.349293   -0.899444
     13          6           0       -4.144456    2.239278   -1.123762
     14          1           0       -4.007495   -0.318148   -0.071256
     15          1           0       -3.403529    0.816071    1.132860
     16          1           0       -2.661397    0.836107   -1.834086
     17          1           0       -2.056948    1.969822   -0.631200
     18          1           0       -4.403004    2.777192   -0.205937
     19          1           0       -5.010887    1.637036   -1.415657
     20          1           0       -3.964265    2.978219   -1.910756
     21          6           0        2.360514    0.858522   -0.111270
     22          6           0        3.468027    1.553960    0.681046
     23          6           0        3.101665    2.984162    1.078656
     24          1           0        2.139149    1.445976   -1.012846
     25          1           0        1.440352    0.848845    0.489233
     26          1           0        4.386201    1.561094    0.079780
     27          1           0        3.686915    0.964680    1.580743
     28          1           0        2.200020    2.992411    1.699599
     29          1           0        2.903280    3.592213    0.190107
     30          1           0        3.907417    3.462549    1.644138
     31          6           0        2.711927   -0.572019   -0.515979
     32          6           0        1.604414   -1.267458   -1.308295
     33          6           0        1.970776   -2.697660   -1.705906
     34          1           0        3.632089   -0.562343   -1.116482
     35          1           0        2.933293   -1.159474    0.385597
     36          1           0        1.385526   -0.678178   -2.207992
     37          1           0        0.686240   -1.274591   -0.707029
     38          1           0        2.169161   -3.305711   -0.817357
     39          1           0        2.872422   -2.705909   -2.326848
     40          1           0        1.165024   -3.176047   -2.271388
 ---------------------------------------------------------------------

 SCF Done:  E(RHF) =  -470.732233605     A.U. after   11 cycles
 E2 =    -0.1584995532D+01 EUMP2 =    -0.47231722913717D+03

 The electronic state is 1-A.
 Alpha  occ. eigenvalues --  -11.21675 -11.21606 -11.21593 -11.21443 -11.21384
 Alpha  occ. eigenvalues --  -11.21382 -11.21360 -11.21280 -11.21162 -11.21082
 Alpha  occ. eigenvalues --  -11.21077 -11.20991  -1.08507  -1.08353  -1.03598
 Alpha  occ. eigenvalues --   -1.03455  -0.96034  -0.95934  -0.87053  -0.86947
 Alpha  occ. eigenvalues --   -0.79716  -0.79502  -0.78510  -0.77978  -0.65134
 Alpha  occ. eigenvalues --   -0.65001  -0.61020  -0.60862  -0.59435  -0.59254
 Alpha  occ. eigenvalues --   -0.57650  -0.57543  -0.55325  -0.55226  -0.52729
 Alpha  occ. eigenvalues --   -0.52631  -0.52469  -0.52355  -0.50033  -0.49828
 Alpha  occ. eigenvalues --   -0.48167  -0.47773  -0.46764  -0.46629  -0.46314
 Alpha  occ. eigenvalues --   -0.45709  -0.45659  -0.44903  -0.43830  -0.43720
 Alpha virt. eigenvalues --    0.20451   0.22841   0.23304   0.24433   0.25471
 Alpha virt. eigenvalues --    0.26222   0.26778   0.28050   0.28465   0.30219
 Alpha virt. eigenvalues --    0.30925   0.31457   0.31671   0.31712   0.32204

 Mulliken charges:
               1
     1  C   -0.308088
     2  C   -0.298752
     3  C   -0.479414
     4  H    0.153073
     5  H    0.154791
     6  H    0.152276
     7  H    0.151960
     8  H    0.154854
     9  H    0.157983
    10  H    0.161027
    11  C   -0.296951
    12  C   -0.299933
    13  C   -0.475758
    14  H    0.149570
    15  H    0.149476
    16  H    0.152186
    17  H    0.152579
    18  H    0.155156
    19  H    0.155119
    20  H    0.160381
    21  C   -0.302820
    22  C   -0.299384
    23  C   -0.475585
    24  H    0.149860
    25  H    0.152211
    26  H    0.152220
    27  H    0.151709
    28  H    0.154399
    29  H    0.155255
    30  H    0.160333
    31  C   -0.297647
    32  C   -0.311768
    33  C   -0.475866
    34  H    0.149007
    35  H    0.149170
    36  H    0.150164
    37  H    0.168414
    38  H    0.155535
    39  H    0.154757
    40  H    0.158500
 Sum of Mulliken charges =  -0.00000

 Dipole moment (field-independent basis, Debye):
    X=             -0.0628    Y=             -0.0038    Z=              0.0175  Tot=              0.0653
 Quadrupole moment (field-independent basis, Debye-Ang):
   XX=            -85.2480   YY=            -85.8820   ZZ=            -83.8126
   XY=              1.1630   XZ=             -0.2349   YZ=             -0.1046

 Normal termination of Gaussian 16 at Thu May  6 05:33:17 2021.
