 Gaussian 16, Revision A.03,
 Gaussian 16:  EM64L-G16RevA.03 25-Dec-2016

 -------------
 #p 6-31g* mp2
 -------------

 ------------------------------------------------------
 Input file generated by CHIRIPA (05-May-2021 14:51:08)
 ------------------------------------------------------
 Symbolic Z-matrix:
 Charge =  0 Multiplicity = 1

                         Standard orientation:
 ---------------------------------------------------------------------
 Center     Atomic      Atomic             Coordinates (Angstroms)
 Number     Number       Type             X           Y           Z
 ---------------------------------------------------------------------
      1          6           0        2.613446   -0.634122    0.580767
      2          6           0        2.111725    0.020646    1.868222
      3          6           0        0.763624   -0.535445    2.327764
      4          1           0        1.866340   -0.489885   -0.211681
      5          1           0        2.697302   -1.718439    0.737678
      6          1           0        2.030161    1.103571    1.709358
      7          1           0        2.860199   -0.125001    2.657646
      8          1           0        0.834188   -1.612027    2.513752
      9          1           0       -0.000566   -0.376476    1.560077
     10          1           0        0.423746   -0.053443    3.249727
     11          6           0        3.960068   -0.088719    0.108672
     12          6           0        4.461788   -0.743488   -1.178783
     13          6           0        5.809890   -0.187397   -1.638325
     14          1           0        3.876212    0.995597   -0.048239
     15          1           0        4.707174   -0.232956    0.901120
     16          1           0        3.713315   -0.597841   -1.968207
     17          1           0        4.543353   -1.826413   -1.019919
     18          1           0        6.574080   -0.346366   -0.870638
     19          1           0        5.739326    0.889186   -1.824313
     20          1           0        6.149768   -0.669399   -2.560288
     21          6           0       -3.728266   -0.122161   -0.737976
     22          6           0       -4.173964   -1.336284    0.077649
     23          6           0       -5.056579   -2.294470   -0.722766
     24          1           0       -4.615996    0.412660   -1.102459
     25          1           0       -3.183731   -0.466890   -1.627941
     26          1           0       -4.716298   -0.989324    0.966529
     27          1           0       -3.285071   -1.868169    0.440393
     28          1           0       -4.521012   -2.668689   -1.601246
     29          1           0       -5.960372   -1.784852   -1.072120
     30          1           0       -5.363737   -3.155205   -0.120562
     31          6           0       -2.845248    0.845002    0.048537
     32          6           0       -2.399549    2.059126   -0.767087
     33          6           0       -1.516934    3.017312    0.033326
     34          1           0       -3.389783    1.189731    0.938502
     35          1           0       -1.957518    0.310182    0.413019
     36          1           0       -3.288443    2.591010   -1.129832
     37          1           0       -1.857215    1.712166   -1.655968
     38          1           0       -0.613142    2.507693    0.382681
     39          1           0       -2.052501    3.391531    0.911808
     40          1           0       -1.209777    3.878048   -0.568877
 ---------------------------------------------------------------------

 SCF Done:  E(RHF) =  -470.733321967     A.U. after   11 cycles
 E2 =    -0.1583001995D+01 EUMP2 =    -0.47231632396181D+03

 The electronic state is 1-A.
 Alpha  occ. eigenvalues --  -11.21638 -11.21628 -11.21624 -11.21587 -11.21440
 Alpha  occ. eigenvalues --  -11.21407 -11.21378 -11.21348 -11.21104 -11.21087
 Alpha  occ. eigenvalues --  -11.21086 -11.21060  -1.08466  -1.08436  -1.03565
 Alpha  occ. eigenvalues --   -1.03531  -0.96011  -0.95984  -0.87036  -0.86992
 Alpha  occ. eigenvalues --   -0.79637  -0.79585  -0.78299  -0.78229  -0.65178
 Alpha  occ. eigenvalues --   -0.65004  -0.61056  -0.60842  -0.59372  -0.59354
 Alpha  occ. eigenvalues --   -0.57654  -0.57564  -0.55360  -0.55230  -0.52700
 Alpha  occ. eigenvalues --   -0.52680  -0.52489  -0.52365  -0.50062  -0.49849
 Alpha  occ. eigenvalues --   -0.48009  -0.47869  -0.46744  -0.46592  -0.45924
 Alpha  occ. eigenvalues --   -0.45759  -0.45750  -0.45482  -0.43812  -0.43792
 Alpha virt. eigenvalues --    0.20112   0.23090   0.23695   0.24944   0.25494
 Alpha virt. eigenvalues --    0.26503   0.27105   0.27577   0.28236   0.29095
 Alpha virt. eigenvalues --    0.30605   0.31550   0.31670   0.31857   0.31966

 Mulliken charges:
               1
     1  C   -0.298249
     2  C   -0.300460
     3  C   -0.483450
     4  H    0.148739
     5  H    0.149686
     6  H    0.152637
     7  H    0.152365
     8  H    0.155261
     9  H    0.161643
    10  H    0.161147
    11  C   -0.298365
    12  C   -0.299671
    13  C   -0.475741
    14  H    0.149773
    15  H    0.149832
    16  H    0.151851
    17  H    0.151933
    18  H    0.155243
    19  H    0.155301
    20  H    0.160301
    21  C   -0.297571
    22  C   -0.299885
    23  C   -0.475718
    24  H    0.149698
    25  H    0.149203
    26  H    0.152060
    27  H    0.152400
    28  H    0.155134
    29  H    0.155103
    30  H    0.160331
    31  C   -0.307478
    32  C   -0.299160
    33  C   -0.477280
    34  H    0.149900
    35  H    0.158073
    36  H    0.152238
    37  H    0.151331
    38  H    0.155992
    39  H    0.155634
    40  H    0.160218
 Sum of Mulliken charges =  -0.00000

 Dipole moment (field-independent basis, Debye):
    X=             -0.0001    Y=             -0.0021    Z=              0.0163  Tot=              0.0164
 Quadrupole moment (field-independent basis, Debye-Ang):
   XX=            -85.1438   YY=            -84.7250   ZZ=            -84.7878
   XY=             -1.5955   XZ=              0.1492   YZ=             -0.4524

 Normal termination of Gaussian 16 at Thu May  6 10:00:56 2021.
