 Gaussian 16, Revision A.03,
 Gaussian 16:  EM64L-G16RevA.03 25-Dec-2016

 -------------
 #p 6-31g* mp2
 -------------

 ------------------------------------------------------
 Input file generated by CHIRIPA (05-May-2021 14:51:10)
 ------------------------------------------------------
 Symbolic Z-matrix:
 Charge =  0 Multiplicity = 1

                         Standard orientation:
 ---------------------------------------------------------------------
 Center     Atomic      Atomic             Coordinates (Angstroms)
 Number     Number       Type             X           Y           Z
 ---------------------------------------------------------------------
      1          6           0       -2.369694   -0.591127    0.482798
      2          6           0       -1.324256   -1.517468   -0.139244
      3          6           0       -0.018106   -1.552386    0.654826
      4          1           0       -1.955035    0.423721    0.554118
      5          1           0       -2.573661   -0.918462    1.511702
      6          1           0       -1.123341   -1.189317   -1.167138
      7          1           0       -1.741521   -2.530189   -0.209268
      8          1           0       -0.197876   -1.900954    1.676972
      9          1           0        0.423816   -0.552464    0.713659
     10          1           0        0.715054   -2.220661    0.192501
     11          6           0       -3.680952   -0.545566   -0.299669
     12          6           0       -4.726389    0.380776    0.322374
     13          6           0       -6.032539    0.415693   -0.471696
     14          1           0       -3.476985   -0.218230   -1.328573
     15          1           0       -4.095610   -1.560414   -0.370989
     16          1           0       -4.309125    1.393496    0.392397
     17          1           0       -4.927305    0.052624    1.350267
     18          1           0       -6.474462   -0.584229   -0.530530
     19          1           0       -5.852769    0.764262   -1.493843
     20          1           0       -6.765700    1.083969   -0.009372
     21          6           0        2.872235    1.209241    0.294764
     22          6           0        2.121552    2.252155   -0.533964
     23          6           0        1.822526    3.528706    0.252673
     24          1           0        2.279077    0.962075    1.185841
     25          1           0        3.812909    1.646706    0.656914
     26          1           0        1.183225    1.812405   -0.895595
     27          1           0        2.716478    2.496726   -1.423269
     28          1           0        2.750862    3.993160    0.600633
     29          1           0        1.208897    3.304950    1.131305
     30          1           0        1.285468    4.260536   -0.358763
     31          6           0        3.178411   -0.072548   -0.477893
     32          6           0        3.929094   -1.115463    0.350834
     33          6           0        4.228119   -2.392014   -0.435802
     34          1           0        2.237737   -0.510014   -0.840043
     35          1           0        3.771568    0.174617   -1.368970
     36          1           0        3.334168   -1.360034    1.240140
     37          1           0        4.867421   -0.675713    0.712466
     38          1           0        4.841749   -2.168258   -1.314433
     39          1           0        3.299784   -2.856467   -0.783762
     40          1           0        4.765178   -3.123843    0.175634
 ---------------------------------------------------------------------

 SCF Done:  E(RHF) =  -470.731754224     A.U. after   11 cycles
 E2 =    -0.1584799102D+01 EUMP2 =    -0.47231655332532D+03

 The electronic state is 1-A.
 Alpha  occ. eigenvalues --  -11.21684 -11.21633 -11.21632 -11.21514 -11.21464
 Alpha  occ. eigenvalues --  -11.21400 -11.21355 -11.21215 -11.21120 -11.21099
 Alpha  occ. eigenvalues --  -11.21095 -11.21045  -1.08512  -1.08379  -1.03602
 Alpha  occ. eigenvalues --   -1.03501  -0.96088  -0.95923  -0.87093  -0.86956
 Alpha  occ. eigenvalues --   -0.79677  -0.79562  -0.78300  -0.78205  -0.65383
 Alpha  occ. eigenvalues --   -0.64886  -0.60993  -0.60962  -0.59408  -0.59277
 Alpha  occ. eigenvalues --   -0.57657  -0.57564  -0.55662  -0.54941  -0.52735
 Alpha  occ. eigenvalues --   -0.52659  -0.52463  -0.52372  -0.50004  -0.49859
 Alpha  occ. eigenvalues --   -0.48009  -0.47854  -0.46770  -0.46538  -0.45904
 Alpha  occ. eigenvalues --   -0.45783  -0.45640  -0.45582  -0.43814  -0.43746
 Alpha virt. eigenvalues --    0.20159   0.22657   0.23321   0.24463   0.26164
 Alpha virt. eigenvalues --    0.26566   0.27090   0.27541   0.27928   0.29852
 Alpha virt. eigenvalues --    0.30379   0.31091   0.31685   0.31852   0.32510

 Mulliken charges:
               1
     1  C   -0.298838
     2  C   -0.301183
     3  C   -0.485382
     4  H    0.149603
     5  H    0.149867
     6  H    0.152088
     7  H    0.152557
     8  H    0.155656
     9  H    0.163267
    10  H    0.163068
    11  C   -0.298296
    12  C   -0.299742
    13  C   -0.475749
    14  H    0.149663
    15  H    0.149849
    16  H    0.152106
    17  H    0.151981
    18  H    0.155225
    19  H    0.155274
    20  H    0.160399
    21  C   -0.302261
    22  C   -0.300788
    23  C   -0.475586
    24  H    0.150561
    25  H    0.150712
    26  H    0.151041
    27  H    0.152593
    28  H    0.155601
    29  H    0.154899
    30  H    0.160125
    31  C   -0.302621
    32  C   -0.301091
    33  C   -0.477294
    34  H    0.156548
    35  H    0.149064
    36  H    0.154654
    37  H    0.151767
    38  H    0.155193
    39  H    0.155237
    40  H    0.160232
 Sum of Mulliken charges =  -0.00000

 Dipole moment (field-independent basis, Debye):
    X=             -0.0239    Y=             -0.0097    Z=              0.0123  Tot=              0.0286
 Quadrupole moment (field-independent basis, Debye-Ang):
   XX=            -85.0134   YY=            -85.0371   ZZ=            -84.8057
   XY=              1.0697   XZ=             -0.7720   YZ=             -0.9409

 Normal termination of Gaussian 16 at Wed May  5 18:12:11 2021.
