 Gaussian 16, Revision A.03,
 Gaussian 16:  EM64L-G16RevA.03 25-Dec-2016

 -------------
 #p 6-31g* mp2
 -------------

 ------------------------------------------------------
 Input file generated by CHIRIPA (05-May-2021 14:51:13)
 ------------------------------------------------------
 Symbolic Z-matrix:
 Charge =  0 Multiplicity = 1

                         Standard orientation:
 ---------------------------------------------------------------------
 Center     Atomic      Atomic             Coordinates (Angstroms)
 Number     Number       Type             X           Y           Z
 ---------------------------------------------------------------------
      1          6           0        5.508599   -0.083448   -0.170794
      2          6           0        5.946951   -1.498726    0.207125
      3          6           0        7.393668   -1.795103   -0.189064
      4          1           0        5.629087    0.053890   -1.254106
      5          1           0        6.177993    0.641589    0.312557
      6          1           0        5.276085   -2.220842   -0.275683
      7          1           0        5.825225   -1.632775    1.289635
      8          1           0        8.078648   -1.097488    0.303618
      9          1           0        7.526387   -1.688896   -1.270594
     10          1           0        7.686153   -2.812069    0.090386
     11          6           0        4.064641    0.227865    0.218816
     12          6           0        3.626290    1.643143   -0.159102
     13          6           0        2.179573    1.939520    0.237086
     14          1           0        3.395248   -0.497172   -0.264535
     15          1           0        3.944154    0.090527    1.302128
     16          1           0        3.748015    1.777192   -1.241613
     17          1           0        4.297156    2.365259    0.323705
     18          1           0        2.046853    1.833313    1.318616
     19          1           0        1.494593    1.241904   -0.255596
     20          1           0        1.887087    2.956486   -0.042364
     21          6           0       -4.309553    0.518787   -0.105028
     22          6           0       -2.838395    0.138197    0.064758
     23          6           0       -1.896333    1.331141   -0.100160
     24          1           0       -4.453539    0.967046   -1.097638
     25          1           0       -4.567332    1.294941    0.628820
     26          1           0       -2.583831   -0.637998   -0.668274
     27          1           0       -2.697931   -0.309384    1.057006
     28          1           0       -2.121934    2.105409    0.640255
     29          1           0       -2.007186    1.774927   -1.094829
     30          1           0       -0.849740    1.036532    0.025170
     31          6           0       -5.263687   -0.663204    0.057005
     32          6           0       -6.734846   -0.282613   -0.112779
     33          6           0       -7.676908   -1.475558    0.052138
     34          1           0       -5.005908   -1.439356   -0.676842
     35          1           0       -5.119700   -1.111464    1.049616
     36          1           0       -6.875310    0.164967   -1.105029
     37          1           0       -6.989409    0.493581    0.620252
     38          1           0       -7.566054   -1.919344    1.046806
     39          1           0       -7.451306   -2.249825   -0.688277
     40          1           0       -8.723501   -1.180948   -0.073192
 ---------------------------------------------------------------------

 SCF Done:  E(RHF) =  -470.733156367     A.U. after   11 cycles
 E2 =    -0.1582170415D+01 EUMP2 =    -0.47231532678185D+03

 The electronic state is 1-A.
 Alpha  occ. eigenvalues --  -11.21601 -11.21591 -11.21580 -11.21546 -11.21404
 Alpha  occ. eigenvalues --  -11.21370 -11.21345 -11.21310 -11.21071 -11.21055
 Alpha  occ. eigenvalues --  -11.21050 -11.20951  -1.08429  -1.08391  -1.03533
 Alpha  occ. eigenvalues --   -1.03479  -0.96005  -0.95906  -0.87052  -0.86894
 Alpha  occ. eigenvalues --   -0.79635  -0.79505  -0.78243  -0.78204  -0.65060
 Alpha  occ. eigenvalues --   -0.65022  -0.60942  -0.60880  -0.59341  -0.59327
 Alpha  occ. eigenvalues --   -0.57677  -0.57468  -0.55281  -0.55210  -0.52864
 Alpha  occ. eigenvalues --   -0.52608  -0.52404  -0.52184  -0.49917  -0.49859
 Alpha  occ. eigenvalues --   -0.47986  -0.47778  -0.46623  -0.46580  -0.45785
 Alpha  occ. eigenvalues --   -0.45746  -0.45708  -0.45674  -0.43810  -0.43667
 Alpha virt. eigenvalues --    0.22548   0.22965   0.23612   0.24688   0.26370
 Alpha virt. eigenvalues --    0.26688   0.26856   0.27534   0.27623   0.28818
 Alpha virt. eigenvalues --    0.30303   0.31455   0.31674   0.31797   0.32069

 Mulliken charges:
               1
     1  C   -0.298261
     2  C   -0.299652
     3  C   -0.475706
     4  H    0.149661
     5  H    0.149564
     6  H    0.151913
     7  H    0.151934
     8  H    0.155190
     9  H    0.155179
    10  H    0.160249
    11  C   -0.298374
    12  C   -0.299835
    13  C   -0.478392
    14  H    0.149348
    15  H    0.149619
    16  H    0.151955
    17  H    0.151873
    18  H    0.155131
    19  H    0.157712
    20  H    0.161272
    21  C   -0.298422
    22  C   -0.299139
    23  C   -0.482254
    24  H    0.149480
    25  H    0.149475
    26  H    0.151222
    27  H    0.151738
    28  H    0.155033
    29  H    0.154358
    30  H    0.168408
    31  C   -0.298163
    32  C   -0.299594
    33  C   -0.475673
    34  H    0.149363
    35  H    0.149572
    36  H    0.151877
    37  H    0.151902
    38  H    0.155144
    39  H    0.155116
    40  H    0.160174
 Sum of Mulliken charges =  -0.00000

 Dipole moment (field-independent basis, Debye):
    X=              0.0276    Y=              0.0140    Z=              0.0048  Tot=              0.0314
 Quadrupole moment (field-independent basis, Debye-Ang):
   XX=            -86.5658   YY=            -85.3482   ZZ=            -82.9760
   XY=             -0.1292   XZ=              0.5160   YZ=              0.5100

 Normal termination of Gaussian 16 at Thu May  6 00:46:42 2021.
