 Gaussian 16, Revision A.03,
 Gaussian 16:  EM64L-G16RevA.03 25-Dec-2016

 -------------
 #p 6-31g* mp2
 -------------

 ------------------------------------------------------
 Input file generated by CHIRIPA (05-May-2021 14:55:22)
 ------------------------------------------------------
 Symbolic Z-matrix:
 Charge =  0 Multiplicity = 1

                         Standard orientation:
 ---------------------------------------------------------------------
 Center     Atomic      Atomic             Coordinates (Angstroms)
 Number     Number       Type             X           Y           Z
 ---------------------------------------------------------------------
      1          6           0       -1.426475    1.526640    0.950063
      2          6           0       -2.669248    1.473117    1.589728
      3          6           0       -3.659325    0.591915    1.145005
      4          6           0       -3.371366   -0.225126    0.052844
      5          6           0       -2.142943   -0.195089   -0.605460
      6          6           0       -1.167745    0.693835   -0.143561
      7          1           0       -0.663138    2.214179    1.302206
      8          1           0       -2.872972    2.118710    2.439288
      9          1           0       -4.630070    0.529928    1.621690
     10          1           0       -1.969273   -0.851029   -1.449853
     11          1           0       -0.203496    0.733248   -0.642275
     12          7           0       -4.411641   -1.162102   -0.427056
     13          8           0       -4.133117   -1.871463   -1.391353
     14          8           0       -5.485834   -1.169402    0.170182
     15          6           0        4.384136   -0.332699    0.397911
     16          6           0        5.384021   -1.386175   -0.080004
     17          6           0        5.951908   -2.224817    1.065411
     18          1           0        4.875338    0.325469    1.127623
     19          1           0        3.562718   -0.831797    0.930424
     20          1           0        6.202605   -0.885361   -0.612659
     21          1           0        4.890436   -2.041795   -0.808807
     22          1           0        5.149263   -2.750427    1.592760
     23          1           0        6.468887   -1.587423    1.790022
     24          1           0        6.664435   -2.971545    0.701318
     25          6           0        3.807650    0.513693   -0.735672
     26          6           0        2.807765    1.567169   -0.257756
     27          6           0        2.239878    2.405811   -1.403172
     28          1           0        4.629068    1.012790   -1.268185
     29          1           0        3.316448   -0.144476   -1.465384
     30          1           0        3.301349    2.222789    0.471047
     31          1           0        1.989181    1.066355    0.274900
     32          1           0        1.722899    1.768417   -2.127783
     33          1           0        3.042523    2.931421   -1.930520
     34          1           0        1.527350    3.152538   -1.039078
 ---------------------------------------------------------------------

 SCF Done:  E(RHF) =  -669.535256922     A.U. after   15 cycles
 E2 =    -0.2091886942D+01 EUMP2 =    -0.67162714386391D+03

 The electronic state is 1-A.
 Alpha  occ. eigenvalues --  -20.60736 -20.60731 -15.85788 -11.31146 -11.27713
 Alpha  occ. eigenvalues --  -11.27701 -11.27442 -11.26728 -11.26662 -11.22806
 Alpha  occ. eigenvalues --  -11.22312 -11.22287 -11.22147 -11.22065 -11.21501
 Alpha  occ. eigenvalues --   -1.59811  -1.39365  -1.19314  -1.09287  -1.08708
 Alpha  occ. eigenvalues --   -1.04723  -1.04388  -0.96825  -0.95546  -0.87834
 Alpha  occ. eigenvalues --   -0.86116  -0.82379  -0.80480  -0.79037  -0.77433
 Alpha  occ. eigenvalues --   -0.72007  -0.71134  -0.70424  -0.66032  -0.64964
 Alpha  occ. eigenvalues --   -0.64711  -0.62267  -0.61554  -0.60215  -0.58412
 Alpha  occ. eigenvalues --   -0.56115  -0.55199  -0.53527  -0.53238  -0.53043
 Alpha  occ. eigenvalues --   -0.52768  -0.50772  -0.48807  -0.48763  -0.48726
 Alpha  occ. eigenvalues --   -0.47531  -0.46578  -0.46475  -0.44772  -0.44617
 Alpha  occ. eigenvalues --   -0.37290  -0.36314
 Alpha virt. eigenvalues --    0.05100   0.11260   0.16595   0.19080   0.22571
 Alpha virt. eigenvalues --    0.23913   0.25560   0.25714   0.26834   0.27592
 Alpha virt. eigenvalues --    0.29166   0.29938   0.30911   0.31428   0.32179

 Mulliken charges:
               1
     1  C   -0.174570
     2  C   -0.218441
     3  C   -0.171306
     4  C    0.158952
     5  C   -0.172758
     6  C   -0.225073
     7  H    0.226691
     8  H    0.223239
     9  H    0.275417
    10  H    0.275468
    11  H    0.235759
    12  N    0.488008
    13  O   -0.460570
    14  O   -0.460549
    15  C   -0.299192
    16  C   -0.300392
    17  C   -0.476274
    18  H    0.150676
    19  H    0.150157
    20  H    0.153049
    21  H    0.153249
    22  H    0.156230
    23  H    0.155568
    24  H    0.162390
    25  C   -0.297996
    26  C   -0.308175
    27  C   -0.481162
    28  H    0.153421
    29  H    0.149617
    30  H    0.156411
    31  H    0.145870
    32  H    0.153361
    33  H    0.164126
    34  H    0.158797
 Sum of Mulliken charges =  -0.00000

 Dipole moment (field-independent basis, Debye):
    X=              3.9177    Y=              3.3050    Z=              1.6695  Tot=              5.3906
 Quadrupole moment (field-independent basis, Debye-Ang):
   XX=           -116.6868   YY=            -96.2391   ZZ=            -92.8423
   XY=            -12.2869   XZ=             -8.5240   YZ=              1.6577

 Normal termination of Gaussian 16 at Wed May  5 17:28:52 2021.
