 Gaussian 16, Revision A.03,
 Gaussian 16:  EM64L-G16RevA.03 25-Dec-2016

 -------------
 #p 6-31g* mp2
 -------------

 ------------------------------------------------------
 Input file generated by CHIRIPA (05-May-2021 14:55:24)
 ------------------------------------------------------
 Symbolic Z-matrix:
 Charge =  0 Multiplicity = 1

                         Standard orientation:
 ---------------------------------------------------------------------
 Center     Atomic      Atomic             Coordinates (Angstroms)
 Number     Number       Type             X           Y           Z
 ---------------------------------------------------------------------
      1          6           0        0.909690   -2.632361   -0.223803
      2          6           0        0.576761   -1.692027    0.756734
      3          6           0        1.372383   -0.559421    0.953555
      4          6           0        2.498844   -0.398001    0.148371
      5          6           0        2.856859   -1.317019   -0.836779
      6          6           0        2.046671   -2.442191   -1.016033
      7          1           0        0.285974   -3.509309   -0.369875
      8          1           0       -0.305647   -1.837121    1.373458
      9          1           0        1.137857    0.184313    1.705403
     10          1           0        3.742668   -1.145044   -1.436099
     11          1           0        2.307661   -3.170814   -1.778291
     12          7           0        3.348843    0.797103    0.347438
     13          8           0        4.336037    0.916236   -0.374983
     14          8           0        3.011783    1.592064    1.222118
     15          6           0       -3.285465    0.146587    0.218615
     16          6           0       -4.672724   -0.288259   -0.255097
     17          6           0       -5.191849   -1.519828    0.487559
     18          1           0       -2.581908   -0.686745    0.086290
     19          1           0       -3.322739    0.356009    1.296645
     20          1           0       -4.633169   -0.495465   -1.332185
     21          1           0       -5.373019    0.546270   -0.121808
     22          1           0       -5.259911   -1.321448    1.562089
     23          1           0       -4.515857   -2.369102    0.344836
     24          1           0       -6.184887   -1.813356    0.133189
     25          6           0       -2.752945    1.376531   -0.514455
     26          6           0       -1.365685    1.811377   -0.040743
     27          6           0       -0.846560    3.042947   -0.783399
     28          1           0       -2.715671    1.167110   -1.592484
     29          1           0       -3.456501    2.209864   -0.382131
     30          1           0       -0.665391    0.976849   -0.174031
     31          1           0       -1.405241    2.018584    1.036345
     32          1           0       -1.522553    3.892221   -0.640676
     33          1           0       -0.778499    2.844566   -1.857930
     34          1           0        0.146478    3.336475   -0.429029
 ---------------------------------------------------------------------

 SCF Done:  E(RHF) =  -669.535009698     A.U. after   15 cycles
 E2 =    -0.2093477853D+01 EUMP2 =    -0.67162848755087D+03

 The electronic state is 1-A.
 Alpha  occ. eigenvalues --  -20.60828 -20.60823 -15.85878 -11.31239 -11.27822
 Alpha  occ. eigenvalues --  -11.27796 -11.27569 -11.26824 -11.26800 -11.22051
 Alpha  occ. eigenvalues --  -11.21874 -11.21636 -11.21605 -11.21576 -11.20881
 Alpha  occ. eigenvalues --   -1.59899  -1.39453  -1.19433  -1.08820  -1.08747
 Alpha  occ. eigenvalues --   -1.04838  -1.03767  -0.96221  -0.95653  -0.87232
 Alpha  occ. eigenvalues --   -0.86222  -0.82485  -0.79871  -0.78601  -0.77507
 Alpha  occ. eigenvalues --   -0.72095  -0.71222  -0.70531  -0.65396  -0.65075
 Alpha  occ. eigenvalues --   -0.64816  -0.62170  -0.61180  -0.59603  -0.57828
 Alpha  occ. eigenvalues --   -0.55527  -0.55326  -0.53236  -0.52921  -0.52844
 Alpha  occ. eigenvalues --   -0.52625  -0.50170  -0.48855  -0.48851  -0.48163
 Alpha  occ. eigenvalues --   -0.46916  -0.46108  -0.46022  -0.44851  -0.44025
 Alpha  occ. eigenvalues --   -0.37412  -0.36313
 Alpha virt. eigenvalues --    0.04992   0.11086   0.16417   0.20770   0.22751
 Alpha virt. eigenvalues --    0.23953   0.25722   0.26144   0.27470   0.28350
 Alpha virt. eigenvalues --    0.28906   0.30629   0.31270   0.31470   0.31930

 Mulliken charges:
               1
     1  C   -0.171739
     2  C   -0.218264
     3  C   -0.173042
     4  C    0.159241
     5  C   -0.170814
     6  C   -0.218710
     7  H    0.225930
     8  H    0.226807
     9  H    0.278634
    10  H    0.275867
    11  H    0.223652
    12  N    0.488431
    13  O   -0.459995
    14  O   -0.460781
    15  C   -0.300568
    16  C   -0.299512
    17  C   -0.475333
    18  H    0.143528
    19  H    0.147935
    20  H    0.152723
    21  H    0.154709
    22  H    0.155531
    23  H    0.149924
    24  H    0.162439
    25  C   -0.296587
    26  C   -0.309213
    27  C   -0.478594
    28  H    0.149996
    29  H    0.151195
    30  H    0.157825
    31  H    0.148713
    32  H    0.154848
    33  H    0.154033
    34  H    0.171188
 Sum of Mulliken charges =  -0.00000

 Dipole moment (field-independent basis, Debye):
    X=             -2.9242    Y=             -4.1474    Z=             -0.7227  Tot=              5.1258
 Quadrupole moment (field-independent basis, Debye-Ang):
   XX=           -108.3806   YY=            -91.7563   ZZ=            -92.3927
   XY=            -11.2406   XZ=             -4.7809   YZ=              1.8081

 Normal termination of Gaussian 16 at Thu May  6 17:42:20 2021.
