 Gaussian 16, Revision A.03,
 Gaussian 16:  EM64L-G16RevA.03 25-Dec-2016

 -------------
 #p 6-31g* mp2
 -------------

 ------------------------------------------------------
 Input file generated by CHIRIPA (05-May-2021 14:55:19)
 ------------------------------------------------------
 Symbolic Z-matrix:
 Charge =  0 Multiplicity = 1

                         Standard orientation:
 ---------------------------------------------------------------------
 Center     Atomic      Atomic             Coordinates (Angstroms)
 Number     Number       Type             X           Y           Z
 ---------------------------------------------------------------------
      1          6           0        0.263529   -2.036173    1.233121
      2          6           0        0.205675   -1.918359   -0.159465
      3          6           0        1.164771   -1.170747   -0.849218
      4          6           0        2.172431   -0.551401   -0.111436
      5          6           0        2.257030   -0.650025    1.276514
      6          6           0        1.287217   -1.402747    1.945410
      7          1           0       -0.485683   -2.618920    1.760836
      8          1           0       -0.588199   -2.409199   -0.715238
      9          1           0        1.143770   -1.062989   -1.926884
     10          1           0        3.060357   -0.149279    1.803141
     11          1           0        1.334640   -1.492508    3.026955
     12          7           0        3.193456    0.242767   -0.830606
     13          8           0        4.071114    0.778743   -0.157490
     14          8           0        3.096744    0.314223   -2.053790
     15          6           0       -2.371027    1.573008    0.227849
     16          6           0       -0.859336    1.786274    0.313250
     17          6           0       -0.486404    3.190791    0.788696
     18          1           0       -2.802221    2.318944   -0.453764
     19          1           0       -2.816655    1.757269    1.215198
     20          1           0       -0.416522    1.600317   -0.673639
     21          1           0       -0.431666    1.039622    0.994592
     22          1           0       -0.901122    3.383563    1.783407
     23          1           0       -0.885892    3.947444    0.105698
     24          1           0        0.598905    3.321457    0.842466
     25          6           0       -2.759607    0.173652   -0.246004
     26          6           0       -4.271298   -0.039614   -0.331406
     27          6           0       -4.644231   -1.444131   -0.806852
     28          1           0       -2.313980   -0.010609   -1.233354
     29          1           0       -2.328413   -0.572284    0.435608
     30          1           0       -4.698969    0.707038   -1.012746
     31          1           0       -4.714112    0.146343    0.655483
     32          1           0       -4.244742   -2.200783   -0.123854
     33          1           0       -4.229512   -1.636902   -1.801562
     34          1           0       -5.729539   -1.574796   -0.860621
 ---------------------------------------------------------------------

 SCF Done:  E(RHF) =  -669.533720591     A.U. after   15 cycles
 E2 =    -0.2096346736D+01 EUMP2 =    -0.67163006732704D+03

 The electronic state is 1-A.
 Alpha  occ. eigenvalues --  -20.60815 -20.60808 -15.85865 -11.31234 -11.27811
 Alpha  occ. eigenvalues --  -11.27757 -11.27543 -11.26862 -11.26783 -11.22081
 Alpha  occ. eigenvalues --  -11.21813 -11.21746 -11.21602 -11.21508 -11.20992
 Alpha  occ. eigenvalues --   -1.59888  -1.39442  -1.19424  -1.08854  -1.08712
 Alpha  occ. eigenvalues --   -1.04821  -1.03806  -0.96285  -0.95647  -0.87301
 Alpha  occ. eigenvalues --   -0.86220  -0.82476  -0.79899  -0.78580  -0.77508
 Alpha  occ. eigenvalues --   -0.72085  -0.71207  -0.70534  -0.65414  -0.65060
 Alpha  occ. eigenvalues --   -0.64819  -0.62168  -0.61212  -0.59683  -0.57892
 Alpha  occ. eigenvalues --   -0.55595  -0.55329  -0.53443  -0.52936  -0.52797
 Alpha  occ. eigenvalues --   -0.52684  -0.50243  -0.48845  -0.48839  -0.48187
 Alpha  occ. eigenvalues --   -0.46949  -0.46061  -0.45870  -0.44840  -0.44051
 Alpha  occ. eigenvalues --   -0.37331  -0.36335
 Alpha virt. eigenvalues --    0.04968   0.11153   0.16391   0.20393   0.22914
 Alpha virt. eigenvalues --    0.23813   0.25755   0.26436   0.27620   0.28273
 Alpha virt. eigenvalues --    0.28752   0.30363   0.31307   0.31339   0.32058

 Mulliken charges:
               1
     1  C   -0.173770
     2  C   -0.210245
     3  C   -0.171972
     4  C    0.163361
     5  C   -0.172547
     6  C   -0.218960
     7  H    0.225559
     8  H    0.226087
     9  H    0.275115
    10  H    0.275826
    11  H    0.223885
    12  N    0.487633
    13  O   -0.460466
    14  O   -0.460481
    15  C   -0.297792
    16  C   -0.306499
    17  C   -0.476321
    18  H    0.150942
    19  H    0.147915
    20  H    0.152460
    21  H    0.157467
    22  H    0.152270
    23  H    0.156107
    24  H    0.163926
    25  C   -0.298241
    26  C   -0.299332
    27  C   -0.475707
    28  H    0.145131
    29  H    0.145709
    30  H    0.154765
    31  H    0.152346
    32  H    0.148165
    33  H    0.153965
    34  H    0.163700
 Sum of Mulliken charges =  -0.00000

 Dipole moment (field-independent basis, Debye):
    X=             -3.5181    Y=             -2.7973    Z=              2.5204  Tot=              5.1531
 Quadrupole moment (field-independent basis, Debye-Ang):
   XX=           -110.3110   YY=            -93.0364   ZZ=            -90.9102
   XY=             -4.0656   XZ=              8.1235   YZ=             -0.7933

 Normal termination of Gaussian 16 at Thu May  6 09:15:39 2021.
