 Gaussian 16, Revision A.03,
 Gaussian 16:  EM64L-G16RevA.03 25-Dec-2016

 -------------
 #p 6-31g* mp2
 -------------

 ------------------------------------------------------
 Input file generated by CHIRIPA (05-May-2021 14:53:14)
 ------------------------------------------------------
 Symbolic Z-matrix:
 Charge =  0 Multiplicity = 1

                         Standard orientation:
 ---------------------------------------------------------------------
 Center     Atomic      Atomic             Coordinates (Angstroms)
 Number     Number       Type             X           Y           Z
 ---------------------------------------------------------------------
      1          6           0        3.276222    0.702768   -0.454607
      2          6           0        3.464499    2.049389    0.244785
      3          6           0        3.191310    3.237854   -0.677556
      4          1           0        3.943049    0.653115   -1.326284
      5          1           0        2.249977    0.639052   -0.842105
      6          1           0        4.489666    2.109978    0.632055
      7          1           0        2.797285    2.095765    1.115010
      8          1           0        2.163791    3.205103   -1.054029
      9          1           0        3.865787    3.219396   -1.539728
     10          1           0        3.331789    4.190435   -0.157252
     11          6           0        3.545721   -0.494968    0.454528
     12          6           0        3.357444   -1.841589   -0.244864
     13          6           0        3.630633   -3.030054    0.677477
     14          1           0        4.571966   -0.431252    0.842026
     15          1           0        2.878894   -0.445315    1.326205
     16          1           0        4.024658   -1.887965   -1.115089
     17          1           0        2.332277   -1.902178   -0.632134
     18          1           0        2.956156   -3.011596    1.539649
     19          1           0        4.658152   -2.997303    1.053950
     20          1           0        3.490153   -3.982635    0.157173
     21          6           0       -5.163304    0.247249    0.125131
     22          6           0       -4.632314   -0.802906   -0.631008
     23          6           0       -3.249549   -0.994382   -0.707472
     24          6           0       -2.423277   -0.112923   -0.012063
     25          6           0       -2.921962    0.942700    0.749686
     26          6           0       -4.307941    1.115170    0.811854
     27          1           0       -6.238717    0.388611    0.178977
     28          1           0       -5.294199   -1.478492   -1.165363
     29          1           0       -2.811691   -1.799147   -1.285445
     30          1           0       -2.236875    1.599856    1.271434
     31          1           0       -4.717508    1.931598    1.399856
     32          7           0       -0.957706   -0.305569   -0.085445
     33          8           0       -0.251108    0.484762    0.536434
     34          8           0       -0.543338   -1.243249   -0.763451
 ---------------------------------------------------------------------

 SCF Done:  E(RHF) =  -669.537334023     A.U. after   15 cycles
 E2 =    -0.2092836561D+01 EUMP2 =    -0.67163017058418D+03

 The electronic state is 1-A.
 Alpha  occ. eigenvalues --  -20.61329 -20.61313 -15.86298 -11.31500 -11.28040
 Alpha  occ. eigenvalues --  -11.28036 -11.27755 -11.27016 -11.27006 -11.20060
 Alpha  occ. eigenvalues --  -11.19868 -11.19681 -11.19616 -11.19516 -11.19401
 Alpha  occ. eigenvalues --   -1.60344  -1.39904  -1.19649  -1.09079  -1.06629
 Alpha  occ. eigenvalues --   -1.05024  -1.01929  -0.95938  -0.94413  -0.86431
 Alpha  occ. eigenvalues --   -0.85447  -0.82777  -0.77985  -0.77845  -0.76435
 Alpha  occ. eigenvalues --   -0.72509  -0.71639  -0.70756  -0.65306  -0.65032
 Alpha  occ. eigenvalues --   -0.63221  -0.62370  -0.59308  -0.57807  -0.56039
 Alpha  occ. eigenvalues --   -0.55534  -0.53709  -0.53362  -0.53111  -0.51188
 Alpha  occ. eigenvalues --   -0.50877  -0.49310  -0.49268  -0.48336  -0.46324
 Alpha  occ. eigenvalues --   -0.45359  -0.44934  -0.44010  -0.43712  -0.42124
 Alpha  occ. eigenvalues --   -0.37620  -0.36617
 Alpha virt. eigenvalues --    0.04654   0.11040   0.16179   0.21167   0.24669
 Alpha virt. eigenvalues --    0.25762   0.27119   0.27944   0.28547   0.29210
 Alpha virt. eigenvalues --    0.29623   0.30854   0.32237   0.32829   0.33227

 Mulliken charges:
               1
     1  C   -0.300456
     2  C   -0.298251
     3  C   -0.474889
     4  H    0.138943
     5  H    0.170315
     6  H    0.144443
     7  H    0.156178
     8  H    0.155466
     9  H    0.151033
    10  H    0.153371
    11  C   -0.295105
    12  C   -0.310339
    13  C   -0.473858
    14  H    0.138791
    15  H    0.155524
    16  H    0.142884
    17  H    0.178130
    18  H    0.153267
    19  H    0.148725
    20  H    0.154670
    21  C   -0.170065
    22  C   -0.218625
    23  C   -0.170360
    24  C    0.158131
    25  C   -0.170350
    26  C   -0.218618
    27  H    0.226812
    28  H    0.224598
    29  H    0.276330
    30  H    0.276216
    31  H    0.224623
    32  N    0.489547
    33  O   -0.458994
    34  O   -0.458089
 Sum of Mulliken charges =  -0.00000

 Dipole moment (field-independent basis, Debye):
    X=             -5.8401    Y=              0.6404    Z=              0.2487  Tot=              5.8804
 Quadrupole moment (field-independent basis, Debye-Ang):
   XX=            -71.3410   YY=            -94.0953   ZZ=            -93.9358
   XY=             -0.3201   XZ=             -0.4910   YZ=              3.5710

 Normal termination of Gaussian 16 at Thu May  6 15:27:44 2021.
