 Gaussian 16, Revision A.03,
 Gaussian 16:  EM64L-G16RevA.03 25-Dec-2016

 -------------
 #p 6-31g* mp2
 -------------

 ------------------------------------------------------
 Input file generated by CHIRIPA (05-May-2021 14:53:16)
 ------------------------------------------------------
 Symbolic Z-matrix:
 Charge =  0 Multiplicity = 1

                         Standard orientation:
 ---------------------------------------------------------------------
 Center     Atomic      Atomic             Coordinates (Angstroms)
 Number     Number       Type             X           Y           Z
 ---------------------------------------------------------------------
      1          6           0       -4.649770   -0.475263   -0.053358
      2          6           0       -5.758196    0.227097    0.731542
      3          6           0       -6.996461   -0.649963    0.919318
      4          1           0       -5.039305   -0.777208   -1.035211
      5          1           0       -4.369309   -1.400105    0.469524
      6          1           0       -6.035520    1.151043    0.208063
      7          1           0       -5.365921    0.527575    1.711567
      8          1           0       -6.741035   -1.566054    1.461659
      9          1           0       -7.414438   -0.939043   -0.050388
     10          1           0       -7.776228   -0.128268    1.482929
     11          6           0       -3.405290    0.388802   -0.249290
     12          6           0       -2.296864   -0.313559   -1.034189
     13          6           0       -1.058599    0.563501   -1.221965
     14          1           0       -3.685751    1.313643   -0.772171
     15          1           0       -3.015755    0.690747    0.732564
     16          1           0       -2.689139   -0.614037   -2.014215
     17          1           0       -2.019540   -1.237505   -0.510710
     18          1           0       -0.640622    0.852582   -0.252260
     19          1           0       -1.314025    1.479593   -1.764307
     20          1           0       -0.278831    0.041806   -1.785576
     21          6           0        3.763940   -2.412589    0.116025
     22          6           0        4.153366   -1.593308    1.180753
     23          6           0        3.816812   -0.236422    1.192515
     24          6           0        3.086817    0.270279    0.118434
     25          6           0        2.684248   -0.520337   -0.956813
     26          6           0        3.031915   -1.874438   -0.947484
     27          1           0        4.029699   -3.465569    0.115079
     28          1           0        4.721928   -2.008518    2.008028
     29          1           0        4.105433    0.420474    2.004059
     30          1           0        2.118121   -0.077712   -1.767369
     31          1           0        2.728134   -2.508330   -1.775702
     32          7           0        2.724640    1.705280    0.119723
     33          8           0        2.080969    2.127435   -0.838458
     34          8           0        3.091295    2.380707    1.078890
 ---------------------------------------------------------------------

 SCF Done:  E(RHF) =  -669.535053510     A.U. after   15 cycles
 E2 =    -0.2092057099D+01 EUMP2 =    -0.67162711060880D+03

 The electronic state is 1-A.
 Alpha  occ. eigenvalues --  -20.60808 -20.60776 -15.85823 -11.31180 -11.27762
 Alpha  occ. eigenvalues --  -11.27734 -11.27507 -11.26773 -11.26760 -11.21436
 Alpha  occ. eigenvalues --  -11.21357 -11.21219 -11.21116 -11.20954 -11.20655
 Alpha  occ. eigenvalues --   -1.59857  -1.39410  -1.19360  -1.08757  -1.08221
 Alpha  occ. eigenvalues --   -1.04766  -1.03308  -0.95764  -0.95574  -0.86764
 Alpha  occ. eigenvalues --   -0.86153  -0.82426  -0.79374  -0.78035  -0.77460
 Alpha  occ. eigenvalues --   -0.72047  -0.71175  -0.70482  -0.65015  -0.64855
 Alpha  occ. eigenvalues --   -0.64778  -0.62153  -0.60701  -0.59131  -0.57371
 Alpha  occ. eigenvalues --   -0.55275  -0.55014  -0.53119  -0.52953  -0.52335
 Alpha  occ. eigenvalues --   -0.52133  -0.49668  -0.48809  -0.48804  -0.47680
 Alpha  occ. eigenvalues --   -0.46414  -0.45588  -0.45504  -0.44747  -0.43550
 Alpha  occ. eigenvalues --   -0.37341  -0.36351
 Alpha virt. eigenvalues --    0.05037   0.11249   0.16506   0.21078   0.23072
 Alpha virt. eigenvalues --    0.24353   0.26420   0.26859   0.27711   0.27807
 Alpha virt. eigenvalues --    0.28821   0.30582   0.31507   0.31667   0.32062

 Mulliken charges:
               1
     1  C   -0.297814
     2  C   -0.299613
     3  C   -0.475545
     4  H    0.148672
     5  H    0.147767
     6  H    0.152724
     7  H    0.152440
     8  H    0.154234
     9  H    0.154674
    10  H    0.160216
    11  C   -0.298506
    12  C   -0.301908
    13  C   -0.466859
    14  H    0.151443
    15  H    0.151142
    16  H    0.149083
    17  H    0.147467
    18  H    0.159212
    19  H    0.162209
    20  H    0.145727
    21  C   -0.170579
    22  C   -0.218709
    23  C   -0.171071
    24  C    0.156957
    25  C   -0.169238
    26  C   -0.220017
    27  H    0.225568
    28  H    0.223344
    29  H    0.275474
    30  H    0.278917
    31  H    0.223356
    32  N    0.487477
    33  O   -0.457761
    34  O   -0.460482
 Sum of Mulliken charges =  -0.00000

 Dipole moment (field-independent basis, Debye):
    X=              1.3337    Y=             -4.9256    Z=              0.0110  Tot=              5.1030
 Quadrupole moment (field-independent basis, Debye-Ang):
   XX=            -87.5243   YY=            -98.1274   ZZ=            -90.4542
   XY=            -16.0653   XZ=              3.0634   YZ=             -0.3656

 Normal termination of Gaussian 16 at Wed May  5 21:56:51 2021.
