 Gaussian 16, Revision A.03,
 Gaussian 16:  EM64L-G16RevA.03 25-Dec-2016

 -------------
 #p 6-31g* mp2
 -------------

 ------------------------------------------------------
 Input file generated by CHIRIPA (05-May-2021 14:57:26)
 ------------------------------------------------------
 Symbolic Z-matrix:
 Charge =  0 Multiplicity = 1

                         Standard orientation:
 ---------------------------------------------------------------------
 Center     Atomic      Atomic             Coordinates (Angstroms)
 Number     Number       Type             X           Y           Z
 ---------------------------------------------------------------------
      1          6           0        3.437881    2.098687    0.761143
      2          6           0        4.247745    0.958402    0.741408
      3          6           0        3.785596   -0.230890    0.169961
      4          6           0        2.502645   -0.244487   -0.375147
      5          6           0        1.671933    0.874972   -0.370795
      6          6           0        2.154822    2.053413    0.205958
      7          1           0        3.804945    3.018343    1.207118
      8          1           0        5.244611    0.990648    1.171829
      9          1           0        4.391544   -1.128340    0.141172
     10          1           0        0.682698    0.812119   -0.807693
     11          1           0        1.523667    2.937436    0.219869
     12          7           0        2.002410   -1.497793   -0.982921
     13          8           0        0.868339   -1.483845   -1.456549
     14          8           0        2.753870   -2.470351   -0.974158
     15          6           0       -3.213945    2.200471   -0.862505
     16          6           0       -2.090354    2.147834   -0.031064
     17          6           0       -1.732509    0.955025    0.604310
     18          6           0       -2.524295   -0.171140    0.384946
     19          6           0       -3.649564   -0.150497   -0.437630
     20          6           0       -3.988598    1.053159   -1.062781
     21          1           0       -3.484620    3.131286   -1.352109
     22          1           0       -1.486900    3.037285    0.126307
     23          1           0       -0.867788    0.886216    1.253109
     24          1           0       -4.231646   -1.053646   -0.575186
     25          1           0       -4.861731    1.091096   -1.707952
     26          7           0       -2.155418   -1.439655    1.052178
     27          8           0       -2.869418   -2.417878    0.842608
     28          8           0       -1.159275   -1.431676    1.772090
 ---------------------------------------------------------------------

 SCF Done:  E(RHF) =  -868.335866126     A.U. after   16 cycles
 E2 =    -0.2603337224D+01 EUMP2 =    -0.87093920334998D+03

 The electronic state is 1-A.
 Alpha  occ. eigenvalues --  -20.60530 -20.60511 -20.60462 -20.60436 -15.85589
 Alpha  occ. eigenvalues --  -15.85527 -11.31182 -11.31143 -11.27842 -11.27750
 Alpha  occ. eigenvalues --  -11.27748 -11.27737 -11.27632 -11.27596 -11.27029
 Alpha  occ. eigenvalues --  -11.26957 -11.26821 -11.26789  -1.59575  -1.59501
 Alpha  occ. eigenvalues --   -1.39135  -1.39059  -1.19424  -1.19351  -1.08732
 Alpha  occ. eigenvalues --   -1.08720  -1.04989  -1.04747  -0.95566  -0.95482
 Alpha  occ. eigenvalues --   -0.86319  -0.86152  -0.82479  -0.82292  -0.77521
 Alpha  occ. eigenvalues --   -0.77240  -0.71833  -0.71757  -0.70960  -0.70707
 Alpha  occ. eigenvalues --   -0.70660  -0.70351  -0.65110  -0.65040  -0.65006
 Alpha  occ. eigenvalues --   -0.64736  -0.62519  -0.61906  -0.55389  -0.55305
 Alpha  occ. eigenvalues --   -0.53385  -0.53157  -0.52960  -0.52653  -0.48584
 Alpha  occ. eigenvalues --   -0.48556  -0.48520  -0.48472  -0.44607  -0.44309
 Alpha  occ. eigenvalues --   -0.37375  -0.37338  -0.36675  -0.36229
 Alpha virt. eigenvalues --    0.05076   0.05274   0.10783   0.11578   0.16425
 Alpha virt. eigenvalues --    0.16602   0.19688   0.22091   0.25103   0.28247
 Alpha virt. eigenvalues --    0.28325   0.28746   0.30086   0.32107   0.32505

 Mulliken charges:
               1
     1  C   -0.169649
     2  C   -0.218291
     3  C   -0.168115
     4  C    0.164161
     5  C   -0.178703
     6  C   -0.224955
     7  H    0.224774
     8  H    0.224272
     9  H    0.277624
    10  H    0.281299
    11  H    0.214208
    12  N    0.491014
    13  O   -0.462193
    14  O   -0.457543
    15  C   -0.169848
    16  C   -0.224512
    17  C   -0.184427
    18  C    0.170423
    19  C   -0.167227
    20  C   -0.217639
    21  H    0.225079
    22  H    0.215749
    23  H    0.277828
    24  H    0.278637
    25  H    0.224832
    26  N    0.492257
    27  O   -0.456711
    28  O   -0.462346
 Sum of Mulliken charges =  -0.00000

 Dipole moment (field-independent basis, Debye):
    X=              0.3915    Y=              8.4162    Z=             -0.2485  Tot=              8.4290
 Quadrupole moment (field-independent basis, Debye-Ang):
   XX=            -81.7385   YY=           -107.9366   ZZ=           -108.6205
   XY=             -0.5898   XZ=             13.5734   YZ=              0.4351

 Normal termination of Gaussian 16 at Thu May  6 09:57:43 2021.
