 Gaussian 16, Revision A.03,
 Gaussian 16:  EM64L-G16RevA.03 25-Dec-2016

 -------------
 #p 6-31g* mp2
 -------------

 ------------------------------------------------------
 Input file generated by CHIRIPA (05-May-2021 14:55:20)
 ------------------------------------------------------
 Symbolic Z-matrix:
 Charge =  0 Multiplicity = 1

                         Standard orientation:
 ---------------------------------------------------------------------
 Center     Atomic      Atomic             Coordinates (Angstroms)
 Number     Number       Type             X           Y           Z
 ---------------------------------------------------------------------
      1          6           0        0.733500    0.259066    2.515111
      2          6           0        1.683968    1.093501    1.917743
      3          6           0        2.333036    0.703113    0.742645
      4          6           0        2.005845   -0.533913    0.189469
      5          6           0        1.063403   -1.387489    0.760872
      6          6           0        0.426791   -0.976587    1.935791
      7          1           0        0.234126    0.570296    3.427886
      8          1           0        1.924160    2.053672    2.365429
      9          1           0        3.072856    1.329509    0.259208
     10          1           0        0.845028   -2.338872    0.291191
     11          1           0       -0.310935   -1.626675    2.397517
     12          7           0        2.686390   -0.958058   -1.054460
     13          8           0        2.380353   -2.052744   -1.522048
     14          8           0        3.512954   -0.187784   -1.538308
     15          6           0       -1.903262    0.931276   -0.950532
     16          6           0       -1.194556    2.104827   -0.273406
     17          6           0       -0.155881    2.769413   -1.177438
     18          1           0       -1.155224    0.188449   -1.259710
     19          1           0       -2.389444    1.286523   -1.869673
     20          1           0       -0.711017    1.747754    0.644910
     21          1           0       -1.944386    2.844858    0.034368
     22          1           0       -0.626896    3.152680   -2.088400
     23          1           0        0.613481    2.049342   -1.474390
     24          1           0        0.338587    3.605729   -0.673515
     25          6           0       -2.944565    0.256587   -0.059346
     26          6           0       -3.653271   -0.916965   -0.736471
     27          6           0       -4.691945   -1.581551    0.167560
     28          1           0       -2.458382   -0.098661    0.859795
     29          1           0       -3.692603    0.999414    0.249833
     30          1           0       -2.903441   -1.656996   -1.044245
     31          1           0       -4.136810   -0.559891   -1.654787
     32          1           0       -5.461308   -0.861479    0.464511
     33          1           0       -4.220930   -1.964817    1.078522
     34          1           0       -5.186414   -2.417867   -0.336362
 ---------------------------------------------------------------------

 SCF Done:  E(RHF) =  -669.533709877     A.U. after   15 cycles
 E2 =    -0.2097106962D+01 EUMP2 =    -0.67163081683866D+03

 The electronic state is 1-A.
 Alpha  occ. eigenvalues --  -20.60937 -20.60927 -15.85985 -11.31397 -11.27989
 Alpha  occ. eigenvalues --  -11.27939 -11.27676 -11.26982 -11.26927 -11.21821
 Alpha  occ. eigenvalues --  -11.21588 -11.21478 -11.21397 -11.21378 -11.21073
 Alpha  occ. eigenvalues --   -1.60006  -1.39558  -1.19591  -1.08978  -1.08540
 Alpha  occ. eigenvalues --   -1.04987  -1.03654  -0.96125  -0.95787  -0.87145
 Alpha  occ. eigenvalues --   -0.86369  -0.82608  -0.79730  -0.78370  -0.77650
 Alpha  occ. eigenvalues --   -0.72197  -0.71339  -0.70665  -0.65259  -0.65217
 Alpha  occ. eigenvalues --   -0.64961  -0.62319  -0.61149  -0.59508  -0.57741
 Alpha  occ. eigenvalues --   -0.55486  -0.55446  -0.53251  -0.53057  -0.52802
 Alpha  occ. eigenvalues --   -0.52535  -0.50075  -0.48963  -0.48952  -0.48028
 Alpha  occ. eigenvalues --   -0.46798  -0.45888  -0.45853  -0.44944  -0.43908
 Alpha  occ. eigenvalues --   -0.37395  -0.36507
 Alpha virt. eigenvalues --    0.04851   0.10892   0.16275   0.20659   0.22949
 Alpha virt. eigenvalues --    0.23725   0.26113   0.26733   0.27438   0.28045
 Alpha virt. eigenvalues --    0.28699   0.30291   0.31207   0.31663   0.32121

 Mulliken charges:
               1
     1  C   -0.174726
     2  C   -0.218114
     3  C   -0.167186
     4  C    0.159387
     5  C   -0.172099
     6  C   -0.213986
     7  H    0.227569
     8  H    0.225197
     9  H    0.277167
    10  H    0.276652
    11  H    0.224838
    12  N    0.487632
    13  O   -0.459687
    14  O   -0.459516
    15  C   -0.297176
    16  C   -0.308478
    17  C   -0.475899
    18  H    0.151069
    19  H    0.150330
    20  H    0.160028
    21  H    0.147699
    22  H    0.156904
    23  H    0.157830
    24  H    0.153188
    25  C   -0.298961
    26  C   -0.300155
    27  C   -0.474655
    28  H    0.142895
    29  H    0.148660
    30  H    0.151946
    31  H    0.154707
    32  H    0.155766
    33  H    0.149031
    34  H    0.162145
 Sum of Mulliken charges =  -0.00000

 Dipole moment (field-independent basis, Debye):
    X=             -2.2234    Y=              1.4237    Z=              4.4090  Tot=              5.1390
 Quadrupole moment (field-independent basis, Debye-Ang):
   XX=           -103.7803   YY=            -93.1866   ZZ=            -93.7099
   XY=              6.0605   XZ=              9.2883   YZ=             -1.8824

 Normal termination of Gaussian 16 at Thu May  6 19:06:33 2021.
