 Gaussian 16, Revision A.03,
 Gaussian 16:  EM64L-G16RevA.03 25-Dec-2016

 -------------
 #p 6-31g* mp2
 -------------

 ------------------------------------------------------
 Input file generated by CHIRIPA (05-May-2021 14:57:23)
 ------------------------------------------------------
 Symbolic Z-matrix:
 Charge =  0 Multiplicity = 1

                         Standard orientation:
 ---------------------------------------------------------------------
 Center     Atomic      Atomic             Coordinates (Angstroms)
 Number     Number       Type             X           Y           Z
 ---------------------------------------------------------------------
      1          6           0       -2.282440    2.191959   -1.259930
      2          6           0       -2.168066    2.287200    0.130886
      3          6           0       -2.163685    1.135521    0.923455
      4          6           0       -2.275981   -0.100751    0.289175
      5          6           0       -2.391401   -0.228369   -1.094184
      6          6           0       -2.393547    0.936692   -1.866956
      7          1           0       -2.284975    3.091809   -1.867927
      8          1           0       -2.081631    3.260727    0.605037
      9          1           0       -2.076433    1.180375    2.002247
     10          1           0       -2.476005   -1.212845   -1.538106
     11          1           0       -2.482507    0.859700   -2.946864
     12          7           0       -2.272526   -1.327065    1.117754
     13          8           0       -2.372774   -2.404389    0.534693
     14          8           0       -2.169636   -1.187705    2.334565
     15          6           0        2.969395    2.135876    0.785822
     16          6           0        3.847201    1.048612    0.847761
     17          6           0        3.473910   -0.195630    0.330981
     18          6           0        2.209569   -0.317649   -0.243341
     19          6           0        1.312647    0.746751   -0.320004
     20          6           0        1.707145    1.981746    0.203164
     21          1           0        3.267613    3.098842    1.189750
     22          1           0        4.828103    1.165394    1.299688
     23          1           0        4.133764   -1.054002    0.365740
     24          1           0        0.341394    0.599594   -0.776545
     25          1           0        1.023363    2.824384    0.153678
     26          7           0        1.803156   -1.629977   -0.793814
     27          8           0        0.683734   -1.711521   -1.294694
     28          8           0        2.611729   -2.552188   -0.713971
 ---------------------------------------------------------------------

 SCF Done:  E(RHF) =  -868.336515108     A.U. after   16 cycles
 E2 =    -0.2605979482D+01 EUMP2 =    -0.87094249459019D+03

 The electronic state is 1-A.
 Alpha  occ. eigenvalues --  -20.60678 -20.60647 -20.60556 -20.60461 -15.85715
 Alpha  occ. eigenvalues --  -15.85576 -11.31285 -11.31052 -11.28063 -11.27904
 Alpha  occ. eigenvalues --  -11.27839 -11.27655 -11.27543 -11.27449 -11.27162
 Alpha  occ. eigenvalues --  -11.26979 -11.26680 -11.26670  -1.59727  -1.59575
 Alpha  occ. eigenvalues --   -1.39290  -1.39113  -1.19645  -1.19245  -1.08928
 Alpha  occ. eigenvalues --   -1.08666  -1.05046  -1.04653  -0.95683  -0.95484
 Alpha  occ. eigenvalues --   -0.86394  -0.86072  -0.82484  -0.82334  -0.77467
 Alpha  occ. eigenvalues --   -0.77367  -0.71983  -0.71793  -0.71124  -0.70826
 Alpha  occ. eigenvalues --   -0.70663  -0.70381  -0.65214  -0.65020  -0.64910
 Alpha  occ. eigenvalues --   -0.64694  -0.62326  -0.62106  -0.55537  -0.55298
 Alpha  occ. eigenvalues --   -0.53551  -0.53074  -0.52977  -0.52363  -0.48710
 Alpha  occ. eigenvalues --   -0.48681  -0.48592  -0.48509  -0.44784  -0.44342
 Alpha  occ. eigenvalues --   -0.37758  -0.37250  -0.36866  -0.35976
 Alpha virt. eigenvalues --    0.04964   0.05281   0.10869   0.11383   0.16268
 Alpha virt. eigenvalues --    0.16829   0.20745   0.21907   0.26379   0.27894
 Alpha virt. eigenvalues --    0.28353   0.28577   0.30406   0.31494   0.32568

 Mulliken charges:
               1
     1  C   -0.177438
     2  C   -0.228077
     3  C   -0.171416
     4  C    0.154175
     5  C   -0.159245
     6  C   -0.225977
     7  H    0.225977
     8  H    0.220675
     9  H    0.276858
    10  H    0.288402
    11  H    0.228420
    12  N    0.488831
    13  O   -0.447700
    14  O   -0.464766
    15  C   -0.170188
    16  C   -0.219335
    17  C   -0.168541
    18  C    0.154978
    19  C   -0.174180
    20  C   -0.224048
    21  H    0.223390
    22  H    0.223148
    23  H    0.276246
    24  H    0.287376
    25  H    0.216324
    26  N    0.490304
    27  O   -0.467132
    28  O   -0.457058
 Sum of Mulliken charges =  -0.00000

 Dipole moment (field-independent basis, Debye):
    X=              1.2145    Y=              8.4385    Z=             -1.1023  Tot=              8.5964
 Quadrupole moment (field-independent basis, Debye-Ang):
   XX=            -94.9363   YY=           -107.5651   ZZ=           -104.6290
   XY=             -1.3152   XZ=             12.9502   YZ=              1.9953

 Normal termination of Gaussian 16 at Fri May  7 01:52:58 2021.
