 Gaussian 16, Revision A.03,
 Gaussian 16:  EM64L-G16RevA.03 25-Dec-2016

 -------------
 #p 6-31g* mp2
 -------------

 ------------------------------------------------------
 Input file generated by CHIRIPA (05-May-2021 14:51:13)
 ------------------------------------------------------
 Symbolic Z-matrix:
 Charge =  0 Multiplicity = 1

                         Standard orientation:
 ---------------------------------------------------------------------
 Center     Atomic      Atomic             Coordinates (Angstroms)
 Number     Number       Type             X           Y           Z
 ---------------------------------------------------------------------
      1          6           0        2.520115    0.475511   -0.684190
      2          6           0        3.785466   -0.348211   -0.442626
      3          6           0        4.248914   -1.099703   -1.690932
      4          1           0        1.718105   -0.189715   -1.032326
      5          1           0        2.706729    1.191749   -1.496332
      6          1           0        3.596956   -1.061737    0.369753
      7          1           0        4.584502    0.319025   -0.094842
      8          1           0        4.464280   -0.399387   -2.504428
      9          1           0        3.471122   -1.787994   -2.037194
     10          1           0        5.154853   -1.681985   -1.495786
     11          6           0        2.044394    1.232542    0.554487
     12          6           0        0.779043    2.056264    0.312923
     13          6           0        0.315595    2.807756    1.561229
     14          1           0        1.857780    0.516304    1.366629
     15          1           0        2.846404    1.897768    0.902623
     16          1           0       -0.019994    1.389029   -0.034862
     17          1           0        0.967553    2.769791   -0.499456
     18          1           0        1.093386    3.496047    1.907491
     19          1           0        0.100229    2.107440    2.374725
     20          1           0       -0.590344    3.390039    1.366083
     21          6           0       -1.784150   -1.432241    0.096369
     22          6           0       -1.082745   -1.555274    1.449468
     23          6           0       -0.089326   -2.716592    1.496936
     24          1           0       -2.306604   -2.372853   -0.125518
     25          1           0       -1.028066   -1.301584   -0.690181
     26          1           0       -1.840000   -1.684273    2.233394
     27          1           0       -0.562059   -0.614191    1.668248
     28          1           0        0.687309   -2.590555    0.735651
     29          1           0       -0.597893   -3.666717    1.304009
     30          1           0        0.400622   -2.786144    2.473139
     31          6           0       -2.780359   -0.275813    0.033334
     32          6           0       -3.481764   -0.152779   -1.319765
     33          6           0       -4.475183    1.008539   -1.367233
     34          1           0       -3.536443   -0.406469    0.819884
     35          1           0       -2.257905    0.664801    0.255222
     36          1           0       -4.002450   -1.093862   -1.538545
     37          1           0       -2.724508   -0.023780   -2.103690
     38          1           0       -3.966616    1.958665   -1.174304
     39          1           0       -5.251818    0.882502   -0.605948
     40          1           0       -4.965130    1.078091   -2.343436
 ---------------------------------------------------------------------

 SCF Done:  E(RHF) =  -470.732810079     A.U. after   11 cycles
 E2 =    -0.1585450829D+01 EUMP2 =    -0.47231826090765D+03

 The electronic state is 1-A.
 Alpha  occ. eigenvalues --  -11.21661 -11.21642 -11.21636 -11.21622 -11.21461
 Alpha  occ. eigenvalues --  -11.21458 -11.21400 -11.21378 -11.21155 -11.21139
 Alpha  occ. eigenvalues --  -11.21099 -11.21082  -1.08558  -1.08418  -1.03601
 Alpha  occ. eigenvalues --   -1.03562  -0.96057  -0.96005  -0.87057  -0.87033
 Alpha  occ. eigenvalues --   -0.79677  -0.79618  -0.78310  -0.78293  -0.65662
 Alpha  occ. eigenvalues --   -0.64667  -0.61073  -0.60863  -0.59418  -0.59374
 Alpha  occ. eigenvalues --   -0.57682  -0.57602  -0.55452  -0.55200  -0.52722
 Alpha  occ. eigenvalues --   -0.52719  -0.52469  -0.52436  -0.50008  -0.49947
 Alpha  occ. eigenvalues --   -0.47992  -0.47964  -0.46842  -0.46603  -0.46088
 Alpha  occ. eigenvalues --   -0.45799  -0.45638  -0.45463  -0.43839  -0.43824
 Alpha virt. eigenvalues --    0.18361   0.21893   0.23122   0.24744   0.25399
 Alpha virt. eigenvalues --    0.26193   0.27073   0.28496   0.29207   0.29720
 Alpha virt. eigenvalues --    0.29888   0.31678   0.31729   0.32178   0.32477

 Mulliken charges:
               1
     1  C   -0.300867
     2  C   -0.300824
     3  C   -0.475706
     4  H    0.150939
     5  H    0.149863
     6  H    0.153201
     7  H    0.152244
     8  H    0.155240
     9  H    0.154980
    10  H    0.160598
    11  C   -0.300380
    12  C   -0.308594
    13  C   -0.477301
    14  H    0.152020
    15  H    0.150175
    16  H    0.159101
    17  H    0.152673
    18  H    0.155875
    19  H    0.156399
    20  H    0.160320
    21  C   -0.300975
    22  C   -0.306170
    23  C   -0.477341
    24  H    0.150581
    25  H    0.150534
    26  H    0.152552
    27  H    0.158151
    28  H    0.155995
    29  H    0.155818
    30  H    0.160326
    31  C   -0.304405
    32  C   -0.299702
    33  C   -0.475718
    34  H    0.150123
    35  H    0.155238
    36  H    0.152074
    37  H    0.152062
    38  H    0.155308
    39  H    0.155224
    40  H    0.160368
 Sum of Mulliken charges =  -0.00000

 Dipole moment (field-independent basis, Debye):
    X=             -0.0006    Y=              0.0078    Z=              0.0119  Tot=              0.0143
 Quadrupole moment (field-independent basis, Debye-Ang):
   XX=            -84.5831   YY=            -84.7165   ZZ=            -85.2935
   XY=              1.8251   XZ=             -0.1621   YZ=             -0.7574

 Normal termination of Gaussian 16 at Wed May  5 16:50:27 2021.
