 Gaussian 16, Revision A.03,
 Gaussian 16:  EM64L-G16RevA.03 25-Dec-2016

 -------------
 #p 6-31g* mp2
 -------------

 ------------------------------------------------------
 Input file generated by CHIRIPA (05-May-2021 14:51:08)
 ------------------------------------------------------
 Symbolic Z-matrix:
 Charge =  0 Multiplicity = 1

                         Standard orientation:
 ---------------------------------------------------------------------
 Center     Atomic      Atomic             Coordinates (Angstroms)
 Number     Number       Type             X           Y           Z
 ---------------------------------------------------------------------
      1          6           0       -2.288455    0.305440    0.563526
      2          6           0       -2.112930    0.860663    1.977352
      3          6           0       -0.782133    1.589704    2.165163
      4          1           0       -1.458910   -0.379178    0.339701
      5          1           0       -2.216248    1.130571   -0.158513
      6          1           0       -2.186827    0.034930    2.696602
      7          1           0       -2.943092    1.543892    2.197908
      8          1           0       -0.702892    2.432003    1.470285
      9          1           0        0.057671    0.914467    1.971813
     10          1           0       -0.677495    1.978492    3.182883
     11          6           0       -3.614051   -0.426121    0.360204
     12          6           0       -3.789575   -0.981344   -1.053622
     13          6           0       -5.120372   -1.710385   -1.241433
     14          1           0       -3.686257   -1.251252    1.082243
     15          1           0       -4.443596    0.258498    0.584029
     16          1           0       -2.959413   -1.664573   -1.274178
     17          1           0       -3.715679   -0.155611   -1.772872
     18          1           0       -5.960176   -1.035148   -1.048082
     19          1           0       -5.199614   -2.552684   -0.546555
     20          1           0       -5.225011   -2.099173   -2.259153
     21          6           0        3.624934   -0.278814   -0.341202
     22          6           0        3.510197   -1.604127    0.412701
     23          6           0        4.866291   -2.270568    0.646484
     24          1           0        4.119797   -0.454830   -1.306123
     25          1           0        4.276266    0.401664    0.224581
     26          1           0        2.858161   -2.281413   -0.153647
     27          1           0        3.015377   -1.424967    1.375857
     28          1           0        5.521182   -1.616633    1.231367
     29          1           0        5.363074   -2.477946   -0.306827
     30          1           0        4.760929   -3.216431    1.186950
     31          6           0        2.277571    0.399496   -0.582529
     32          6           0        2.392309    1.724807   -1.336431
     33          6           0        1.036214    2.391249   -1.570215
     34          1           0        1.626240   -0.280983   -1.148311
     35          1           0        1.782709    0.575511    0.382393
     36          1           0        2.887129    1.545647   -2.299588
     37          1           0        3.044344    2.402094   -0.770083
     38          1           0        0.539432    2.598627   -0.616903
     39          1           0        0.381324    1.737314   -2.155097
     40          1           0        1.141576    3.337112   -2.110681
 ---------------------------------------------------------------------

 SCF Done:  E(RHF) =  -470.732669779     A.U. after   11 cycles
 E2 =    -0.1584051402D+01 EUMP2 =    -0.47231672118106D+03

 The electronic state is 1-A.
 Alpha  occ. eigenvalues --  -11.21613 -11.21612 -11.21592 -11.21553 -11.21377
 Alpha  occ. eigenvalues --  -11.21371 -11.21312 -11.21299 -11.21107 -11.21076
 Alpha  occ. eigenvalues --  -11.21064 -11.20975  -1.08435  -1.08387  -1.03557
 Alpha  occ. eigenvalues --   -1.03481  -0.95991  -0.95949  -0.87012  -0.86968
 Alpha  occ. eigenvalues --   -0.79690  -0.79503  -0.78339  -0.78095  -0.65074
 Alpha  occ. eigenvalues --   -0.65024  -0.60971  -0.60899  -0.59411  -0.59259
 Alpha  occ. eigenvalues --   -0.57606  -0.57557  -0.55473  -0.55066  -0.52685
 Alpha  occ. eigenvalues --   -0.52647  -0.52442  -0.52387  -0.50135  -0.49689
 Alpha  occ. eigenvalues --   -0.48196  -0.47730  -0.46657  -0.46553  -0.46037
 Alpha  occ. eigenvalues --   -0.45678  -0.45665  -0.45292  -0.43781  -0.43754
 Alpha virt. eigenvalues --    0.21205   0.23116   0.23471   0.24574   0.25179
 Alpha virt. eigenvalues --    0.25870   0.26487   0.28081   0.28185   0.29596
 Alpha virt. eigenvalues --    0.30486   0.31616   0.31775   0.31932   0.32031

 Mulliken charges:
               1
     1  C   -0.300554
     2  C   -0.299356
     3  C   -0.484082
     4  H    0.151258
     5  H    0.151609
     6  H    0.151861
     7  H    0.151936
     8  H    0.158230
     9  H    0.159967
    10  H    0.160424
    11  C   -0.298349
    12  C   -0.299612
    13  C   -0.475677
    14  H    0.149389
    15  H    0.149551
    16  H    0.151704
    17  H    0.151996
    18  H    0.155207
    19  H    0.155156
    20  H    0.160147
    21  C   -0.297704
    22  C   -0.299615
    23  C   -0.475631
    24  H    0.149611
    25  H    0.149528
    26  H    0.151622
    27  H    0.151061
    28  H    0.155317
    29  H    0.155297
    30  H    0.160132
    31  C   -0.306399
    32  C   -0.298830
    33  C   -0.482037
    34  H    0.149276
    35  H    0.157774
    36  H    0.151602
    37  H    0.151658
    38  H    0.161714
    39  H    0.155550
    40  H    0.159265
 Sum of Mulliken charges =  -0.00000

 Dipole moment (field-independent basis, Debye):
    X=             -0.0154    Y=              0.0085    Z=              0.0182  Tot=              0.0253
 Quadrupole moment (field-independent basis, Debye-Ang):
   XX=            -86.3115   YY=            -84.4750   ZZ=            -84.1201
   XY=             -0.3353   XZ=             -0.2429   YZ=              0.2209

 Normal termination of Gaussian 16 at Thu May  6 06:52:46 2021.
