 Gaussian 16, Revision A.03,
 Gaussian 16:  EM64L-G16RevA.03 25-Dec-2016

 -------------
 #p 6-31g* mp2
 -------------

 ------------------------------------------------------
 Input file generated by CHIRIPA (05-May-2021 14:51:11)
 ------------------------------------------------------
 Symbolic Z-matrix:
 Charge =  0 Multiplicity = 1

                         Standard orientation:
 ---------------------------------------------------------------------
 Center     Atomic      Atomic             Coordinates (Angstroms)
 Number     Number       Type             X           Y           Z
 ---------------------------------------------------------------------
      1          6           0       -4.073247    0.447040    0.322639
      2          6           0       -4.305555    1.410740   -0.841535
      3          6           0       -5.451429    2.388630   -0.579814
      4          1           0       -4.998151   -0.113163    0.516729
      5          1           0       -3.861817    1.026090    1.232250
      6          1           0       -4.515119    0.830012   -1.748979
      7          1           0       -3.379934    1.968577   -1.033001
      8          1           0       -5.246538    2.992961    0.309796
      9          1           0       -6.388173    1.847927   -0.410250
     10          1           0       -5.600138    3.068223   -1.424739
     11          6           0       -2.930902   -0.536791    0.075959
     12          6           0       -2.698594   -1.500491    1.240133
     13          6           0       -1.552720   -2.478381    0.978411
     14          1           0       -3.142332   -1.115841   -0.833653
     15          1           0       -2.005999    0.023412   -0.118132
     16          1           0       -3.624215   -2.058328    1.431599
     17          1           0       -2.489030   -0.919763    2.147576
     18          1           0       -0.615976   -1.937678    0.808848
     19          1           0       -1.757611   -3.082712    0.088802
     20          1           0       -1.404011   -3.157974    1.823337
     21          6           0        3.478303    0.768341    0.044555
     22          6           0        4.862068    1.394229    0.221887
     23          6           0        4.797993    2.841729    0.710182
     24          1           0        2.898499    1.371638   -0.667348
     25          1           0        2.939350    0.810053    1.001208
     26          1           0        5.398771    1.350099   -0.734470
     27          1           0        5.438713    0.789266    0.933304
     28          1           0        4.285830    2.900161    1.676037
     29          1           0        4.245661    3.464182   -0.001213
     30          1           0        5.798190    3.269611    0.830115
     31          6           0        3.525846   -0.678590   -0.443153
     32          6           0        2.142082   -1.304478   -0.620484
     33          6           0        2.206156   -2.751978   -1.108780
     34          1           0        4.064799   -0.720302   -1.399806
     35          1           0        4.105651   -1.281886    0.268750
     36          1           0        1.565437   -0.699514   -1.331902
     37          1           0        1.605379   -1.260347    0.335873
     38          1           0        2.758489   -3.374431   -0.397385
     39          1           0        2.718320   -2.810409   -2.074634
     40          1           0        1.205960   -3.179859   -1.228712
 ---------------------------------------------------------------------

 SCF Done:  E(RHF) =  -470.733210963     A.U. after   11 cycles
 E2 =    -0.1582800703D+01 EUMP2 =    -0.47231601166653D+03

 The electronic state is 1-A.
 Alpha  occ. eigenvalues --  -11.21616 -11.21603 -11.21593 -11.21583 -11.21418
 Alpha  occ. eigenvalues --  -11.21388 -11.21357 -11.21328 -11.21087 -11.21064
 Alpha  occ. eigenvalues --  -11.21024 -11.21017  -1.08445  -1.08410  -1.03556
 Alpha  occ. eigenvalues --   -1.03491  -0.96008  -0.95932  -0.86998  -0.86976
 Alpha  occ. eigenvalues --   -0.79651  -0.79535  -0.78287  -0.78198  -0.65104
 Alpha  occ. eigenvalues --   -0.65019  -0.61038  -0.60827  -0.59396  -0.59296
 Alpha  occ. eigenvalues --   -0.57729  -0.57438  -0.55331  -0.55182  -0.52708
 Alpha  occ. eigenvalues --   -0.52643  -0.52451  -0.52297  -0.50003  -0.49847
 Alpha  occ. eigenvalues --   -0.47991  -0.47835  -0.46763  -0.46484  -0.45876
 Alpha  occ. eigenvalues --   -0.45749  -0.45720  -0.45548  -0.43789  -0.43762
 Alpha virt. eigenvalues --    0.21735   0.23077   0.23432   0.24888   0.26063
 Alpha virt. eigenvalues --    0.26487   0.26830   0.27494   0.28023   0.29051
 Alpha virt. eigenvalues --    0.30194   0.31093   0.31450   0.31936   0.32338

 Mulliken charges:
               1
     1  C   -0.298264
     2  C   -0.299647
     3  C   -0.475693
     4  H    0.149605
     5  H    0.149488
     6  H    0.151856
     7  H    0.151947
     8  H    0.155191
     9  H    0.155161
    10  H    0.160193
    11  C   -0.298582
    12  C   -0.299303
    13  C   -0.484046
    14  H    0.149321
    15  H    0.150240
    16  H    0.151784
    17  H    0.151559
    18  H    0.164518
    19  H    0.154717
    20  H    0.159883
    21  C   -0.298393
    22  C   -0.299631
    23  C   -0.475724
    24  H    0.149493
    25  H    0.149155
    26  H    0.152049
    27  H    0.152043
    28  H    0.155098
    29  H    0.155133
    30  H    0.160347
    31  C   -0.297536
    32  C   -0.303886
    33  C   -0.477248
    34  H    0.149651
    35  H    0.149775
    36  H    0.151971
    37  H    0.154515
    38  H    0.155096
    39  H    0.154918
    40  H    0.163245
 Sum of Mulliken charges =  -0.00000

 Dipole moment (field-independent basis, Debye):
    X=              0.0172    Y=             -0.0050    Z=             -0.0061  Tot=              0.0189
 Quadrupole moment (field-independent basis, Debye-Ang):
   XX=            -85.0720   YY=            -85.9597   ZZ=            -83.7974
   XY=              0.8923   XZ=              0.3144   YZ=             -0.4194

 Normal termination of Gaussian 16 at Wed May  5 23:06:49 2021.
