 Gaussian 16, Revision A.03,
 Gaussian 16:  EM64L-G16RevA.03 25-Dec-2016

 -------------
 #p 6-31g* mp2
 -------------

 ------------------------------------------------------
 Input file generated by CHIRIPA (05-May-2021 14:51:10)
 ------------------------------------------------------
 Symbolic Z-matrix:
 Charge =  0 Multiplicity = 1

                         Standard orientation:
 ---------------------------------------------------------------------
 Center     Atomic      Atomic             Coordinates (Angstroms)
 Number     Number       Type             X           Y           Z
 ---------------------------------------------------------------------
      1          6           0        2.551502    1.446015   -0.249987
      2          6           0        1.386167    1.917841    0.620278
      3          6           0        0.730560    3.193133    0.089614
      4          1           0        3.301276    2.246516   -0.313093
      5          1           0        2.189956    1.274999   -1.273429
      6          1           0        1.749512    2.086589    1.642100
      7          1           0        0.639169    1.116053    0.681476
      8          1           0        0.341161    3.034214   -0.921185
      9          1           0        1.457813    4.010265    0.044897
     10          1           0       -0.099972    3.512634    0.726791
     11          6           0        3.217165    0.172156    0.267607
     12          6           0        4.382500   -0.299670   -0.602658
     13          6           0        5.038107   -1.574962   -0.071994
     14          1           0        3.578711    0.343172    1.291049
     15          1           0        2.467391   -0.628345    0.330713
     16          1           0        5.129498    0.502118   -0.663856
     17          1           0        4.019155   -0.468418   -1.624480
     18          1           0        4.310854   -2.392094   -0.027277
     19          1           0        5.427506   -1.416043    0.938805
     20          1           0        5.868639   -1.894463   -0.709171
     21          6           0       -3.645780   -0.762623    0.029568
     22          6           0       -4.184005    0.635977   -0.274109
     23          6           0       -5.708914    0.712964   -0.193361
     24          1           0       -4.088380   -1.479894   -0.675111
     25          1           0       -3.976517   -1.065355    1.032743
     26          1           0       -3.851197    0.936544   -1.275865
     27          1           0       -3.739924    1.350030    0.431252
     28          1           0       -6.055994    0.438726    0.808102
     29          1           0       -6.167899    0.022890   -0.908714
     30          1           0       -6.072214    1.721530   -0.413969
     31          6           0       -2.122887   -0.855548   -0.047188
     32          6           0       -1.584662   -2.254147    0.256489
     33          6           0       -0.059753   -2.331135    0.175742
     34          1           0       -1.792151   -0.552815   -1.050363
     35          1           0       -1.680287   -0.138278    0.657490
     36          1           0       -2.028743   -2.968202   -0.448872
     37          1           0       -1.917471   -2.554715    1.258244
     38          1           0        0.399232   -1.641060    0.891095
     39          1           0        0.287328   -2.056897   -0.825721
     40          1           0        0.303547   -3.339701    0.396349
 ---------------------------------------------------------------------

 SCF Done:  E(RHF) =  -470.732748004     A.U. after   11 cycles
 E2 =    -0.1584103836D+01 EUMP2 =    -0.47231685183935D+03

 The electronic state is 1-A.
 Alpha  occ. eigenvalues --  -11.21685 -11.21631 -11.21526 -11.21514 -11.21472
 Alpha  occ. eigenvalues --  -11.21407 -11.21304 -11.21203 -11.21174 -11.21093
 Alpha  occ. eigenvalues --  -11.21024 -11.20996  -1.08501  -1.08337  -1.03598
 Alpha  occ. eigenvalues --   -1.03454  -0.96063  -0.95893  -0.87083  -0.86912
 Alpha  occ. eigenvalues --   -0.79683  -0.79524  -0.78373  -0.78089  -0.65166
 Alpha  occ. eigenvalues --   -0.64949  -0.61005  -0.60848  -0.59422  -0.59263
 Alpha  occ. eigenvalues --   -0.57726  -0.57474  -0.55373  -0.55167  -0.52748
 Alpha  occ. eigenvalues --   -0.52627  -0.52522  -0.52274  -0.50025  -0.49813
 Alpha  occ. eigenvalues --   -0.48080  -0.47846  -0.46802  -0.46556  -0.46090
 Alpha  occ. eigenvalues --   -0.45774  -0.45666  -0.45090  -0.43849  -0.43697
 Alpha virt. eigenvalues --    0.20917   0.22878   0.23685   0.24396   0.25501
 Alpha virt. eigenvalues --    0.26411   0.27012   0.27503   0.28477   0.29889
 Alpha virt. eigenvalues --    0.30269   0.31571   0.31753   0.31843   0.31897

 Mulliken charges:
               1
     1  C   -0.296969
     2  C   -0.307612
     3  C   -0.474989
     4  H    0.149205
     5  H    0.148812
     6  H    0.151084
     7  H    0.158954
     8  H    0.155348
     9  H    0.155030
    10  H    0.159447
    11  C   -0.308276
    12  C   -0.298792
    13  C   -0.475863
    14  H    0.148164
    15  H    0.161720
    16  H    0.151408
    17  H    0.151267
    18  H    0.155657
    19  H    0.154847
    20  H    0.159786
    21  C   -0.298128
    22  C   -0.299648
    23  C   -0.475780
    24  H    0.149874
    25  H    0.149690
    26  H    0.152009
    27  H    0.152203
    28  H    0.155225
    29  H    0.155191
    30  H    0.160485
    31  C   -0.302538
    32  C   -0.299798
    33  C   -0.481359
    34  H    0.149270
    35  H    0.153968
    36  H    0.152270
    37  H    0.152315
    38  H    0.160521
    39  H    0.155047
    40  H    0.160955
 Sum of Mulliken charges =  -0.00000

 Dipole moment (field-independent basis, Debye):
    X=             -0.0658    Y=             -0.0468    Z=              0.0082  Tot=              0.0812
 Quadrupole moment (field-independent basis, Debye-Ang):
   XX=            -86.0759   YY=            -85.3336   ZZ=            -83.5530
   XY=              1.0865   XZ=              0.2971   YZ=              0.7515

 Normal termination of Gaussian 16 at Wed May  5 21:25:46 2021.
