 Gaussian 16, Revision A.03,
 Gaussian 16:  EM64L-G16RevA.03 25-Dec-2016

 -------------
 #p 6-31g* mp2
 -------------

 ------------------------------------------------------
 Input file generated by CHIRIPA (05-May-2021 14:53:13)
 ------------------------------------------------------
 Symbolic Z-matrix:
 Charge =  0 Multiplicity = 1

                         Standard orientation:
 ---------------------------------------------------------------------
 Center     Atomic      Atomic             Coordinates (Angstroms)
 Number     Number       Type             X           Y           Z
 ---------------------------------------------------------------------
      1          6           0        4.556507   -0.233269   -0.077102
      2          6           0        4.393677   -1.560287    0.664850
      3          6           0        5.480645   -2.574533    0.307639
      4          1           0        4.542945   -0.421531   -1.159377
      5          1           0        5.544026    0.189417    0.154283
      6          1           0        3.406212   -1.979666    0.433226
      7          1           0        4.407437   -1.368821    1.745483
      8          1           0        6.471624   -2.180376    0.555028
      9          1           0        5.464711   -2.794691   -0.764685
     10          1           0        5.345027   -3.515853    0.849289
     11          6           0        3.477368    0.790969    0.269485
     12          6           0        3.640198    2.117988   -0.472468
     13          6           0        2.553230    3.132234   -0.115257
     14          1           0        2.489849    0.368284    0.038099
     15          1           0        3.490930    0.979232    1.351759
     16          1           0        3.626438    1.926522   -1.553100
     17          1           0        4.627663    2.537366   -0.240844
     18          1           0        2.569164    3.352392    0.957067
     19          1           0        1.562251    2.738077   -0.362646
     20          1           0        2.688848    4.073554   -0.656907
     21          6           0       -0.685418   -0.438373   -0.623777
     22          6           0       -1.183654    0.766056   -0.116203
     23          6           0       -2.540917    0.899573    0.191304
     24          6           0       -3.375361   -0.196533   -0.022110
     25          6           0       -2.909067   -1.409582   -0.526464
     26          6           0       -1.548193   -1.520440   -0.826929
     27          1           0        0.370340   -0.533292   -0.859920
     28          1           0       -0.515939    1.608070    0.042586
     29          1           0       -2.953204    1.820490    0.585445
     30          1           0       -3.599200   -2.231385   -0.674024
     31          1           0       -1.164040   -2.457022   -1.220992
     32          7           0       -4.814146   -0.067178    0.299706
     33          8           0       -5.528592   -1.047670    0.102631
     34          8           0       -5.200176    1.012253    0.742929
 ---------------------------------------------------------------------

 SCF Done:  E(RHF) =  -669.535103170     A.U. after   15 cycles
 E2 =    -0.2092050265D+01 EUMP2 =    -0.67162715343565D+03

 The electronic state is 1-A.
 Alpha  occ. eigenvalues --  -20.60729 -20.60724 -15.85782 -11.31146 -11.27715
 Alpha  occ. eigenvalues --  -11.27705 -11.27448 -11.26734 -11.26700 -11.22669
 Alpha  occ. eigenvalues --  -11.22556 -11.22478 -11.22326 -11.22257 -11.21787
 Alpha  occ. eigenvalues --   -1.59805  -1.39358  -1.19317  -1.09462  -1.08714
 Alpha  occ. eigenvalues --   -1.04721  -1.04506  -0.96968  -0.95551  -0.87981
 Alpha  occ. eigenvalues --   -0.86122  -0.82384  -0.80575  -0.79272  -0.77429
 Alpha  occ. eigenvalues --   -0.72001  -0.71128  -0.70454  -0.66120  -0.64968
 Alpha  occ. eigenvalues --   -0.64737  -0.62155  -0.61826  -0.60320  -0.58573
 Alpha  occ. eigenvalues --   -0.56334  -0.55208  -0.53621  -0.53419  -0.53047
 Alpha  occ. eigenvalues --   -0.52783  -0.50895  -0.48892  -0.48756  -0.48741
 Alpha  occ. eigenvalues --   -0.47609  -0.46799  -0.46721  -0.44769  -0.44764
 Alpha  occ. eigenvalues --   -0.37297  -0.36321
 Alpha virt. eigenvalues --    0.05098   0.11313   0.16548   0.18289   0.22239
 Alpha virt. eigenvalues --    0.23479   0.24844   0.25328   0.26273   0.28239
 Alpha virt. eigenvalues --    0.29450   0.30872   0.31053   0.31101   0.31529

 Mulliken charges:
               1
     1  C   -0.299140
     2  C   -0.299214
     3  C   -0.476309
     4  H    0.149558
     5  H    0.153816
     6  H    0.146513
     7  H    0.155056
     8  H    0.157603
     9  H    0.155334
    10  H    0.162610
    11  C   -0.302499
    12  C   -0.300497
    13  C   -0.480316
    14  H    0.140476
    15  H    0.154559
    16  H    0.153215
    17  H    0.157397
    18  H    0.159260
    19  H    0.147087
    20  H    0.166764
    21  C   -0.177084
    22  C   -0.226911
    23  C   -0.172256
    24  C    0.158848
    25  C   -0.171035
    26  C   -0.219030
    27  H    0.230577
    28  H    0.233577
    29  H    0.276280
    30  H    0.275405
    31  H    0.223418
    32  N    0.487919
    33  O   -0.460592
    34  O   -0.460390
 Sum of Mulliken charges =  -0.00000

 Dipole moment (field-independent basis, Debye):
    X=              5.3611    Y=             -0.3976    Z=             -1.0816  Tot=              5.4836
 Quadrupole moment (field-independent basis, Debye-Ang):
   XX=           -128.3996   YY=            -90.3199   ZZ=            -94.4736
   XY=              2.4084   XZ=              4.7098   YZ=              2.0063

 Normal termination of Gaussian 16 at Thu May  6 15:22:38 2021.
