 Gaussian 16, Revision A.03,
 Gaussian 16:  EM64L-G16RevA.03 25-Dec-2016

 -------------
 #p 6-31g* mp2
 -------------

 ------------------------------------------------------
 Input file generated by CHIRIPA (05-May-2021 14:55:21)
 ------------------------------------------------------
 Symbolic Z-matrix:
 Charge =  0 Multiplicity = 1

                         Standard orientation:
 ---------------------------------------------------------------------
 Center     Atomic      Atomic             Coordinates (Angstroms)
 Number     Number       Type             X           Y           Z
 ---------------------------------------------------------------------
      1          6           0        1.924042    1.894700    0.495116
      2          6           0        1.929125    0.750232    1.299285
      3          6           0        2.858725   -0.269945    1.076505
      4          6           0        3.773033   -0.112002    0.036128
      5          6           0        3.793250    1.016295   -0.782302
      6          6           0        2.854481    2.023851   -0.541283
      7          1           0        1.198345    2.682296    0.675262
      8          1           0        1.207710    0.647224    2.104887
      9          1           0        2.884967   -1.166512    1.683874
     10          1           0        4.524780    1.090455   -1.577778
     11          1           0        2.852872    2.911554   -1.167404
     12          7           0        4.762013   -1.185337   -0.209373
     13          8           0        5.557061   -1.022108   -1.132353
     14          8           0        4.723400   -2.169522    0.525831
     15          6           0       -5.352318    0.123459   -0.022344
     16          6           0       -6.334299   -1.023525   -0.263441
     17          6           0       -7.793710   -0.594719   -0.108396
     18          1           0       -5.511826    0.528336    0.986406
     19          1           0       -5.572415    0.939126   -0.724939
     20          1           0       -6.111532   -1.837347    0.438473
     21          1           0       -6.172306   -1.425843   -1.271664
     22          1           0       -8.038925    0.201258   -0.818952
     23          1           0       -7.977806   -0.212584    0.900902
     24          1           0       -8.478507   -1.430007   -0.285052
     25          6           0       -3.889377   -0.289595   -0.173725
     26          6           0       -2.907396    0.857388    0.067372
     27          6           0       -1.447986    0.428583   -0.087675
     28          1           0       -3.669280   -1.105262    0.528869
     29          1           0       -3.729869   -0.694472   -1.182475
     30          1           0       -3.069389    1.259707    1.075595
     31          1           0       -3.130164    1.671210   -0.634543
     32          1           0       -1.263890    0.046447   -1.096972
     33          1           0       -1.202771   -0.367394    0.622882
     34          1           0       -0.763189    1.263871    0.088982
 ---------------------------------------------------------------------

 SCF Done:  E(RHF) =  -669.534025523     A.U. after   15 cycles
 E2 =    -0.2092376721D+01 EUMP2 =    -0.67162640224372D+03

 The electronic state is 1-A.
 Alpha  occ. eigenvalues --  -20.60739 -20.60734 -15.85793 -11.31156 -11.27725
 Alpha  occ. eigenvalues --  -11.27709 -11.27470 -11.26751 -11.26725 -11.22205
 Alpha  occ. eigenvalues --  -11.21918 -11.21856 -11.21760 -11.21723 -11.21344
 Alpha  occ. eigenvalues --   -1.59815  -1.39368  -1.19335  -1.08890  -1.08737
 Alpha  occ. eigenvalues --   -1.04738  -1.04001  -0.96462  -0.95570  -0.87482
 Alpha  occ. eigenvalues --   -0.86130  -0.82403  -0.80070  -0.78680  -0.77439
 Alpha  occ. eigenvalues --   -0.72013  -0.71137  -0.70488  -0.65517  -0.64996
 Alpha  occ. eigenvalues --   -0.64751  -0.62095  -0.61390  -0.59872  -0.58076
 Alpha  occ. eigenvalues --   -0.55737  -0.55274  -0.53559  -0.52902  -0.52804
 Alpha  occ. eigenvalues --   -0.52641  -0.50381  -0.48771  -0.48766  -0.48380
 Alpha  occ. eigenvalues --   -0.47098  -0.46223  -0.46141  -0.44775  -0.44272
 Alpha  occ. eigenvalues --   -0.37228  -0.36310
 Alpha virt. eigenvalues --    0.05055   0.11297   0.16447   0.20563   0.22608
 Alpha virt. eigenvalues --    0.24079   0.26118   0.26721   0.26800   0.27506
 Alpha virt. eigenvalues --    0.28789   0.30129   0.31128   0.31625   0.32472

 Mulliken charges:
               1
     1  C   -0.171398
     2  C   -0.211255
     3  C   -0.172606
     4  C    0.158745
     5  C   -0.171169
     6  C   -0.219592
     7  H    0.224931
     8  H    0.224273
     9  H    0.275315
    10  H    0.275452
    11  H    0.223300
    12  N    0.488077
    13  O   -0.460574
    14  O   -0.460517
    15  C   -0.298409
    16  C   -0.300001
    17  C   -0.475910
    18  H    0.149226
    19  H    0.149709
    20  H    0.152508
    21  H    0.152910
    22  H    0.155363
    23  H    0.155143
    24  H    0.161453
    25  C   -0.298840
    26  C   -0.300484
    27  C   -0.474650
    28  H    0.150067
    29  H    0.151592
    30  H    0.149058
    31  H    0.151863
    32  H    0.160261
    33  H    0.152997
    34  H    0.153163
 Sum of Mulliken charges =  -0.00000

 Dipole moment (field-independent basis, Debye):
    X=             -3.5513    Y=              3.7439    Z=              0.8258  Tot=              5.2260
 Quadrupole moment (field-independent basis, Debye-Ang):
   XX=           -122.0409   YY=            -94.7843   ZZ=            -91.1549
   XY=             16.2328   XZ=              1.6979   YZ=             -2.5579

 Normal termination of Gaussian 16 at Wed May  5 23:49:51 2021.
