 Gaussian 16, Revision A.03,
 Gaussian 16:  EM64L-G16RevA.03 25-Dec-2016

 -------------
 #p 6-31g* mp2
 -------------

 ------------------------------------------------------
 Input file generated by CHIRIPA (05-May-2021 14:57:24)
 ------------------------------------------------------
 Symbolic Z-matrix:
 Charge =  0 Multiplicity = 1

                         Standard orientation:
 ---------------------------------------------------------------------
 Center     Atomic      Atomic             Coordinates (Angstroms)
 Number     Number       Type             X           Y           Z
 ---------------------------------------------------------------------
      1          6           0       -1.204848    0.073641    0.215153
      2          6           0       -1.986132    0.876070    1.053142
      3          6           0       -3.381565    0.805486    1.004861
      4          6           0       -3.965141   -0.082575    0.102599
      5          6           0       -3.213960   -0.895097   -0.745237
      6          6           0       -1.820171   -0.807828   -0.679784
      7          1           0       -0.121480    0.134953    0.259329
      8          1           0       -1.510991    1.561539    1.749143
      9          1           0       -4.010437    1.415191    1.642197
     10          1           0       -3.716339   -1.568825   -1.428701
     11          1           0       -1.215934   -1.432211   -1.331772
     12          7           0       -5.441553   -0.166132    0.042396
     13          8           0       -5.931424   -0.956605   -0.761231
     14          8           0       -6.080939    0.560432    0.799976
     15          6           0        4.586977   -2.189574    0.606599
     16          6           0        5.210590   -1.023467    1.062473
     17          6           0        4.739773    0.233213    0.670513
     18          6           0        3.638169    0.287136   -0.182043
     19          6           0        2.995367   -0.856570   -0.653246
     20          6           0        3.483302   -2.102558   -0.248298
     21          1           0        4.959368   -3.161641    0.916128
     22          1           0        6.067903   -1.088014    1.726471
     23          1           0        5.203600    1.151959    1.008430
     24          1           0        2.142690   -0.760286   -1.314372
     25          1           0        2.997009   -3.006497   -0.603908
     26          7           0        3.130675    1.611867   -0.603868
     27          8           0        2.158529    1.632407   -1.355630
     28          8           0        3.714657    2.604568   -0.174746
 ---------------------------------------------------------------------

 SCF Done:  E(RHF) =  -868.338203826     A.U. after   16 cycles
 E2 =    -0.2599751199D+01 EUMP2 =    -0.87093795502409D+03

 The electronic state is 1-A.
 Alpha  occ. eigenvalues --  -20.61882 -20.61844 -20.60517 -20.60509 -15.86893
 Alpha  occ. eigenvalues --  -15.85570 -11.32237 -11.30872 -11.28842 -11.28710
 Alpha  occ. eigenvalues --  -11.28427 -11.27783 -11.27707 -11.27492 -11.27435
 Alpha  occ. eigenvalues --  -11.27137 -11.26508 -11.26384  -1.60932  -1.59593
 Alpha  occ. eigenvalues --   -1.40487  -1.39149  -1.20377  -1.19047  -1.09762
 Alpha  occ. eigenvalues --   -1.08441  -1.05768  -1.04456  -0.96609  -0.95285
 Alpha  occ. eigenvalues --   -0.87162  -0.85855  -0.83437  -0.82131  -0.78514
 Alpha  occ. eigenvalues --   -0.77197  -0.73100  -0.72269  -0.71790  -0.71458
 Alpha  occ. eigenvalues --   -0.70916  -0.70119  -0.66016  -0.65748  -0.64704
 Alpha  occ. eigenvalues --   -0.64480  -0.63117  -0.61819  -0.56223  -0.54935
 Alpha  occ. eigenvalues --   -0.54082  -0.53837  -0.52766  -0.52560  -0.49875
 Alpha  occ. eigenvalues --   -0.49853  -0.48547  -0.48544  -0.45879  -0.44569
 Alpha  occ. eigenvalues --   -0.38323  -0.37370  -0.36982  -0.36063
 Alpha virt. eigenvalues --    0.03984   0.05364   0.10153   0.11597   0.15524
 Alpha virt. eigenvalues --    0.16880   0.19546   0.21743   0.25484   0.26955
 Alpha virt. eigenvalues --    0.27918   0.28554   0.30531   0.31014   0.31719

 Mulliken charges:
               1
     1  C   -0.166096
     2  C   -0.218999
     3  C   -0.170530
     4  C    0.157743
     5  C   -0.170774
     6  C   -0.218847
     7  H    0.228059
     8  H    0.225497
     9  H    0.275213
    10  H    0.273861
    11  H    0.215128
    12  N    0.488210
    13  O   -0.461866
    14  O   -0.460768
    15  C   -0.170268
    16  C   -0.217403
    17  C   -0.170641
    18  C    0.158313
    19  C   -0.178662
    20  C   -0.217138
    21  H    0.229486
    22  H    0.227332
    23  H    0.278147
    24  H    0.270762
    25  H    0.225199
    26  N    0.487081
    27  O   -0.463328
    28  O   -0.454712
 Sum of Mulliken charges =  -0.00000

 Dipole moment (field-independent basis, Debye):
    X=              7.3932    Y=             -4.3112    Z=              1.8120  Tot=              8.7481
 Quadrupole moment (field-independent basis, Debye-Ang):
   XX=           -130.3482   YY=           -104.6946   ZZ=           -102.2979
   XY=            -17.0911   XZ=              7.1040   YZ=              5.5028

 Normal termination of Gaussian 16 at Wed May  5 21:06:04 2021.
