 Gaussian 16, Revision A.03,
 Gaussian 16:  EM64L-G16RevA.03 25-Dec-2016

 -------------
 #p 6-31g* mp2
 -------------

 ------------------------------------------------------
 Input file generated by CHIRIPA (05-May-2021 14:55:20)
 ------------------------------------------------------
 Symbolic Z-matrix:
 Charge =  0 Multiplicity = 1

                         Standard orientation:
 ---------------------------------------------------------------------
 Center     Atomic      Atomic             Coordinates (Angstroms)
 Number     Number       Type             X           Y           Z
 ---------------------------------------------------------------------
      1          6           0       -1.563677    0.696003    1.057555
      2          6           0       -1.894702   -0.607254    0.672245
      3          6           0       -3.148599   -0.887924    0.121324
      4          6           0       -4.051311    0.163403   -0.030702
      5          6           0       -3.751112    1.472272    0.343505
      6          6           0       -2.491303    1.729785    0.892247
      7          1           0       -0.587323    0.905040    1.484677
      8          1           0       -1.176284   -1.412077    0.799453
      9          1           0       -3.430994   -1.887684   -0.185517
     10          1           0       -4.488224    2.253757    0.204345
     11          1           0       -2.236963    2.742873    1.190587
     12          7           0       -5.381885   -0.121472   -0.612784
     13          8           0       -6.159481    0.822312   -0.736290
     14          8           0       -5.621998   -1.283146   -0.934492
     15          6           0        4.505365   -0.837392    0.234241
     16          6           0        3.005397   -0.757408   -0.051560
     17          6           0        2.219425   -1.900854    0.590759
     18          1           0        4.890854   -1.799374   -0.130357
     19          1           0        4.665420   -0.828296    1.321300
     20          1           0        2.848299   -0.765257   -1.137782
     21          1           0        2.623472    0.204577    0.313588
     22          1           0        2.346598   -1.892579    1.678123
     23          1           0        2.572703   -2.867923    0.218507
     24          1           0        1.149439   -1.824116    0.373733
     25          6           0        5.304595    0.298886   -0.401235
     26          6           0        6.804564    0.218903   -0.115433
     27          6           0        7.590535    1.362348   -0.757753
     28          1           0        5.144541    0.289791   -1.488293
     29          1           0        4.919108    1.260869   -0.036636
     30          1           0        7.186489   -0.743083   -0.480583
     31          1           0        6.961662    0.226751    0.970788
     32          1           0        7.237258    2.329417   -0.385500
     33          1           0        7.463363    1.354074   -1.845117
     34          1           0        8.660522    1.285610   -0.540727
 ---------------------------------------------------------------------

 SCF Done:  E(RHF) =  -669.535513205     A.U. after   15 cycles
 E2 =    -0.2090902243D+01 EUMP2 =    -0.67162641544873D+03

 The electronic state is 1-A.
 Alpha  occ. eigenvalues --  -20.60741 -20.60736 -15.85795 -11.31159 -11.27733
 Alpha  occ. eigenvalues --  -11.27725 -11.27471 -11.26745 -11.26719 -11.22547
 Alpha  occ. eigenvalues --  -11.22209 -11.22125 -11.22104 -11.21977 -11.21497
 Alpha  occ. eigenvalues --   -1.59817  -1.39370  -1.19333  -1.09139  -1.08727
 Alpha  occ. eigenvalues --   -1.04738  -1.04267  -0.96726  -0.95561  -0.87748
 Alpha  occ. eigenvalues --   -0.86135  -0.82395  -0.80336  -0.78914  -0.77445
 Alpha  occ. eigenvalues --   -0.72013  -0.71140  -0.70439  -0.65766  -0.64985
 Alpha  occ. eigenvalues --   -0.64780  -0.62127  -0.61656  -0.60107  -0.58316
 Alpha  occ. eigenvalues --   -0.55997  -0.55237  -0.53526  -0.53184  -0.53054
 Alpha  occ. eigenvalues --   -0.52707  -0.50652  -0.48783  -0.48768  -0.48632
 Alpha  occ. eigenvalues --   -0.47359  -0.46465  -0.46366  -0.44776  -0.44515
 Alpha  occ. eigenvalues --   -0.37311  -0.36339
 Alpha virt. eigenvalues --    0.05093   0.11257   0.16576   0.19501   0.22478
 Alpha virt. eigenvalues --    0.23893   0.25506   0.25886   0.26602   0.27633
 Alpha virt. eigenvalues --    0.28890   0.29444   0.30808   0.31566   0.31932

 Mulliken charges:
               1
     1  C   -0.172639
     2  C   -0.223815
     3  C   -0.171616
     4  C    0.158775
     5  C   -0.171017
     6  C   -0.218606
     7  H    0.226455
     8  H    0.230518
     9  H    0.275931
    10  H    0.275519
    11  H    0.223264
    12  N    0.487993
    13  O   -0.460540
    14  O   -0.460422
    15  C   -0.299190
    16  C   -0.298496
    17  C   -0.481991
    18  H    0.152192
    19  H    0.149916
    20  H    0.156207
    21  H    0.146673
    22  H    0.156150
    23  H    0.161669
    24  H    0.153429
    25  C   -0.298606
    26  C   -0.300163
    27  C   -0.476040
    28  H    0.151170
    29  H    0.148837
    30  H    0.153157
    31  H    0.152220
    32  H    0.155152
    33  H    0.156133
    34  H    0.161782
 Sum of Mulliken charges =  -0.00000

 Dipole moment (field-independent basis, Debye):
    X=              4.9073    Y=              0.9868    Z=              2.0126  Tot=              5.3950
 Quadrupole moment (field-independent basis, Debye-Ang):
   XX=           -132.7212   YY=            -89.9580   ZZ=            -95.1423
   XY=             -5.4543   XZ=             -8.5826   YZ=              1.6731

 Normal termination of Gaussian 16 at Wed May  5 17:24:50 2021.
