 Gaussian 16, Revision A.03,
 Gaussian 16:  EM64L-G16RevA.03 25-Dec-2016

 -------------
 #p 6-31g* mp2
 -------------

 ------------------------------------------------------
 Input file generated by CHIRIPA (05-May-2021 14:57:26)
 ------------------------------------------------------
 Symbolic Z-matrix:
 Charge =  0 Multiplicity = 1

                         Standard orientation:
 ---------------------------------------------------------------------
 Center     Atomic      Atomic             Coordinates (Angstroms)
 Number     Number       Type             X           Y           Z
 ---------------------------------------------------------------------
      1          6           0        2.648731    2.431374    0.194458
      2          6           0        2.398147    1.538647    1.241725
      3          6           0        2.862137    0.221369    1.178161
      4          6           0        3.576604   -0.171261    0.047379
      5          6           0        3.842392    0.694629   -1.012282
      6          6           0        3.368784    2.007263   -0.927225
      7          1           0        2.284556    3.452863    0.252185
      8          1           0        1.839216    1.865250    2.114062
      9          1           0        2.682372   -0.490535    1.974587
     10          1           0        4.402427    0.339895   -1.868987
     11          1           0        3.564882    2.698388   -1.742049
     12          7           0        4.072900   -1.563346   -0.031291
     13          8           0        4.699927   -1.884635   -1.038389
     14          8           0        3.825472   -2.306815    0.915636
     15          6           0       -1.059735    0.601181   -0.020406
     16          6           0       -1.418606   -0.750505   -0.046392
     17          6           0       -2.764706   -1.127425   -0.068669
     18          6           0       -3.730221   -0.121915   -0.064205
     19          6           0       -3.404407    1.233252   -0.038562
     20          6           0       -2.052031    1.587008   -0.016581
     21          1           0       -0.011614    0.884984   -0.003216
     22          1           0       -0.650115   -1.518267   -0.049424
     23          1           0       -3.070537   -2.166401   -0.089005
     24          1           0       -4.193022    1.975881   -0.036176
     25          1           0       -1.776262    2.637526    0.003578
     26          7           0       -5.158599   -0.508681   -0.087632
     27          8           0       -5.990186    0.396349   -0.083163
     28          8           0       -5.419529   -1.709536   -0.110020
 ---------------------------------------------------------------------

 SCF Done:  E(RHF) =  -868.337260961     A.U. after   16 cycles
 E2 =    -0.2601424935D+01 EUMP2 =    -0.87093868589579D+03

 The electronic state is 1-A.
 Alpha  occ. eigenvalues --  -20.61787 -20.61772 -20.60851 -20.60841 -15.86842
 Alpha  occ. eigenvalues --  -15.85905 -11.32431 -11.31287 -11.29013 -11.28952
 Alpha  occ. eigenvalues --  -11.28776 -11.28062 -11.28010 -11.27909 -11.27840
 Alpha  occ. eigenvalues --  -11.27465 -11.26935 -11.26808  -1.60857  -1.59925
 Alpha  occ. eigenvalues --   -1.40402  -1.39477  -1.20637  -1.19466  -1.09986
 Alpha  occ. eigenvalues --   -1.08847  -1.06039  -1.04879  -0.96767  -0.95679
 Alpha  occ. eigenvalues --   -0.87411  -0.86273  -0.83573  -0.82517  -0.78586
 Alpha  occ. eigenvalues --   -0.77569  -0.73045  -0.72196  -0.72120  -0.71682
 Alpha  occ. eigenvalues --   -0.71250  -0.70579  -0.66248  -0.65986  -0.65111
 Alpha  occ. eigenvalues --   -0.64898  -0.63332  -0.62230  -0.56506  -0.55755
 Alpha  occ. eigenvalues --   -0.54080  -0.53979  -0.53208  -0.52965  -0.49824
 Alpha  occ. eigenvalues --   -0.49793  -0.48882  -0.48874  -0.45756  -0.44879
 Alpha  occ. eigenvalues --   -0.38638  -0.37749  -0.37333  -0.36499
 Alpha virt. eigenvalues --    0.03897   0.04977   0.09918   0.11151   0.15304
 Alpha virt. eigenvalues --    0.16497   0.20127   0.21585   0.26245   0.26609
 Alpha virt. eigenvalues --    0.27639   0.28641   0.29890   0.31195   0.31547

 Mulliken charges:
               1
     1  C   -0.176557
     2  C   -0.231873
     3  C   -0.174716
     4  C    0.158632
     5  C   -0.170187
     6  C   -0.216816
     7  H    0.228764
     8  H    0.229416
     9  H    0.279736
    10  H    0.280127
    11  H    0.228668
    12  N    0.487504
    13  O   -0.456060
    14  O   -0.458444
    15  C   -0.180804
    16  C   -0.223923
    17  C   -0.170044
    18  C    0.157790
    19  C   -0.170418
    20  C   -0.223159
    21  H    0.238559
    22  H    0.227323
    23  H    0.277304
    24  H    0.274776
    25  H    0.216799
    26  N    0.488012
    27  O   -0.461140
    28  O   -0.459269
 Sum of Mulliken charges =  -0.00000

 Dipole moment (field-independent basis, Debye):
    X=              3.6638    Y=              6.1747    Z=              0.3108  Tot=              7.1866
 Quadrupole moment (field-independent basis, Debye-Ang):
   XX=           -154.0218   YY=           -102.4195   ZZ=           -101.5821
   XY=             11.5315   XZ=             -2.0043   YZ=             -0.8845

 Normal termination of Gaussian 16 at Thu May  6 06:48:46 2021.
