 Gaussian 16, Revision A.03,
 Gaussian 16:  EM64L-G16RevA.03 25-Dec-2016

 -------------
 #p 6-31g* mp2
 -------------

 ------------------------------------------------------
 Input file generated by CHIRIPA (05-May-2021 14:57:25)
 ------------------------------------------------------
 Symbolic Z-matrix:
 Charge =  0 Multiplicity = 1

                         Standard orientation:
 ---------------------------------------------------------------------
 Center     Atomic      Atomic             Coordinates (Angstroms)
 Number     Number       Type             X           Y           Z
 ---------------------------------------------------------------------
      1          6           0        4.692035    2.427302    0.058089
      2          6           0        3.397500    2.113382    0.484883
      3          6           0        2.941067    0.792260    0.455684
      4          6           0        3.809651   -0.194389   -0.008403
      5          6           0        5.104916    0.086697   -0.440338
      6          6           0        5.540117    1.414742   -0.402347
      7          1           0        5.038356    3.456271    0.084186
      8          1           0        2.736684    2.897697    0.842958
      9          1           0        1.943724    0.521280    0.780174
     10          1           0        5.740632   -0.716772   -0.792077
     11          1           0        6.545978    1.655606   -0.734422
     12          7           0        3.337685   -1.596667   -0.043968
     13          8           0        4.122341   -2.447649   -0.457226
     14          8           0        2.192039   -1.818239    0.342088
     15          6           0       -1.843039   -1.480535    0.321555
     16          6           0       -3.102467   -2.072131    0.178817
     17          6           0       -4.242097   -1.281968    0.001518
     18          6           0       -4.085081    0.102859   -0.028300
     19          6           0       -2.843912    0.722027    0.111057
     20          6           0       -1.718001   -0.087800    0.287281
     21          1           0       -0.963076   -2.101989    0.458868
     22          1           0       -3.202574   -3.153490    0.205034
     23          1           0       -5.229132   -1.713716   -0.111507
     24          1           0       -2.775734    1.802697    0.080701
     25          1           0       -0.741173    0.374394    0.397869
     26          7           0       -5.284294    0.949778   -0.215428
     27          8           0       -5.119273    2.167517   -0.238134
     28          8           0       -6.366551    0.379816   -0.335851
 ---------------------------------------------------------------------

 SCF Done:  E(RHF) =  -868.339297042     A.U. after   16 cycles
 E2 =    -0.2599089498D+01 EUMP2 =    -0.87093838653973D+03

 The electronic state is 1-A.
 Alpha  occ. eigenvalues --  -20.61874 -20.61809 -20.60505 -20.60495 -15.86889
 Alpha  occ. eigenvalues --  -15.85557 -11.32065 -11.30791 -11.28694 -11.28547
 Alpha  occ. eigenvalues --  -11.28252 -11.27583 -11.27516 -11.27431 -11.27356
 Alpha  occ. eigenvalues --  -11.26873 -11.26378 -11.26238  -1.60899  -1.59583
 Alpha  occ. eigenvalues --   -1.40466  -1.39140  -1.20201  -1.18951  -1.09618
 Alpha  occ. eigenvalues --   -1.08320  -1.05585  -1.04364  -0.96497  -0.95178
 Alpha  occ. eigenvalues --   -0.86988  -0.85740  -0.83347  -0.82043  -0.78431
 Alpha  occ. eigenvalues --   -0.77153  -0.73130  -0.72202  -0.71774  -0.71310
 Alpha  occ. eigenvalues --   -0.70907  -0.69912  -0.65859  -0.65589  -0.64586
 Alpha  occ. eigenvalues --   -0.64377  -0.62951  -0.61730  -0.56060  -0.54666
 Alpha  occ. eigenvalues --   -0.53904  -0.53681  -0.52670  -0.52446  -0.49890
 Alpha  occ. eigenvalues --   -0.49828  -0.48539  -0.48520  -0.45910  -0.44577
 Alpha  occ. eigenvalues --   -0.38140  -0.37173  -0.36846  -0.35992
 Alpha virt. eigenvalues --    0.04103   0.05423   0.10469   0.11684   0.15658
 Alpha virt. eigenvalues --    0.16965   0.18711   0.22050   0.24858   0.27027
 Alpha virt. eigenvalues --    0.28604   0.29105   0.30589   0.30872   0.32309

 Mulliken charges:
               1
     1  C   -0.169591
     2  C   -0.219274
     3  C   -0.175075
     4  C    0.158568
     5  C   -0.169362
     6  C   -0.218098
     7  H    0.229243
     8  H    0.225069
     9  H    0.272999
    10  H    0.277625
    11  H    0.226760
    12  N    0.492321
    13  O   -0.454044
    14  O   -0.475120
    15  C   -0.176253
    16  C   -0.220216
    17  C   -0.170694
    18  C    0.157508
    19  C   -0.172461
    20  C   -0.221244
    21  H    0.249442
    22  H    0.224948
    23  H    0.274446
    24  H    0.271364
    25  H    0.217200
    26  N    0.488324
    27  O   -0.463297
    28  O   -0.461086
 Sum of Mulliken charges =  -0.00000

 Dipole moment (field-independent basis, Debye):
    X=              6.3728    Y=              1.8343    Z=              0.7371  Tot=              6.6724
 Quadrupole moment (field-independent basis, Debye-Ang):
   XX=           -120.6437   YY=           -103.7543   ZZ=           -105.8554
   XY=             33.3564   XZ=             -4.3436   YZ=              0.9274

 Normal termination of Gaussian 16 at Fri May  7 11:08:25 2021.
