 Gaussian 16, Revision A.03,
 Gaussian 16:  EM64L-G16RevA.03 25-Dec-2016

 -------------
 #p 6-31g* mp2
 -------------

 ------------------------------------------------------
 Input file generated by CHIRIPA (05-May-2021 14:53:17)
 ------------------------------------------------------
 Symbolic Z-matrix:
 Charge =  0 Multiplicity = 1

                         Standard orientation:
 ---------------------------------------------------------------------
 Center     Atomic      Atomic             Coordinates (Angstroms)
 Number     Number       Type             X           Y           Z
 ---------------------------------------------------------------------
      1          6           0        3.838909    0.399165   -0.097548
      2          6           0        3.842278    1.913521    0.113873
      3          6           0        2.437234    2.516240    0.094489
      4          1           0        3.353374    0.170243   -1.056086
      5          1           0        3.226116   -0.071735    0.683562
      6          1           0        4.456013    2.381308   -0.666589
      7          1           0        4.328033    2.138877    1.071930
      8          1           0        1.818584    2.076705    0.883591
      9          1           0        1.947290    2.320514   -0.864806
     10          1           0        2.462997    3.599658    0.247465
     11          6           0        5.236256   -0.217980   -0.080742
     12          6           0        5.232887   -1.732336   -0.292162
     13          6           0        6.637931   -2.335055   -0.272779
     14          1           0        5.849049    0.252921   -0.861852
     15          1           0        5.721791    0.010942    0.877796
     16          1           0        4.747132   -1.957692   -1.250219
     17          1           0        4.619152   -2.200123    0.488300
     18          1           0        7.127875   -2.139329    0.686517
     19          1           0        7.256582   -1.895520   -1.061880
     20          1           0        6.612169   -3.418473   -0.425754
     21          6           0       -1.462590    1.277927    0.528496
     22          6           0       -1.726312    0.122719    1.271775
     23          6           0       -2.877026   -0.632317    1.026159
     24          6           0       -3.746305   -0.201163    0.025284
     25          6           0       -3.511280    0.945214   -0.732259
     26          6           0       -2.354342    1.684771   -0.469390
     27          1           0       -0.566270    1.858445    0.725998
     28          1           0       -1.035540   -0.195628    2.047362
     29          1           0       -3.105658   -1.530687    1.586584
     30          1           0       -4.218583    1.237408   -1.498916
     31          1           0       -2.152097    2.581497   -1.048202
     32          7           0       -4.967808   -0.992292   -0.243871
     33          8           0       -5.717849   -0.591213   -1.131120
     34          8           0       -5.152051   -1.998479    0.437509
 ---------------------------------------------------------------------

 SCF Done:  E(RHF) =  -669.535502155     A.U. after   15 cycles
 E2 =    -0.2090869970D+01 EUMP2 =    -0.67162637212500D+03

 The electronic state is 1-A.
 Alpha  occ. eigenvalues --  -20.60703 -20.60698 -15.85757 -11.31101 -11.27680
 Alpha  occ. eigenvalues --  -11.27675 -11.27348 -11.26678 -11.26664 -11.22530
 Alpha  occ. eigenvalues --  -11.22353 -11.22160 -11.22095 -11.21969 -11.21470
 Alpha  occ. eigenvalues --   -1.59780  -1.39334  -1.19273  -1.09151  -1.08664
 Alpha  occ. eigenvalues --   -1.04678  -1.04284  -0.96763  -0.95503  -0.87790
 Alpha  occ. eigenvalues --   -0.86073  -0.82344  -0.80366  -0.78923  -0.77397
 Alpha  occ. eigenvalues --   -0.71975  -0.71103  -0.70380  -0.65778  -0.64923
 Alpha  occ. eigenvalues --   -0.64686  -0.62031  -0.61683  -0.60137  -0.58364
 Alpha  occ. eigenvalues --   -0.56103  -0.55181  -0.53444  -0.53146  -0.52987
 Alpha  occ. eigenvalues --   -0.52769  -0.50706  -0.48748  -0.48731  -0.48642
 Alpha  occ. eigenvalues --   -0.47378  -0.46474  -0.46371  -0.44744  -0.44516
 Alpha  occ. eigenvalues --   -0.37237  -0.36290
 Alpha virt. eigenvalues --    0.05140   0.11362   0.16619   0.20345   0.22313
 Alpha virt. eigenvalues --    0.23772   0.25496   0.26058   0.26921   0.27379
 Alpha virt. eigenvalues --    0.28993   0.30370   0.30867   0.31087   0.32007

 Mulliken charges:
               1
     1  C   -0.298465
     2  C   -0.299575
     3  C   -0.480675
     4  H    0.151630
     5  H    0.146662
     6  H    0.155917
     7  H    0.154448
     8  H    0.146119
     9  H    0.156756
    10  H    0.163938
    11  C   -0.298930
    12  C   -0.300089
    13  C   -0.476132
    14  H    0.151115
    15  H    0.150414
    16  H    0.153246
    17  H    0.151662
    18  H    0.155568
    19  H    0.156023
    20  H    0.162014
    21  C   -0.175788
    22  C   -0.220932
    23  C   -0.170780
    24  C    0.158045
    25  C   -0.170756
    26  C   -0.221262
    27  H    0.236959
    28  H    0.222309
    29  H    0.275205
    30  H    0.275193
    31  H    0.223568
    32  N    0.488069
    33  O   -0.460721
    34  O   -0.460756
 Sum of Mulliken charges =  -0.00000

 Dipole moment (field-independent basis, Debye):
    X=              4.5663    Y=              2.7954    Z=              0.8944  Tot=              5.4282
 Quadrupole moment (field-independent basis, Debye-Ang):
   XX=           -127.5164   YY=            -94.4247   ZZ=            -91.5340
   XY=            -11.7387   XZ=             -2.5608   YZ=             -3.0396

 Normal termination of Gaussian 16 at Thu May  6 04:22:48 2021.
