 Gaussian 16, Revision A.03,
 Gaussian 16:  EM64L-G16RevA.03 25-Dec-2016

 -------------
 #p 6-31g* mp2
 -------------

 ------------------------------------------------------
 Input file generated by CHIRIPA (05-May-2021 14:55:23)
 ------------------------------------------------------
 Symbolic Z-matrix:
 Charge =  0 Multiplicity = 1

                         Standard orientation:
 ---------------------------------------------------------------------
 Center     Atomic      Atomic             Coordinates (Angstroms)
 Number     Number       Type             X           Y           Z
 ---------------------------------------------------------------------
      1          6           0        1.656393   -1.914506    1.821553
      2          6           0        1.399755   -0.543638    1.928217
      3          6           0        1.811805    0.336178    0.922888
      4          6           0        2.481071   -0.191463   -0.180275
      5          6           0        2.751559   -1.552292   -0.315442
      6          6           0        2.330288   -2.413578    0.702038
      7          1           0        1.332721   -2.590771    2.607236
      8          1           0        0.876598   -0.153240    2.796515
      9          1           0        1.626177    1.401871    0.979967
     10          1           0        3.275164   -1.911830   -1.192931
     11          1           0        2.530965   -3.477750    0.616529
     12          7           0        2.922170    0.730151   -1.251004
     13          8           0        3.510024    0.240283   -2.212822
     14          8           0        2.671699    1.924928   -1.108148
     15          6           0       -3.350716   -0.275741   -0.001812
     16          6           0       -4.376965   -0.528437   -1.106774
     17          6           0       -4.903835   -1.963778   -1.107222
     18          1           0       -2.512365   -0.975541   -0.121781
     19          1           0       -3.807984   -0.499769    0.971899
     20          1           0       -3.918331   -0.302675   -2.078012
     21          1           0       -5.212881    0.172173   -0.984275
     22          1           0       -5.386148   -2.197403   -0.152553
     23          1           0       -4.084243   -2.674949   -1.252504
     24          1           0       -5.636079   -2.122402   -1.905041
     25          6           0       -2.814717    1.154732    0.011556
     26          6           0       -1.788467    1.407427    1.116518
     27          6           0       -1.261597    2.842768    1.116967
     28          1           0       -2.357449    1.378759   -0.962155
     29          1           0       -3.653068    1.854531    0.131525
     30          1           0       -0.952552    0.706817    0.994019
     31          1           0       -2.247101    1.181665    2.087756
     32          1           0       -2.081189    3.553939    1.262248
     33          1           0       -0.779284    3.076393    0.162297
     34          1           0       -0.529353    3.001393    1.914786
 ---------------------------------------------------------------------

 SCF Done:  E(RHF) =  -669.534451868     A.U. after   15 cycles
 E2 =    -0.2093588356D+01 EUMP2 =    -0.67162804022406D+03

 The electronic state is 1-A.
 Alpha  occ. eigenvalues --  -20.60825 -20.60820 -15.85876 -11.31238 -11.27807
 Alpha  occ. eigenvalues --  -11.27776 -11.27544 -11.26824 -11.26795 -11.21829
 Alpha  occ. eigenvalues --  -11.21737 -11.21589 -11.21522 -11.21363 -11.21237
 Alpha  occ. eigenvalues --   -1.59899  -1.39452  -1.19426  -1.08813  -1.08633
 Alpha  occ. eigenvalues --   -1.04844  -1.03752  -0.96209  -0.95643  -0.87215
 Alpha  occ. eigenvalues --   -0.86212  -0.82491  -0.79831  -0.78462  -0.77515
 Alpha  occ. eigenvalues --   -0.72094  -0.71225  -0.70525  -0.65305  -0.65050
 Alpha  occ. eigenvalues --   -0.64810  -0.62250  -0.61098  -0.59578  -0.57823
 Alpha  occ. eigenvalues --   -0.55502  -0.55279  -0.53211  -0.52954  -0.52855
 Alpha  occ. eigenvalues --   -0.52605  -0.50113  -0.48853  -0.48848  -0.48140
 Alpha  occ. eigenvalues --   -0.46849  -0.45993  -0.45901  -0.44855  -0.44005
 Alpha  occ. eigenvalues --   -0.37407  -0.36302
 Alpha virt. eigenvalues --    0.04977   0.11176   0.16387   0.20430   0.22843
 Alpha virt. eigenvalues --    0.23866   0.26342   0.26517   0.27179   0.28077
 Alpha virt. eigenvalues --    0.29560   0.30562   0.31320   0.31691   0.32413

 Mulliken charges:
               1
     1  C   -0.171697
     2  C   -0.218527
     3  C   -0.175136
     4  C    0.157976
     5  C   -0.171278
     6  C   -0.218813
     7  H    0.226162
     8  H    0.226688
     9  H    0.282725
    10  H    0.275707
    11  H    0.223713
    12  N    0.487972
    13  O   -0.460167
    14  O   -0.460548
    15  C   -0.298700
    16  C   -0.300049
    17  C   -0.475705
    18  H    0.149538
    19  H    0.147175
    20  H    0.154318
    21  H    0.152556
    22  H    0.154080
    23  H    0.154321
    24  H    0.161358
    25  C   -0.297621
    26  C   -0.311508
    27  C   -0.481600
    28  H    0.154247
    29  H    0.150303
    30  H    0.157834
    31  H    0.147021
    32  H    0.159084
    33  H    0.167496
    34  H    0.151076
 Sum of Mulliken charges =  -0.00000

 Dipole moment (field-independent basis, Debye):
    X=             -1.5368    Y=             -3.2360    Z=              3.6767  Tot=              5.1334
 Quadrupole moment (field-independent basis, Debye-Ang):
   XX=           -102.1289   YY=            -91.5499   ZZ=            -95.0844
   XY=            -10.3619   XZ=              8.3131   YZ=              1.8642

 Normal termination of Gaussian 16 at Wed May  5 19:04:58 2021.
