 Gaussian 16, Revision A.03,
 Gaussian 16:  EM64L-G16RevA.03 25-Dec-2016

 -------------
 #p 6-31g* mp2
 -------------

 ------------------------------------------------------
 Input file generated by CHIRIPA (05-May-2021 14:53:14)
 ------------------------------------------------------
 Symbolic Z-matrix:
 Charge =  0 Multiplicity = 1

                         Standard orientation:
 ---------------------------------------------------------------------
 Center     Atomic      Atomic             Coordinates (Angstroms)
 Number     Number       Type             X           Y           Z
 ---------------------------------------------------------------------
      1          6           0       -3.487016    0.335032    0.057156
      2          6           0       -3.791742   -0.844906   -0.866355
      3          6           0       -4.995883   -1.664219   -0.400988
      4          1           0       -3.306134   -0.040351    1.073677
      5          1           0       -4.372124    0.983477    0.116304
      6          1           0       -2.905856   -1.490197   -0.924836
      7          1           0       -3.971732   -0.466688   -1.880836
      8          1           0       -5.894176   -1.039718   -0.360138
      9          1           0       -4.822243   -2.069043    0.601293
     10          1           0       -5.195913   -2.502577   -1.075527
     11          6           0       -2.285875    1.163679   -0.394874
     12          6           0       -1.981149    2.343617    0.528638
     13          6           0       -0.777009    3.162929    0.063271
     14          1           0       -1.400767    0.515234   -0.454021
     15          1           0       -2.466758    1.539062   -1.411394
     16          1           0       -1.801159    1.965398    1.543118
     17          1           0       -2.867036    2.988908    0.587119
     18          1           0       -0.950648    3.567753   -0.939011
     19          1           0        0.121285    2.538429    0.022421
     20          1           0       -0.576978    4.001288    0.737810
     21          6           0        3.883872    1.193283   -0.609011
     22          6           0        4.011130   -0.115190   -1.086742
     23          6           0        3.114355   -1.108826   -0.682973
     24          6           0        2.097566   -0.757393    0.203552
     25          6           0        1.944556    0.537301    0.697156
     26          6           0        2.852809    1.514785    0.279846
     27          1           0        4.584967    1.958890   -0.927928
     28          1           0        4.810897   -0.367750   -1.777126
     29          1           0        3.189738   -2.129716   -1.037259
     30          1           0        1.137091    0.758744    1.384454
     31          1           0        2.751554    2.530133    0.652487
     32          7           0        1.142115   -1.800762    0.638171
     33          8           0        0.254949   -1.465552    1.419969
     34          8           0        1.298489   -2.934009    0.188799
 ---------------------------------------------------------------------

 SCF Done:  E(RHF) =  -669.535149311     A.U. after   15 cycles
 E2 =    -0.2093840946D+01 EUMP2 =    -0.67162899025658D+03

 The electronic state is 1-A.
 Alpha  occ. eigenvalues --  -20.60971 -20.60965 -15.85999 -11.31309 -11.27868
 Alpha  occ. eigenvalues --  -11.27852 -11.27591 -11.26871 -11.26845 -11.21524
 Alpha  occ. eigenvalues --  -11.21282 -11.20995 -11.20895 -11.20746 -11.20387
 Alpha  occ. eigenvalues --   -1.60028  -1.39584  -1.19484  -1.08880  -1.08006
 Alpha  occ. eigenvalues --   -1.04888  -1.03189  -0.95742  -0.95646  -0.86693
 Alpha  occ. eigenvalues --   -0.86270  -0.82564  -0.79285  -0.77783  -0.77597
 Alpha  occ. eigenvalues --   -0.72220  -0.71344  -0.70593  -0.65142  -0.64904
 Alpha  occ. eigenvalues --   -0.64604  -0.62280  -0.60534  -0.59075  -0.57250
 Alpha  occ. eigenvalues --   -0.55386  -0.54964  -0.53215  -0.52958  -0.52387
 Alpha  occ. eigenvalues --   -0.52061  -0.49620  -0.48973  -0.48963  -0.47586
 Alpha  occ. eigenvalues --   -0.46306  -0.45403  -0.45231  -0.44830  -0.43406
 Alpha  occ. eigenvalues --   -0.37452  -0.36394
 Alpha virt. eigenvalues --    0.04863   0.11095   0.16242   0.20543   0.23109
 Alpha virt. eigenvalues --    0.24547   0.26741   0.27050   0.27893   0.28314
 Alpha virt. eigenvalues --    0.29185   0.30539   0.31572   0.31855   0.32527

 Mulliken charges:
               1
     1  C   -0.298369
     2  C   -0.300998
     3  C   -0.475933
     4  H    0.158459
     5  H    0.145364
     6  H    0.160544
     7  H    0.147281
     8  H    0.151565
     9  H    0.159251
    10  H    0.159286
    11  C   -0.298561
    12  C   -0.301218
    13  C   -0.484605
    14  H    0.152736
    15  H    0.146297
    16  H    0.153647
    17  H    0.152720
    18  H    0.157167
    19  H    0.152480
    20  H    0.155914
    21  C   -0.171086
    22  C   -0.218423
    23  C   -0.171006
    24  C    0.156829
    25  C   -0.172355
    26  C   -0.217595
    27  H    0.226443
    28  H    0.224013
    29  H    0.275902
    30  H    0.279398
    31  H    0.226574
    32  N    0.488035
    33  O   -0.460961
    34  O   -0.458793
 Sum of Mulliken charges =  -0.00000

 Dipole moment (field-independent basis, Debye):
    X=              3.4761    Y=              3.4802    Z=             -1.4889  Tot=              5.1393
 Quadrupole moment (field-independent basis, Debye-Ang):
   XX=            -80.2748   YY=            -98.9298   ZZ=            -94.1551
   XY=              2.7699   XZ=             -3.9818   YZ=              3.8521

 Normal termination of Gaussian 16 at Thu May  6 20:21:39 2021.
