 Gaussian 16, Revision A.03,
 Gaussian 16:  EM64L-G16RevA.03 25-Dec-2016

 -------------
 #p 6-31g* mp2
 -------------

 ------------------------------------------------------
 Input file generated by CHIRIPA (05-May-2021 14:55:19)
 ------------------------------------------------------
 Symbolic Z-matrix:
 Charge =  0 Multiplicity = 1

                         Standard orientation:
 ---------------------------------------------------------------------
 Center     Atomic      Atomic             Coordinates (Angstroms)
 Number     Number       Type             X           Y           Z
 ---------------------------------------------------------------------
      1          6           0       -2.842210    2.560918    0.020504
      2          6           0       -2.762334    1.786156   -1.141342
      3          6           0       -2.855137    0.392844   -1.073398
      4          6           0       -3.028382   -0.195284    0.178554
      5          6           0       -3.111602    0.549366    1.354079
      6          6           0       -3.016282    1.941143    1.262317
      7          1           0       -2.769140    3.642680   -0.041528
      8          1           0       -2.627164    2.264765   -2.107110
      9          1           0       -2.796510   -0.231008   -1.957021
     10          1           0       -3.246528    0.043643    2.302476
     11          1           0       -3.078651    2.540312    2.166281
     12          7           0       -3.127961   -1.669509    0.263091
     13          8           0       -3.280435   -2.163485    1.378158
     14          8           0       -3.051651   -2.303114   -0.787318
     15          6           0        3.361763   -0.209444   -0.774459
     16          6           0        1.905482    0.055026   -0.390682
     17          6           0        0.930081   -0.246524   -1.528863
     18          1           0        3.619665    0.399972   -1.651411
     19          1           0        3.467986   -1.259226   -1.081166
     20          1           0        1.802322    1.103641   -0.083468
     21          1           0        1.651075   -0.554947    0.485576
     22          1           0        1.003680   -1.296132   -1.831363
     23          1           0        1.155789    0.371880   -2.403639
     24          1           0       -0.105216   -0.050559   -1.232861
     25          6           0        4.348880    0.087369    0.353029
     26          6           0        5.805162   -0.177101   -0.030748
     27          6           0        6.780561    0.124448    1.107433
     28          1           0        4.242658    1.137151    0.659738
     29          1           0        4.090978   -0.522048    1.229982
     30          1           0        6.059569    0.432872   -0.907004
     31          1           0        5.908321   -1.225716   -0.337962
     32          1           0        6.554855   -0.493955    1.982209
     33          1           0        6.706962    1.174057    1.409934
     34          1           0        7.815860   -0.071516    0.811432
 ---------------------------------------------------------------------

 SCF Done:  E(RHF) =  -669.534993715     A.U. after   15 cycles
 E2 =    -0.2092248501D+01 EUMP2 =    -0.67162724221617D+03

 The electronic state is 1-A.
 Alpha  occ. eigenvalues --  -20.60796 -20.60788 -15.85849 -11.31237 -11.27811
 Alpha  occ. eigenvalues --  -11.27795 -11.27557 -11.26827 -11.26817 -11.21587
 Alpha  occ. eigenvalues --  -11.21570 -11.21382 -11.21318 -11.21069 -11.20946
 Alpha  occ. eigenvalues --   -1.59870  -1.39422  -1.19428  -1.08806  -1.08403
 Alpha  occ. eigenvalues --   -1.04835  -1.03498  -0.95956  -0.95635  -0.86977
 Alpha  occ. eigenvalues --   -0.86218  -0.82467  -0.79569  -0.78219  -0.77510
 Alpha  occ. eigenvalues --   -0.72066  -0.71198  -0.70525  -0.65071  -0.65032
 Alpha  occ. eigenvalues --   -0.64819  -0.62173  -0.60894  -0.59362  -0.57595
 Alpha  occ. eigenvalues --   -0.55321  -0.55232  -0.53441  -0.52913  -0.52490
 Alpha  occ. eigenvalues --   -0.52228  -0.49888  -0.48828  -0.48819  -0.47881
 Alpha  occ. eigenvalues --   -0.46598  -0.45760  -0.45685  -0.44824  -0.43770
 Alpha  occ. eigenvalues --   -0.37393  -0.36359
 Alpha virt. eigenvalues --    0.05009   0.11175   0.16499   0.21349   0.22896
 Alpha virt. eigenvalues --    0.24357   0.26677   0.27085   0.27531   0.27983
 Alpha virt. eigenvalues --    0.28447   0.30810   0.31457   0.31841   0.31936

 Mulliken charges:
               1
     1  C   -0.170916
     2  C   -0.215555
     3  C   -0.177286
     4  C    0.161972
     5  C   -0.171031
     6  C   -0.218091
     7  H    0.225910
     8  H    0.224445
     9  H    0.277484
    10  H    0.275884
    11  H    0.223751
    12  N    0.488344
    13  O   -0.460548
    14  O   -0.460101
    15  C   -0.298495
    16  C   -0.298244
    17  C   -0.483527
    18  H    0.148015
    19  H    0.151714
    20  H    0.148190
    21  H    0.154322
    22  H    0.160761
    23  H    0.149651
    24  H    0.163992
    25  C   -0.298197
    26  C   -0.299648
    27  C   -0.475678
    28  H    0.147605
    29  H    0.150796
    30  H    0.151192
    31  H    0.153031
    32  H    0.155756
    33  H    0.154190
    34  H    0.160312
 Sum of Mulliken charges =  -0.00000

 Dipole moment (field-independent basis, Debye):
    X=              0.2714    Y=              5.1679    Z=             -0.2747  Tot=              5.1823
 Quadrupole moment (field-independent basis, Debye-Ang):
   XX=            -98.3873   YY=            -96.4142   ZZ=            -90.4033
   XY=            -16.2763   XZ=             -0.1724   YZ=              0.9576

 Normal termination of Gaussian 16 at Thu May  6 01:18:39 2021.
