 Gaussian 16, Revision A.03,
 Gaussian 16:  EM64L-G16RevA.03 25-Dec-2016

 -------------
 #p 6-31g* mp2
 -------------

 ------------------------------------------------------
 Input file generated by CHIRIPA (05-May-2021 14:51:08)
 ------------------------------------------------------
 Symbolic Z-matrix:
 Charge =  0 Multiplicity = 1

                         Standard orientation:
 ---------------------------------------------------------------------
 Center     Atomic      Atomic             Coordinates (Angstroms)
 Number     Number       Type             X           Y           Z
 ---------------------------------------------------------------------
      1          6           0        2.421778   -1.135639    0.641871
      2          6           0        1.148620   -1.936620    0.367130
      3          6           0        0.636657   -2.675570    1.603917
      4          1           0        3.201293   -1.814468    1.014016
      5          1           0        2.225865   -0.413572    1.446627
      6          1           0        1.346485   -2.656013   -0.437817
      7          1           0        0.372104   -1.255836   -0.004586
      8          1           0        0.411676   -1.968886    2.409263
      9          1           0        1.391592   -3.377018    1.973571
     10          1           0       -0.274113   -3.241640    1.385008
     11          6           0        2.945841   -0.391349   -0.584962
     12          6           0        4.218999    0.409632   -0.310222
     13          6           0        4.730962    1.148582   -1.547008
     14          1           0        3.141753   -1.113416   -1.389718
     15          1           0        2.166326    0.287481   -0.957108
     16          1           0        4.995514   -0.271151    0.061495
     17          1           0        4.021134    1.129025    0.494725
     18          1           0        3.976026    1.850031   -1.916662
     19          1           0        4.955943    0.441899   -2.352355
     20          1           0        5.641732    1.714653   -1.328099
     21          6           0       -3.175777    0.535037   -0.566234
     22          6           0       -3.630043   -0.915004   -0.395909
     23          6           0       -4.614028   -1.357369   -1.479366
     24          1           0       -4.056109    1.192169   -0.554477
     25          1           0       -2.711120    0.652651   -1.554999
     26          1           0       -4.092461   -1.030171    0.592788
     27          1           0       -2.748510   -1.568742   -0.407881
     28          1           0       -4.159110   -1.271002   -2.471431
     29          1           0       -5.510697   -0.729370   -1.465075
     30          1           0       -4.925687   -2.397011   -1.338395
     31          6           0       -2.191842    0.991950    0.509326
     32          6           0       -1.737577    2.441991    0.339000
     33          6           0       -0.753591    2.884357    1.422458
     34          1           0       -2.656500    0.874338    1.498090
     35          1           0       -1.311509    0.334820    0.497568
     36          1           0       -2.619109    3.095729    0.350973
     37          1           0       -1.275159    2.557158   -0.649697
     38          1           0        0.143077    2.256358    1.408167
     39          1           0       -1.208509    2.797989    2.414522
     40          1           0       -0.441931    3.923999    1.281486
 ---------------------------------------------------------------------

 SCF Done:  E(RHF) =  -470.733404985     A.U. after   11 cycles
 E2 =    -0.1583517747D+01 EUMP2 =    -0.47231692273225D+03

 The electronic state is 1-A.
 Alpha  occ. eigenvalues --  -11.21652 -11.21644 -11.21631 -11.21613 -11.21455
 Alpha  occ. eigenvalues --  -11.21429 -11.21396 -11.21370 -11.21141 -11.21092
 Alpha  occ. eigenvalues --  -11.21091 -11.21078  -1.08494  -1.08446  -1.03569
 Alpha  occ. eigenvalues --   -1.03559  -0.96025  -0.95999  -0.87035  -0.87020
 Alpha  occ. eigenvalues --   -0.79647  -0.79611  -0.78349  -0.78220  -0.65301
 Alpha  occ. eigenvalues --   -0.64928  -0.61007  -0.60921  -0.59396  -0.59363
 Alpha  occ. eigenvalues --   -0.57637  -0.57609  -0.55388  -0.55217  -0.52714
 Alpha  occ. eigenvalues --   -0.52694  -0.52469  -0.52404  -0.50001  -0.49919
 Alpha  occ. eigenvalues --   -0.48003  -0.47908  -0.46800  -0.46632  -0.46062
 Alpha  occ. eigenvalues --   -0.45785  -0.45773  -0.45345  -0.43821  -0.43814
 Alpha virt. eigenvalues --    0.19276   0.22545   0.23927   0.24449   0.25925
 Alpha virt. eigenvalues --    0.26305   0.26977   0.27881   0.28313   0.29558
 Alpha virt. eigenvalues --    0.30546   0.31565   0.31713   0.31843   0.32357

 Mulliken charges:
               1
     1  C   -0.299068
     2  C   -0.307281
     3  C   -0.476039
     4  H    0.150236
     5  H    0.150014
     6  H    0.152368
     7  H    0.157387
     8  H    0.156122
     9  H    0.155346
    10  H    0.160744
    11  C   -0.298449
    12  C   -0.299733
    13  C   -0.475745
    14  H    0.149748
    15  H    0.148995
    16  H    0.152122
    17  H    0.152195
    18  H    0.155230
    19  H    0.155167
    20  H    0.160461
    21  C   -0.297708
    22  C   -0.301413
    23  C   -0.475718
    24  H    0.149850
    25  H    0.149341
    26  H    0.152119
    27  H    0.153380
    28  H    0.155301
    29  H    0.155221
    30  H    0.160304
    31  C   -0.307514
    32  C   -0.299153
    33  C   -0.476410
    34  H    0.149872
    35  H    0.158054
    36  H    0.152375
    37  H    0.151556
    38  H    0.154554
    39  H    0.155564
    40  H    0.160604
 Sum of Mulliken charges =  -0.00000

 Dipole moment (field-independent basis, Debye):
    X=             -0.0004    Y=             -0.0083    Z=              0.0100  Tot=              0.0130
 Quadrupole moment (field-independent basis, Debye-Ang):
   XX=            -84.5179   YY=            -84.5625   ZZ=            -85.5225
   XY=             -1.3653   XZ=             -0.7273   YZ=              0.5225

 Normal termination of Gaussian 16 at Thu May  6 00:31:11 2021.
