 Gaussian 16, Revision A.03,
 Gaussian 16:  EM64L-G16RevA.03 25-Dec-2016

 -------------
 #p 6-31g* mp2
 -------------

 ------------------------------------------------------
 Input file generated by CHIRIPA (05-May-2021 14:53:18)
 ------------------------------------------------------
 Symbolic Z-matrix:
 Charge =  0 Multiplicity = 1

                         Standard orientation:
 ---------------------------------------------------------------------
 Center     Atomic      Atomic             Coordinates (Angstroms)
 Number     Number       Type             X           Y           Z
 ---------------------------------------------------------------------
      1          6           0        2.650174    0.775629    0.279432
      2          6           0        3.114648    2.225003    0.132587
      3          6           0        2.198654    3.215141    0.852569
      4          1           0        1.627992    0.683362   -0.112457
      5          1           0        2.599855    0.520421    1.347014
      6          1           0        3.165405    2.476971   -0.934443
      7          1           0        4.135914    2.313789    0.524695
      8          1           0        2.155917    2.991766    1.923493
      9          1           0        1.179894    3.155874    0.456065
     10          1           0        2.549233    4.245207    0.734587
     11          6           0        3.555744   -0.226064   -0.434909
     12          6           0        3.091269   -1.675438   -0.288065
     13          6           0        4.007263   -2.665576   -1.008047
     14          1           0        3.606062    0.029145   -1.502491
     15          1           0        4.577925   -0.133797   -0.043021
     16          1           0        2.070003   -1.764224   -0.680173
     17          1           0        3.040512   -1.927405    0.778965
     18          1           0        5.026024   -2.606309   -0.611542
     19          1           0        4.050000   -2.442201   -2.078971
     20          1           0        3.656685   -3.695641   -0.890064
     21          6           0       -1.784680   -2.483505    0.960378
     22          6           0       -3.004033   -2.311851    0.296877
     23          6           0       -3.368699   -1.059262   -0.205705
     24          6           0       -2.486011    0.004668   -0.026241
     25          6           0       -1.264191   -0.134573    0.630309
     26          6           0       -0.920175   -1.396235    1.124687
     27          1           0       -1.509419   -3.460070    1.347609
     28          1           0       -3.677393   -3.154449    0.167815
     29          1           0       -4.306549   -0.898329   -0.723348
     30          1           0       -0.613767    0.724223    0.743606
     31          1           0        0.027433   -1.526605    1.639553
     32          7           0       -2.861136    1.335531   -0.553959
     33          8           0       -2.065914    2.256938   -0.382885
     34          8           0       -3.943280    1.432053   -1.128666
 ---------------------------------------------------------------------

 SCF Done:  E(RHF) =  -669.535851444     A.U. after   15 cycles
 E2 =    -0.2092867460D+01 EUMP2 =    -0.67162871890402D+03

 The electronic state is 1-A.
 Alpha  occ. eigenvalues --  -20.60802 -20.60797 -15.85849 -11.31168 -11.27745
 Alpha  occ. eigenvalues --  -11.27688 -11.27473 -11.26757 -11.26712 -11.22191
 Alpha  occ. eigenvalues --  -11.21907 -11.21812 -11.21738 -11.21552 -11.20973
 Alpha  occ. eigenvalues --   -1.59871  -1.39427  -1.19343  -1.08854  -1.08744
 Alpha  occ. eigenvalues --   -1.04735  -1.03852  -0.96284  -0.95587  -0.87302
 Alpha  occ. eigenvalues --   -0.86134  -0.82419  -0.79935  -0.78749  -0.77437
 Alpha  occ. eigenvalues --   -0.72068  -0.71192  -0.70456  -0.65492  -0.64991
 Alpha  occ. eigenvalues --   -0.64723  -0.62096  -0.61217  -0.59686  -0.57909
 Alpha  occ. eigenvalues --   -0.55555  -0.55242  -0.53091  -0.52954  -0.52869
 Alpha  occ. eigenvalues --   -0.52657  -0.50219  -0.48820  -0.48819  -0.48229
 Alpha  occ. eigenvalues --   -0.46956  -0.46203  -0.46125  -0.44838  -0.44133
 Alpha  occ. eigenvalues --   -0.37325  -0.36310
 Alpha virt. eigenvalues --    0.05018   0.11243   0.16466   0.20206   0.22800
 Alpha virt. eigenvalues --    0.23144   0.24979   0.25793   0.27226   0.28412
 Alpha virt. eigenvalues --    0.29631   0.30803   0.31392   0.31541   0.32200

 Mulliken charges:
               1
     1  C   -0.306319
     2  C   -0.298911
     3  C   -0.484576
     4  H    0.150910
     5  H    0.143352
     6  H    0.155939
     7  H    0.151914
     8  H    0.151158
     9  H    0.170350
    10  H    0.163636
    11  C   -0.297125
    12  C   -0.303799
    13  C   -0.475464
    14  H    0.153716
    15  H    0.151561
    16  H    0.154043
    17  H    0.145191
    18  H    0.156735
    19  H    0.158210
    20  H    0.158835
    21  C   -0.171487
    22  C   -0.218595
    23  C   -0.170745
    24  C    0.158158
    25  C   -0.176823
    26  C   -0.220755
    27  H    0.225748
    28  H    0.223343
    29  H    0.275395
    30  H    0.282488
    31  H    0.227872
    32  N    0.488556
    33  O   -0.462555
    34  O   -0.459956
 Sum of Mulliken charges =  -0.00000

 Dipole moment (field-independent basis, Debye):
    X=              1.3740    Y=             -4.5911    Z=              1.7538  Tot=              5.1031
 Quadrupole moment (field-independent basis, Debye-Ang):
   XX=            -97.6014   YY=            -94.9185   ZZ=            -94.5445
   XY=             14.2673   XZ=             -2.6197   YZ=              0.3083

 Normal termination of Gaussian 16 at Thu May  6 09:09:48 2021.
