 Gaussian 16, Revision A.03,
 Gaussian 16:  EM64L-G16RevA.03 25-Dec-2016

 -------------
 #p 6-31g* mp2
 -------------

 ------------------------------------------------------
 Input file generated by CHIRIPA (05-May-2021 14:51:11)
 ------------------------------------------------------
 Symbolic Z-matrix:
 Charge =  0 Multiplicity = 1

                         Standard orientation:
 ---------------------------------------------------------------------
 Center     Atomic      Atomic             Coordinates (Angstroms)
 Number     Number       Type             X           Y           Z
 ---------------------------------------------------------------------
      1          6           0        3.832569    0.079042   -0.540235
      2          6           0        3.080975    1.364070   -0.191248
      3          6           0        1.728110    1.467633   -0.896106
      4          1           0        3.979638    0.031702   -1.627928
      5          1           0        3.210629   -0.785878   -0.270979
      6          1           0        3.704721    2.226296   -0.459807
      7          1           0        2.935848    1.408450    0.895760
      8          1           0        1.084358    0.626303   -0.619795
      9          1           0        1.857599    1.448796   -1.983064
     10          1           0        1.207893    2.393755   -0.632419
     11          6           0        5.186851   -0.038985    0.156700
     12          6           0        5.938445   -1.324014   -0.192288
     13          6           0        7.291310   -1.427577    0.512570
     14          1           0        5.808791    0.825934   -0.112557
     15          1           0        5.039783    0.008354    1.244392
     16          1           0        6.083573   -1.368393   -1.279295
     17          1           0        5.314700   -2.186240    0.076272
     18          1           0        7.161821   -1.408740    1.599529
     19          1           0        7.935062   -0.586247    0.236260
     20          1           0        7.811527   -2.353699    0.248884
     21          6           0       -3.927902    0.433836   -0.005561
     22          6           0       -2.852950    0.546566    1.075992
     23          6           0       -1.695598    1.457942    0.666453
     24          1           0       -3.470644    0.055293   -0.929989
     25          1           0       -4.313424    1.436782   -0.235487
     26          1           0       -2.470548   -0.456447    1.304796
     27          1           0       -3.312858    0.924701    1.998008
     28          1           0       -2.057455    2.469877    0.457531
     29          1           0       -1.210359    1.080881   -0.239621
     30          1           0       -0.938657    1.524204    1.454177
     31          6           0       -5.091518   -0.473892    0.389096
     32          6           0       -6.166470   -0.586622   -0.692456
     33          6           0       -7.323822   -1.497998   -0.282917
     34          1           0       -4.705996   -1.476838    0.619023
     35          1           0       -5.548777   -0.095350    1.313523
     36          1           0       -5.706563   -0.964758   -1.614472
     37          1           0       -6.548872    0.416391   -0.921261
     38          1           0       -7.809061   -1.120937    0.623156
     39          1           0       -6.961967   -2.509933   -0.073995
     40          1           0       -8.080763   -1.564260   -1.070642
 ---------------------------------------------------------------------

 SCF Done:  E(RHF) =  -470.732518024     A.U. after   11 cycles
 E2 =    -0.1582550955D+01 EUMP2 =    -0.47231506897931D+03

 The electronic state is 1-A.
 Alpha  occ. eigenvalues --  -11.21592 -11.21584 -11.21553 -11.21547 -11.21385
 Alpha  occ. eigenvalues --  -11.21378 -11.21325 -11.21318 -11.21064 -11.21059
 Alpha  occ. eigenvalues --  -11.20956 -11.20943  -1.08411  -1.08393  -1.03531
 Alpha  occ. eigenvalues --   -1.03459  -0.96028  -0.95863  -0.87098  -0.86831
 Alpha  occ. eigenvalues --   -0.79672  -0.79454  -0.78235  -0.78196  -0.65071
 Alpha  occ. eigenvalues --   -0.65002  -0.61038  -0.60778  -0.59372  -0.59252
 Alpha  occ. eigenvalues --   -0.57574  -0.57535  -0.55499  -0.55015  -0.52835
 Alpha  occ. eigenvalues --   -0.52534  -0.52385  -0.52254  -0.50143  -0.49607
 Alpha  occ. eigenvalues --   -0.47919  -0.47829  -0.46732  -0.46423  -0.45791
 Alpha  occ. eigenvalues --   -0.45736  -0.45701  -0.45610  -0.43817  -0.43657
 Alpha virt. eigenvalues --    0.22409   0.22990   0.23682   0.24775   0.26408
 Alpha virt. eigenvalues --    0.26739   0.27026   0.27441   0.27639   0.29165
 Alpha virt. eigenvalues --    0.30340   0.31202   0.31468   0.31794   0.32255

 Mulliken charges:
               1
     1  C   -0.298482
     2  C   -0.299932
     3  C   -0.477694
     4  H    0.149526
     5  H    0.149330
     6  H    0.151599
     7  H    0.151632
     8  H    0.157398
     9  H    0.153726
    10  H    0.163371
    11  C   -0.298235
    12  C   -0.299613
    13  C   -0.475686
    14  H    0.149529
    15  H    0.149572
    16  H    0.151893
    17  H    0.151814
    18  H    0.155154
    19  H    0.155184
    20  H    0.160190
    21  C   -0.298354
    22  C   -0.300426
    23  C   -0.478295
    24  H    0.149669
    25  H    0.149498
    26  H    0.151078
    27  H    0.151416
    28  H    0.154055
    29  H    0.161801
    30  H    0.159544
    31  C   -0.298195
    32  C   -0.299624
    33  C   -0.475682
    34  H    0.149346
    35  H    0.149593
    36  H    0.151922
    37  H    0.151914
    38  H    0.155142
    39  H    0.155119
    40  H    0.160203
 Sum of Mulliken charges =  -0.00000

 Dipole moment (field-independent basis, Debye):
    X=              0.0057    Y=              0.0143    Z=             -0.0149  Tot=              0.0214
 Quadrupole moment (field-independent basis, Debye-Ang):
   XX=            -86.4090   YY=            -84.3512   ZZ=            -84.2603
   XY=             -0.5319   XZ=             -0.8018   YZ=              0.1258

 Normal termination of Gaussian 16 at Wed May  5 15:13:55 2021.
