 Gaussian 16, Revision A.03,
 Gaussian 16:  EM64L-G16RevA.03 25-Dec-2016

 -------------
 #p 6-31g* mp2
 -------------

 ------------------------------------------------------
 Input file generated by CHIRIPA (05-May-2021 14:51:08)
 ------------------------------------------------------
 Symbolic Z-matrix:
 Charge =  0 Multiplicity = 1

                         Standard orientation:
 ---------------------------------------------------------------------
 Center     Atomic      Atomic             Coordinates (Angstroms)
 Number     Number       Type             X           Y           Z
 ---------------------------------------------------------------------
      1          6           0        4.140065   -0.341458    0.017039
      2          6           0        5.478091   -0.695660   -0.632739
      3          6           0        5.908320   -2.135914   -0.352796
      4          1           0        4.213210   -0.499538    1.101754
      5          1           0        3.368443   -1.033205   -0.348312
      6          1           0        6.246677   -0.002578   -0.267324
      7          1           0        5.401810   -0.536535   -1.716010
      8          1           0        5.162569   -2.841548   -0.732976
      9          1           0        6.012235   -2.304556    0.723941
     10          1           0        6.867284   -2.367748   -0.826610
     11          6           0        3.696532    1.095088   -0.253778
     12          6           0        2.358506    1.449291    0.396000
     13          6           0        1.928277    2.889545    0.116057
     14          1           0        4.468153    1.786836    0.111574
     15          1           0        3.623386    1.253169   -1.338492
     16          1           0        2.434786    1.290166    1.479271
     17          1           0        1.589920    0.756208    0.030585
     18          1           0        1.824361    3.058187   -0.960679
     19          1           0        2.674028    3.595179    0.496237
     20          1           0        0.969312    3.121379    0.589871
     21          6           0       -3.170702   -0.256323    0.018309
     22          6           0       -2.303112   -0.893719    1.104127
     23          6           0       -0.809927   -0.643919    0.890141
     24          1           0       -2.868379   -0.650015   -0.961770
     25          1           0       -2.978822    0.825321   -0.006622
     26          1           0       -2.497591   -1.973638    1.127935
     27          1           0       -2.607664   -0.498608    2.081753
     28          1           0       -0.595411    0.429664    0.887672
     29          1           0       -0.484714   -1.053748   -0.071565
     30          1           0       -0.208285   -1.108291    1.677699
     31          6           0       -4.665895   -0.497307    0.218430
     32          6           0       -5.533484    0.140087   -0.867389
     33          6           0       -7.026670   -0.109712   -0.653402
     34          1           0       -4.857774   -1.578952    0.243361
     35          1           0       -4.968217   -0.103617    1.198508
     36          1           0       -5.228933   -0.255023   -1.845015
     37          1           0       -5.339004    1.220008   -0.891196
     38          1           0       -7.351882    0.300118    0.308304
     39          1           0       -7.241185   -1.183294   -0.650934
     40          1           0       -7.628311    0.354660   -1.440959
 ---------------------------------------------------------------------

 SCF Done:  E(RHF) =  -470.732667664     A.U. after   11 cycles
 E2 =    -0.1582937442D+01 EUMP2 =    -0.47231560510647D+03

 The electronic state is 1-A.
 Alpha  occ. eigenvalues --  -11.21608 -11.21594 -11.21557 -11.21422 -11.21414
 Alpha  occ. eigenvalues --  -11.21354 -11.21330 -11.21266 -11.21076 -11.21059
 Alpha  occ. eigenvalues --  -11.21039 -11.21028  -1.08440  -1.08353  -1.03557
 Alpha  occ. eigenvalues --   -1.03446  -0.96008  -0.95910  -0.87037  -0.86920
 Alpha  occ. eigenvalues --   -0.79728  -0.79423  -0.78283  -0.78120  -0.65071
 Alpha  occ. eigenvalues --   -0.64989  -0.60970  -0.60847  -0.59356  -0.59304
 Alpha  occ. eigenvalues --   -0.57684  -0.57462  -0.55293  -0.55188  -0.52721
 Alpha  occ. eigenvalues --   -0.52609  -0.52433  -0.52334  -0.49950  -0.49849
 Alpha  occ. eigenvalues --   -0.48102  -0.47710  -0.46662  -0.46494  -0.45893
 Alpha  occ. eigenvalues --   -0.45728  -0.45675  -0.45436  -0.43786  -0.43704
 Alpha virt. eigenvalues --    0.22105   0.22981   0.23566   0.24816   0.25856
 Alpha virt. eigenvalues --    0.26387   0.26957   0.27354   0.27760   0.29214
 Alpha virt. eigenvalues --    0.30702   0.31129   0.31514   0.31873   0.32406

 Mulliken charges:
               1
     1  C   -0.298176
     2  C   -0.299557
     3  C   -0.475631
     4  H    0.149389
     5  H    0.149561
     6  H    0.151834
     7  H    0.151752
     8  H    0.155052
     9  H    0.155079
    10  H    0.160069
    11  C   -0.297707
    12  C   -0.307066
    13  C   -0.476608
    14  H    0.148766
    15  H    0.148979
    16  H    0.150974
    17  H    0.163871
    18  H    0.154985
    19  H    0.155112
    20  H    0.159073
    21  C   -0.298298
    22  C   -0.300512
    23  C   -0.478011
    24  H    0.149388
    25  H    0.149456
    26  H    0.151710
    27  H    0.151922
    28  H    0.159523
    29  H    0.153564
    30  H    0.161368
    31  C   -0.298249
    32  C   -0.299643
    33  C   -0.475710
    34  H    0.149552
    35  H    0.149682
    36  H    0.151883
    37  H    0.151968
    38  H    0.155202
    39  H    0.155181
    40  H    0.160273
 Sum of Mulliken charges =  -0.00000

 Dipole moment (field-independent basis, Debye):
    X=             -0.0291    Y=             -0.0167    Z=              0.0079  Tot=              0.0344
 Quadrupole moment (field-independent basis, Debye-Ang):
   XX=            -86.2224   YY=            -85.1048   ZZ=            -83.7734
   XY=              0.3845   XZ=              0.3632   YZ=              0.8637

 Normal termination of Gaussian 16 at Thu May  6 05:17:17 2021.
