 Gaussian 16, Revision A.03,
 Gaussian 16:  EM64L-G16RevA.03 25-Dec-2016

 -------------
 #p 6-31g* mp2
 -------------

 ------------------------------------------------------
 Input file generated by CHIRIPA (05-May-2021 14:55:25)
 ------------------------------------------------------
 Symbolic Z-matrix:
 Charge =  0 Multiplicity = 1

                         Standard orientation:
 ---------------------------------------------------------------------
 Center     Atomic      Atomic             Coordinates (Angstroms)
 Number     Number       Type             X           Y           Z
 ---------------------------------------------------------------------
      1          6           0       -0.508337    0.556195    1.866731
      2          6           0       -1.483243    1.512930    1.565505
      3          6           0       -2.530026    1.208705    0.690152
      4          6           0       -2.571303   -0.067804    0.131483
      5          6           0       -1.615020   -1.042574    0.411904
      6          6           0       -0.577216   -0.716260    1.289986
      7          1           0        0.301342    0.801103    2.547786
      8          1           0       -1.432280    2.501942    2.011936
      9          1           0       -3.298037    1.930360    0.439571
     10          1           0       -1.692475   -2.019963   -0.048672
     11          1           0        0.178518   -1.461266    1.522100
     12          7           0       -3.674733   -0.401565   -0.796658
     13          8           0       -3.688596   -1.533354   -1.275718
     14          8           0       -4.504844    0.474941   -1.027501
     15          6           0        3.096887    0.734054   -0.105446
     16          6           0        2.831196    1.782985   -1.185787
     17          6           0        2.911536    3.213866   -0.652944
     18          1           0        2.371874    0.864582    0.709578
     19          1           0        4.090742    0.909158    0.329277
     20          1           0        1.838704    1.605109   -1.619301
     21          1           0        3.556804    1.649823   -1.998422
     22          1           0        3.904442    3.415242   -0.237992
     23          1           0        2.176580    3.370274    0.143284
     24          1           0        2.718363    3.947478   -1.441840
     25          6           0        3.020092   -0.701296   -0.622751
     26          6           0        3.285782   -1.750228    0.457589
     27          6           0        3.205442   -3.181108   -0.075253
     28          1           0        2.026237   -0.876401   -1.057474
     29          1           0        3.745105   -0.831823   -1.437775
     30          1           0        2.560175   -1.617065    1.270225
     31          1           0        4.278274   -1.572351    0.891104
     32          1           0        3.940398   -3.337517   -0.871481
     33          1           0        2.212536   -3.382485   -0.490205
     34          1           0        3.398615   -3.914721    0.713644
 ---------------------------------------------------------------------

 SCF Done:  E(RHF) =  -669.535282750     A.U. after   15 cycles
 E2 =    -0.2093333141D+01 EUMP2 =    -0.67162861589064D+03

 The electronic state is 1-A.
 Alpha  occ. eigenvalues --  -20.60825 -20.60820 -15.85880 -11.31274 -11.27842
 Alpha  occ. eigenvalues --  -11.27839 -11.27590 -11.26864 -11.26844 -11.22502
 Alpha  occ. eigenvalues --  -11.22093 -11.22045 -11.21990 -11.21828 -11.21594
 Alpha  occ. eigenvalues --   -1.59901  -1.39453  -1.19451  -1.09116  -1.08830
 Alpha  occ. eigenvalues --   -1.04855  -1.04198  -0.96629  -0.95670  -0.87648
 Alpha  occ. eigenvalues --   -0.86253  -0.82499  -0.80270  -0.78916  -0.77542
 Alpha  occ. eigenvalues --   -0.72097  -0.71224  -0.70563  -0.65874  -0.65099
 Alpha  occ. eigenvalues --   -0.64770  -0.62262  -0.61525  -0.60000  -0.58241
 Alpha  occ. eigenvalues --   -0.55948  -0.55343  -0.53329  -0.53189  -0.53041
 Alpha  occ. eigenvalues --   -0.52932  -0.50572  -0.48867  -0.48851  -0.48566
 Alpha  occ. eigenvalues --   -0.47308  -0.46465  -0.46352  -0.44852  -0.44437
 Alpha  occ. eigenvalues --   -0.37396  -0.36443
 Alpha virt. eigenvalues --    0.04950   0.11093   0.16319   0.19149   0.23070
 Alpha virt. eigenvalues --    0.23129   0.25337   0.26259   0.27178   0.27770
 Alpha virt. eigenvalues --    0.29753   0.30058   0.31110   0.31129   0.31807

 Mulliken charges:
               1
     1  C   -0.172145
     2  C   -0.219638
     3  C   -0.170853
     4  C    0.158977
     5  C   -0.173085
     6  C   -0.220636
     7  H    0.226356
     8  H    0.224083
     9  H    0.276059
    10  H    0.276097
    11  H    0.231002
    12  N    0.487987
    13  O   -0.460129
    14  O   -0.460118
    15  C   -0.299114
    16  C   -0.300440
    17  C   -0.475164
    18  H    0.143569
    19  H    0.149658
    20  H    0.156332
    21  H    0.154044
    22  H    0.155415
    23  H    0.150170
    24  H    0.163148
    25  C   -0.299939
    26  C   -0.301677
    27  C   -0.476663
    28  H    0.152541
    29  H    0.153507
    30  H    0.139332
    31  H    0.155737
    32  H    0.160369
    33  H    0.153734
    34  H    0.161485
 Sum of Mulliken charges =  -0.00000

 Dipole moment (field-independent basis, Debye):
    X=              3.9353    Y=              1.1787    Z=              3.1486  Tot=              5.1759
 Quadrupole moment (field-independent basis, Debye-Ang):
   XX=           -113.3404   YY=            -91.8229   ZZ=            -94.5205
   XY=             -5.4736   XZ=             -8.7969   YZ=              0.3373

 Normal termination of Gaussian 16 at Thu May  6 03:13:06 2021.
