 Gaussian 16, Revision A.03,
 Gaussian 16:  EM64L-G16RevA.03 25-Dec-2016

 -------------
 #p 6-31g* mp2
 -------------

 ------------------------------------------------------
 Input file generated by CHIRIPA (05-May-2021 14:57:25)
 ------------------------------------------------------
 Symbolic Z-matrix:
 Charge =  0 Multiplicity = 1

                         Standard orientation:
 ---------------------------------------------------------------------
 Center     Atomic      Atomic             Coordinates (Angstroms)
 Number     Number       Type             X           Y           Z
 ---------------------------------------------------------------------
      1          6           0        4.348100   -2.213576    0.300563
      2          6           0        3.185557   -1.766526    0.937087
      3          6           0        2.752345   -0.446703    0.779163
      4          6           0        3.509300    0.402908   -0.026114
      5          6           0        4.671862   -0.012699   -0.673424
      6          6           0        5.086240   -1.336781   -0.501247
      7          1           0        4.677314   -3.240501    0.428779
      8          1           0        2.610316   -2.445240    1.560377
      9          1           0        1.856130   -0.074317    1.260357
     10          1           0        5.224311    0.687229   -1.288500
     11          1           0        5.989483   -1.681210   -0.996794
     12          7           0        3.060646    1.802400   -0.200846
     13          8           0        3.745238    2.531192   -0.915573
     14          8           0        2.032896    2.144031    0.380235
     15          6           0       -6.058314    0.232382   -0.278757
     16          6           0       -5.292188    1.094079    0.513108
     17          6           0       -3.920001    0.879526    0.673164
     18          6           0       -3.343962   -0.211373    0.024006
     19          6           0       -4.080466   -1.087693   -0.771555
     20          6           0       -5.451078   -0.853839   -0.917435
     21          1           0       -7.123651    0.406549   -0.397586
     22          1           0       -5.761097    1.938454    1.010301
     23          1           0       -3.303238    1.530927    1.280371
     24          1           0       -3.584805   -1.920957   -1.254680
     25          1           0       -6.043583   -1.524689   -1.533019
     26          7           0       -1.892123   -0.448727    0.185946
     27          8           0       -1.408465   -1.416946   -0.396517
     28          8           0       -1.265320    0.337950    0.892271
 ---------------------------------------------------------------------

 SCF Done:  E(RHF) =  -868.339180492     A.U. after   16 cycles
 E2 =    -0.2599135090D+01 EUMP2 =    -0.87093831558213D+03

 The electronic state is 1-A.
 Alpha  occ. eigenvalues --  -20.60965 -20.60875 -20.59562 -20.59501 -15.85927
 Alpha  occ. eigenvalues --  -15.84582 -11.31186 -11.29871 -11.27765 -11.27711
 Alpha  occ. eigenvalues --  -11.27482 -11.26754 -11.26718 -11.26570 -11.26308
 Alpha  occ. eigenvalues --  -11.26281 -11.25589 -11.25420  -1.59977  -1.58618
 Alpha  occ. eigenvalues --   -1.39528  -1.38164  -1.19351  -1.18077  -1.08773
 Alpha  occ. eigenvalues --   -1.07512  -1.04737  -1.03460  -0.95623  -0.94339
 Alpha  occ. eigenvalues --   -0.86141  -0.84875  -0.82453  -0.81164  -0.77512
 Alpha  occ. eigenvalues --   -0.76190  -0.72150  -0.71276  -0.70806  -0.70462
 Alpha  occ. eigenvalues --   -0.69941  -0.69208  -0.65007  -0.64744  -0.63738
 Alpha  occ. eigenvalues --   -0.63486  -0.62082  -0.60783  -0.55254  -0.54037
 Alpha  occ. eigenvalues --   -0.53074  -0.52829  -0.51819  -0.51563  -0.48926
 Alpha  occ. eigenvalues --   -0.48911  -0.47589  -0.47537  -0.44947  -0.43584
 Alpha  occ. eigenvalues --   -0.37332  -0.36334  -0.36113  -0.35050
 Alpha virt. eigenvalues --    0.05018   0.06322   0.11322   0.12590   0.16528
 Alpha virt. eigenvalues --    0.17789   0.21456   0.22650   0.27380   0.28322
 Alpha virt. eigenvalues --    0.28592   0.29610   0.31027   0.32112   0.32601

 Mulliken charges:
               1
     1  C   -0.171198
     2  C   -0.218755
     3  C   -0.168369
     4  C    0.154262
     5  C   -0.172048
     6  C   -0.220056
     7  H    0.220845
     8  H    0.223526
     9  H    0.294181
    10  H    0.271248
    11  H    0.218111
    12  N    0.486984
    13  O   -0.468406
    14  O   -0.453741
    15  C   -0.170387
    16  C   -0.218719
    17  C   -0.170018
    18  C    0.157999
    19  C   -0.170872
    20  C   -0.218722
    21  H    0.225815
    22  H    0.224565
    23  H    0.279078
    24  H    0.274460
    25  H    0.223095
    26  N    0.489012
    27  O   -0.465257
    28  O   -0.456632
 Sum of Mulliken charges =  -0.00000

 Dipole moment (field-independent basis, Debye):
    X=             -4.0024    Y=             -4.0092    Z=              0.1984  Tot=              5.6685
 Quadrupole moment (field-independent basis, Debye-Ang):
   XX=            -59.0417   YY=           -107.0921   ZZ=           -102.5347
   XY=            -17.7337   XZ=              1.8091   YZ=              2.8294

 Normal termination of Gaussian 16 at Thu May  6 19:41:16 2021.
