 Gaussian 16, Revision A.03,
 Gaussian 16:  EM64L-G16RevA.03 25-Dec-2016

 -------------
 #p 6-31g* mp2
 -------------

 ------------------------------------------------------
 Input file generated by CHIRIPA (05-May-2021 14:55:23)
 ------------------------------------------------------
 Symbolic Z-matrix:
 Charge =  0 Multiplicity = 1

                         Standard orientation:
 ---------------------------------------------------------------------
 Center     Atomic      Atomic             Coordinates (Angstroms)
 Number     Number       Type             X           Y           Z
 ---------------------------------------------------------------------
      1          6           0        2.051317    2.207517    0.187972
      2          6           0        2.072130    1.270972    1.226708
      3          6           0        2.865953    0.123991    1.132759
      4          6           0        3.629921   -0.055513   -0.019379
      5          6           0        3.630545    0.859285   -1.071251
      6          6           0        2.829219    1.999051   -0.955676
      7          1           0        1.431741    3.095717    0.269354
      8          1           0        1.469025    1.430262    2.116054
      9          1           0        2.900914   -0.617201    1.921954
     10          1           0        4.242544    0.673020   -1.945425
     11          1           0        2.815031    2.724691   -1.763940
     12          7           0        4.474278   -1.265951   -0.130286
     13          8           0        5.138221   -1.400896   -1.155764
     14          8           0        4.456153   -2.056829    0.810364
     15          6           0       -3.862952    0.084509    0.382042
     16          6           0       -2.526420   -0.371327   -0.204373
     17          6           0       -1.325060    0.174591    0.567962
     18          1           0       -3.897751    1.182547    0.388737
     19          1           0       -3.923681   -0.236545    1.431153
     20          1           0       -2.468819   -0.050712   -1.252469
     21          1           0       -2.494878   -1.468409   -0.209850
     22          1           0       -1.354996   -0.156376    1.611115
     23          1           0       -1.328789    1.269377    0.562572
     24          1           0       -0.379978   -0.163605    0.131723
     25          6           0       -5.073396   -0.453102   -0.379226
     26          6           0       -6.409927    0.002732    0.207190
     27          6           0       -7.611288   -0.543185   -0.565146
     28          1           0       -5.012668   -0.132051   -1.428336
     29          1           0       -5.038597   -1.551141   -0.385920
     30          1           0       -6.441470    1.099816    0.212666
     31          1           0       -6.467529   -0.317883    1.255285
     32          1           0       -7.607559   -1.637972   -0.559756
     33          1           0       -7.581352   -0.212219   -1.608297
     34          1           0       -8.556370   -0.204990   -0.128907
 ---------------------------------------------------------------------

 SCF Done:  E(RHF) =  -669.535168055     A.U. after   15 cycles
 E2 =    -0.2091793639D+01 EUMP2 =    -0.67162696169393D+03

 The electronic state is 1-A.
 Alpha  occ. eigenvalues --  -20.60762 -20.60756 -15.85815 -11.31185 -11.27738
 Alpha  occ. eigenvalues --  -11.27723 -11.27467 -11.26764 -11.26733 -11.21969
 Alpha  occ. eigenvalues --  -11.21862 -11.21748 -11.21650 -11.21553 -11.21284
 Alpha  occ. eigenvalues --   -1.59837  -1.39390  -1.19353  -1.08771  -1.08733
 Alpha  occ. eigenvalues --   -1.04755  -1.03863  -0.96328  -0.95578  -0.87358
 Alpha  occ. eigenvalues --   -0.86138  -0.82409  -0.79937  -0.78568  -0.77456
 Alpha  occ. eigenvalues --   -0.72032  -0.71161  -0.70450  -0.65390  -0.64999
 Alpha  occ. eigenvalues --   -0.64747  -0.62096  -0.61268  -0.59699  -0.57931
 Alpha  occ. eigenvalues --   -0.55636  -0.55243  -0.53496  -0.52890  -0.52718
 Alpha  occ. eigenvalues --   -0.52574  -0.50282  -0.48792  -0.48787  -0.48250
 Alpha  occ. eigenvalues --   -0.46969  -0.46113  -0.46032  -0.44796  -0.44116
 Alpha  occ. eigenvalues --   -0.37296  -0.36306
 Alpha virt. eigenvalues --    0.05061   0.11267   0.16536   0.21000   0.22577
 Alpha virt. eigenvalues --    0.24005   0.26221   0.26391   0.27309   0.27832
 Alpha virt. eigenvalues --    0.28536   0.30299   0.31484   0.31565   0.31764

 Mulliken charges:
               1
     1  C   -0.170034
     2  C   -0.213320
     3  C   -0.173381
     4  C    0.158391
     5  C   -0.171529
     6  C   -0.218818
     7  H    0.225396
     8  H    0.225167
     9  H    0.275645
    10  H    0.275480
    11  H    0.223313
    12  N    0.488102
    13  O   -0.460461
    14  O   -0.460396
    15  C   -0.298315
    16  C   -0.300465
    17  C   -0.477638
    18  H    0.147418
    19  H    0.149514
    20  H    0.152272
    21  H    0.155000
    22  H    0.151434
    23  H    0.145911
    24  H    0.169168
    25  C   -0.298495
    26  C   -0.299720
    27  C   -0.475864
    28  H    0.149669
    29  H    0.151129
    30  H    0.151173
    31  H    0.152161
    32  H    0.156056
    33  H    0.155337
    34  H    0.160701
 Sum of Mulliken charges =  -0.00000

 Dipole moment (field-independent basis, Debye):
    X=             -2.9983    Y=              4.2402    Z=              0.3738  Tot=              5.2066
 Quadrupole moment (field-independent basis, Debye-Ang):
   XX=           -117.5407   YY=            -94.8310   ZZ=            -90.7251
   XY=             16.1859   XZ=             -0.4733   YZ=             -2.3308

 Normal termination of Gaussian 16 at Thu May  6 01:31:15 2021.
