 Gaussian 16, Revision A.03,
 Gaussian 16:  EM64L-G16RevA.03 25-Dec-2016

 -------------
 #p 6-31g* mp2
 -------------

 ------------------------------------------------------
 Input file generated by CHIRIPA (05-May-2021 14:51:13)
 ------------------------------------------------------
 Symbolic Z-matrix:
 Charge =  0 Multiplicity = 1

                         Standard orientation:
 ---------------------------------------------------------------------
 Center     Atomic      Atomic             Coordinates (Angstroms)
 Number     Number       Type             X           Y           Z
 ---------------------------------------------------------------------
      1          6           0        3.845399   -0.055454    0.216258
      2          6           0        5.073272   -0.525833   -0.564164
      3          6           0        5.613712   -1.865951   -0.064362
      4          1           0        4.104506    0.026082    1.280758
      5          1           0        3.058727   -0.819176    0.143653
      6          1           0        5.856899    0.239170   -0.491259
      7          1           0        4.811264   -0.606074   -1.626957
      8          1           0        4.850750   -2.646129   -0.152748
      9          1           0        5.902326   -1.796082    0.989403
     10          1           0        6.491312   -2.183331   -0.636156
     11          6           0        3.293544    1.282861   -0.271692
     12          6           0        2.065671    1.753240    0.508729
     13          6           0        1.525230    3.093358    0.008928
     14          1           0        4.080216    2.046583   -0.199088
     15          1           0        3.034436    1.201325   -1.336192
     16          1           0        2.327679    1.833481    1.571522
     17          1           0        1.282043    0.988237    0.435824
     18          1           0        1.236616    3.023489   -1.044838
     19          1           0        2.288193    3.873536    0.097313
     20          1           0        0.647631    3.410738    0.580722
     21          6           0       -2.918153   -0.710212    0.414888
     22          6           0       -1.947814   -1.678460   -0.262550
     23          6           0       -0.649449   -1.861148    0.524003
     24          1           0       -2.425246    0.263240    0.542875
     25          1           0       -3.148490   -1.079012    1.424010
     26          1           0       -1.720455   -1.308665   -1.270606
     27          1           0       -2.443153   -2.649664   -0.389112
     28          1           0       -0.857321   -2.252592    1.525084
     29          1           0       -0.130517   -0.903973    0.638582
     30          1           0        0.029616   -2.557229    0.021805
     31          6           0       -4.220790   -0.517195   -0.359454
     32          6           0       -5.191128    0.451053    0.317985
     33          6           0       -6.489493    0.633741   -0.468569
     34          1           0       -3.990452   -0.148394   -1.368575
     35          1           0       -4.713697   -1.490647   -0.487441
     36          1           0       -4.695789    1.422257    0.444547
     37          1           0       -5.418487    0.081258    1.326041
     38          1           0       -7.008425   -0.323434   -0.583147
     39          1           0       -6.281621    1.025185   -1.469649
     40          1           0       -7.168558    1.329822    0.033630
 ---------------------------------------------------------------------

 SCF Done:  E(RHF) =  -470.733364281     A.U. after   11 cycles
 E2 =    -0.1582751711D+01 EUMP2 =    -0.47231611599214D+03

 The electronic state is 1-A.
 Alpha  occ. eigenvalues --  -11.21638 -11.21614 -11.21611 -11.21581 -11.21425
 Alpha  occ. eigenvalues --  -11.21392 -11.21365 -11.21324 -11.21105 -11.21103
 Alpha  occ. eigenvalues --  -11.21078 -11.21050  -1.08454  -1.08421  -1.03561
 Alpha  occ. eigenvalues --   -1.03525  -0.96005  -0.95976  -0.87028  -0.86987
 Alpha  occ. eigenvalues --   -0.79653  -0.79563  -0.78283  -0.78212  -0.65142
 Alpha  occ. eigenvalues --   -0.65006  -0.61058  -0.60839  -0.59384  -0.59335
 Alpha  occ. eigenvalues --   -0.57629  -0.57572  -0.55310  -0.55255  -0.52706
 Alpha  occ. eigenvalues --   -0.52673  -0.52456  -0.52378  -0.50040  -0.49862
 Alpha  occ. eigenvalues --   -0.48038  -0.47829  -0.46806  -0.46502  -0.45885
 Alpha  occ. eigenvalues --   -0.45757  -0.45745  -0.45491  -0.43807  -0.43779
 Alpha virt. eigenvalues --    0.21010   0.23127   0.23765   0.24524   0.25711
 Alpha virt. eigenvalues --    0.26801   0.27057   0.27425   0.28088   0.29379
 Alpha virt. eigenvalues --    0.29925   0.31637   0.31665   0.31900   0.31933

 Mulliken charges:
               1
     1  C   -0.300023
     2  C   -0.299659
     3  C   -0.475653
     4  H    0.149605
     5  H    0.151809
     6  H    0.151817
     7  H    0.151795
     8  H    0.155275
     9  H    0.155212
    10  H    0.160109
    11  C   -0.297505
    12  C   -0.308778
    13  C   -0.475194
    14  H    0.149554
    15  H    0.149347
    16  H    0.152305
    17  H    0.159638
    18  H    0.154881
    19  H    0.155541
    20  H    0.159880
    21  C   -0.298468
    22  C   -0.299264
    23  C   -0.484735
    24  H    0.149634
    25  H    0.149728
    26  H    0.151609
    27  H    0.152179
    28  H    0.156004
    29  H    0.163211
    30  H    0.159906
    31  C   -0.298320
    32  C   -0.299702
    33  C   -0.475725
    34  H    0.149548
    35  H    0.149701
    36  H    0.152069
    37  H    0.151960
    38  H    0.155173
    39  H    0.155218
    40  H    0.160318
 Sum of Mulliken charges =  -0.00000

 Dipole moment (field-independent basis, Debye):
    X=             -0.0086    Y=             -0.0040    Z=              0.0113  Tot=              0.0147
 Quadrupole moment (field-independent basis, Debye-Ang):
   XX=            -85.4758   YY=            -84.9334   ZZ=            -84.3467
   XY=              1.3636   XZ=             -0.3737   YZ=              0.2586

 Normal termination of Gaussian 16 at Wed May  5 16:51:48 2021.
