 Gaussian 16, Revision A.03,
 Gaussian 16:  EM64L-G16RevA.03 25-Dec-2016

 -------------
 #p 6-31g* mp2
 -------------

 ------------------------------------------------------
 Input file generated by CHIRIPA (05-May-2021 14:53:15)
 ------------------------------------------------------
 Symbolic Z-matrix:
 Charge =  0 Multiplicity = 1

                         Standard orientation:
 ---------------------------------------------------------------------
 Center     Atomic      Atomic             Coordinates (Angstroms)
 Number     Number       Type             X           Y           Z
 ---------------------------------------------------------------------
      1          6           0       -3.401028    1.025137    0.093843
      2          6           0       -2.189041    1.703471    0.733322
      3          6           0       -2.445219    3.171607    1.075002
      4          1           0       -3.680836    1.571679   -0.817171
      5          1           0       -4.257453    1.099236    0.778271
      6          1           0       -1.334791    1.626902    0.048480
      7          1           0       -1.911968    1.155138    1.642815
      8          1           0       -3.280372    3.263734    1.776881
      9          1           0       -2.699915    3.738177    0.173487
     10          1           0       -1.565863    3.637014    1.531059
     11          6           0       -3.160421   -0.442930   -0.253454
     12          6           0       -4.372408   -1.121264   -0.892933
     13          6           0       -4.116230   -2.589400   -1.234613
     14          1           0       -2.303997   -0.517029   -0.937882
     15          1           0       -2.880613   -0.989472    0.657560
     16          1           0       -4.649481   -0.572931   -1.802426
     17          1           0       -5.226659   -1.044695   -0.208091
     18          1           0       -3.861535   -3.155970   -0.333098
     19          1           0       -3.281078   -2.681527   -1.936492
     20          1           0       -4.995587   -3.054807   -1.690670
     21          6           0        1.759111   -2.115548    1.530194
     22          6           0        2.926613   -2.264803    0.774427
     23          6           0        3.381431   -1.225292   -0.042338
     24          6           0        2.640789   -0.044888   -0.079558
     25          6           0        1.473807    0.134236    0.661627
     26          6           0        1.037706   -0.918614    1.471486
     27          1           0        1.413068   -2.928246    2.161995
     28          1           0        3.488890   -3.193235    0.818054
     29          1           0        4.281944   -1.314002   -0.637842
     30          1           0        0.934632    1.071565    0.597407
     31          1           0        0.130661   -0.799887    2.057332
     32          7           0        3.112378    1.062657   -0.940574
     33          8           0        2.441861    2.092614   -0.955863
     34          8           0        4.143594    0.879821   -1.583848
 ---------------------------------------------------------------------

 SCF Done:  E(RHF) =  -669.535549060     A.U. after   15 cycles
 E2 =    -0.2092055033D+01 EUMP2 =    -0.67162760409330D+03

 The electronic state is 1-A.
 Alpha  occ. eigenvalues --  -20.60737 -20.60731 -15.85787 -11.31114 -11.27695
 Alpha  occ. eigenvalues --  -11.27634 -11.27432 -11.26710 -11.26675 -11.22265
 Alpha  occ. eigenvalues --  -11.21983 -11.21884 -11.21824 -11.21430 -11.21415
 Alpha  occ. eigenvalues --   -1.59812  -1.39366  -1.19290  -1.08913  -1.08695
 Alpha  occ. eigenvalues --   -1.04688  -1.03978  -0.96389  -0.95534  -0.87406
 Alpha  occ. eigenvalues --   -0.86090  -0.82369  -0.80088  -0.78766  -0.77393
 Alpha  occ. eigenvalues --   -0.72007  -0.71134  -0.70407  -0.65555  -0.64942
 Alpha  occ. eigenvalues --   -0.64681  -0.62071  -0.61359  -0.59753  -0.58019
 Alpha  occ. eigenvalues --   -0.55661  -0.55199  -0.53099  -0.53005  -0.52838
 Alpha  occ. eigenvalues --   -0.52766  -0.50320  -0.48768  -0.48763  -0.48362
 Alpha  occ. eigenvalues --   -0.47097  -0.46276  -0.46177  -0.44778  -0.44229
 Alpha  occ. eigenvalues --   -0.37278  -0.36276
 Alpha virt. eigenvalues --    0.05091   0.11321   0.16573   0.19869   0.22741
 Alpha virt. eigenvalues --    0.23777   0.24470   0.25790   0.27195   0.28477
 Alpha virt. eigenvalues --    0.29347   0.29999   0.31468   0.31548   0.32177

 Mulliken charges:
               1
     1  C   -0.297606
     2  C   -0.308883
     3  C   -0.475655
     4  H    0.154663
     5  H    0.150611
     6  H    0.157073
     7  H    0.142607
     8  H    0.155641
     9  H    0.160976
    10  H    0.162927
    11  C   -0.299063
    12  C   -0.300068
    13  C   -0.475863
    14  H    0.153100
    15  H    0.142525
    16  H    0.154818
    17  H    0.152248
    18  H    0.152551
    19  H    0.156797
    20  H    0.161860
    21  C   -0.170946
    22  C   -0.218692
    23  C   -0.170785
    24  C    0.158715
    25  C   -0.176968
    26  C   -0.221351
    27  H    0.225312
    28  H    0.223116
    29  H    0.275243
    30  H    0.283370
    31  H    0.225726
    32  N    0.487785
    33  O   -0.461239
    34  O   -0.460546
 Sum of Mulliken charges =  -0.00000

 Dipole moment (field-independent basis, Debye):
    X=             -1.8074    Y=             -3.8122    Z=              2.9329  Tot=              5.1382
 Quadrupole moment (field-independent basis, Debye-Ang):
   XX=           -100.3764   YY=            -94.0208   ZZ=            -94.8235
   XY=            -13.0009   XZ=              6.9026   YZ=              0.4491

 Normal termination of Gaussian 16 at Thu May  6 07:29:30 2021.
