 Gaussian 16, Revision A.03,
 Gaussian 16:  EM64L-G16RevA.03 25-Dec-2016

 -------------
 #p 6-31g* mp2
 -------------

 ------------------------------------------------------
 Input file generated by CHIRIPA (05-May-2021 14:53:15)
 ------------------------------------------------------
 Symbolic Z-matrix:
 Charge =  0 Multiplicity = 1

                         Standard orientation:
 ---------------------------------------------------------------------
 Center     Atomic      Atomic             Coordinates (Angstroms)
 Number     Number       Type             X           Y           Z
 ---------------------------------------------------------------------
      1          6           0       -3.734320   -0.453927   -0.727841
      2          6           0       -3.719870   -1.864429   -0.137704
      3          6           0       -3.873279   -2.951910   -1.201492
      4          1           0       -4.674111   -0.302399   -1.276272
      5          1           0       -2.924325   -0.364040   -1.464878
      6          1           0       -4.528784   -1.951197    0.599008
      7          1           0       -2.780087   -2.012550    0.409547
      8          1           0       -3.059643   -2.894000   -1.931727
      9          1           0       -4.818276   -2.832299   -1.741190
     10          1           0       -3.860298   -3.952292   -0.757726
     11          6           0       -3.581916    0.644124    0.323247
     12          6           0       -3.596366    2.054626   -0.266889
     13          6           0       -3.442957    3.142108    0.796898
     14          1           0       -4.391911    0.554238    1.060284
     15          1           0       -2.642125    0.492596    0.871678
     16          1           0       -4.536149    2.202747   -0.814141
     17          1           0       -2.787452    2.141394   -1.003602
     18          1           0       -2.497960    3.022496    1.336597
     19          1           0       -4.256593    3.084198    1.527134
     20          1           0       -3.455938    4.142490    0.353133
     21          6           0        0.990436   -0.767450    1.706600
     22          6           0        0.731208    0.103749    0.643427
     23          6           0        1.758241    0.494542   -0.220882
     24          6           0        3.038444   -0.007284    0.008336
     25          6           0        3.328321   -0.876694    1.058759
     26          6           0        2.285882   -1.254033    1.910513
     27          1           0        0.186628   -1.065802    2.373139
     28          1           0       -0.273882    0.483210    0.482657
     29          1           0        1.585438    1.167749   -1.051755
     30          1           0        4.340458   -1.238360    1.193633
     31          1           0        2.490124   -1.930747    2.735369
     32          7           0        4.133873    0.399310   -0.900023
     33          8           0        5.253110   -0.056814   -0.676646
     34          8           0        3.852492    1.166423   -1.818173
 ---------------------------------------------------------------------

 SCF Done:  E(RHF) =  -669.535494388     A.U. after   15 cycles
 E2 =    -0.2091545853D+01 EUMP2 =    -0.67162704024037D+03

 The electronic state is 1-A.
 Alpha  occ. eigenvalues --  -20.60767 -20.60762 -15.85821 -11.31192 -11.27762
 Alpha  occ. eigenvalues --  -11.27758 -11.27506 -11.26777 -11.26755 -11.22496
 Alpha  occ. eigenvalues --  -11.22433 -11.22410 -11.22227 -11.21843 -11.21676
 Alpha  occ. eigenvalues --   -1.59843  -1.39396  -1.19365  -1.09336  -1.08759
 Alpha  occ. eigenvalues --   -1.04769  -1.04332  -0.96774  -0.95593  -0.87782
 Alpha  occ. eigenvalues --   -0.86171  -0.82426  -0.80398  -0.79157  -0.77473
 Alpha  occ. eigenvalues --   -0.72039  -0.71166  -0.70474  -0.66083  -0.65017
 Alpha  occ. eigenvalues --   -0.64715  -0.62133  -0.61710  -0.60137  -0.58382
 Alpha  occ. eigenvalues --   -0.56077  -0.55264  -0.53426  -0.53199  -0.53097
 Alpha  occ. eigenvalues --   -0.52855  -0.50711  -0.48806  -0.48794  -0.48698
 Alpha  occ. eigenvalues --   -0.47448  -0.46681  -0.46612  -0.44800  -0.44615
 Alpha  occ. eigenvalues --   -0.37346  -0.36372
 Alpha virt. eigenvalues --    0.05062   0.11247   0.16545   0.18138   0.22909
 Alpha virt. eigenvalues --    0.23339   0.25043   0.25992   0.27169   0.28154
 Alpha virt. eigenvalues --    0.29619   0.30371   0.31023   0.31270   0.32017

 Mulliken charges:
               1
     1  C   -0.299537
     2  C   -0.298964
     3  C   -0.476301
     4  H    0.154320
     5  H    0.149741
     6  H    0.153487
     7  H    0.145781
     8  H    0.157557
     9  H    0.157397
    10  H    0.161755
    11  C   -0.301437
    12  C   -0.301434
    13  C   -0.475889
    14  H    0.154479
    15  H    0.138025
    16  H    0.157052
    17  H    0.150319
    18  H    0.151715
    19  H    0.157532
    20  H    0.164739
    21  C   -0.173259
    22  C   -0.226361
    23  C   -0.172318
    24  C    0.159054
    25  C   -0.171188
    26  C   -0.218465
    27  H    0.225840
    28  H    0.234069
    29  H    0.275937
    30  H    0.275663
    31  H    0.223538
    32  N    0.487963
    33  O   -0.460409
    34  O   -0.460399
 Sum of Mulliken charges =  -0.00000

 Dipole moment (field-independent basis, Debye):
    X=             -4.0710    Y=             -1.4263    Z=              3.1352  Tot=              5.3327
 Quadrupole moment (field-independent basis, Debye-Ang):
   XX=           -114.4799   YY=            -94.1449   ZZ=            -94.2347
   XY=             -6.7122   XZ=             11.7632   YZ=             -2.3169

 Normal termination of Gaussian 16 at Thu May  6 15:29:31 2021.
