 Gaussian 16, Revision A.03,
 Gaussian 16:  EM64L-G16RevA.03 25-Dec-2016

 -------------
 #p 6-31g* mp2
 -------------

 ------------------------------------------------------
 Input file generated by CHIRIPA (05-May-2021 14:55:20)
 ------------------------------------------------------
 Symbolic Z-matrix:
 Charge =  0 Multiplicity = 1

                         Standard orientation:
 ---------------------------------------------------------------------
 Center     Atomic      Atomic             Coordinates (Angstroms)
 Number     Number       Type             X           Y           Z
 ---------------------------------------------------------------------
      1          6           0        1.646230    0.151371    1.058726
      2          6           0        2.351317    1.275097    0.615317
      3          6           0        3.638321    1.142345    0.085650
      4          6           0        4.192344   -0.134839    0.013892
      5          6           0        3.515178   -1.273625    0.447370
      6          6           0        2.229383   -1.117167    0.973488
      7          1           0        0.646924    0.263703    1.468806
      8          1           0        1.900929    2.261491    0.680296
      9          1           0        4.206526    1.995364   -0.264948
     10          1           0        3.990447   -2.243941    0.369764
     11          1           0        1.684146   -1.991643    1.317078
     12          7           0        5.554197   -0.287926   -0.544964
     13          8           0        6.020088   -1.424076   -0.597349
     14          8           0        6.129940    0.731135   -0.920029
     15          6           0       -4.586537    0.723814   -0.112940
     16          6           0       -3.125515    0.281348   -0.025634
     17          6           0       -2.152565    1.459975    0.019065
     18          1           0       -4.721532    1.346694   -1.007781
     19          1           0       -4.821383    1.361798    0.750321
     20          1           0       -2.893882   -0.356742   -0.888074
     21          1           0       -2.994025   -0.340711    0.869001
     22          1           0       -2.355277    2.094101    0.888200
     23          1           0       -2.254565    2.077979   -0.878860
     24          1           0       -1.113804    1.120926    0.081361
     25          6           0       -5.571271   -0.443216   -0.158416
     26          6           0       -7.032293   -0.000749   -0.245722
     27          6           0       -8.005243   -1.179378   -0.290420
     28          1           0       -5.336426   -1.081200   -1.021676
     29          1           0       -5.436275   -1.066096    0.736426
     30          1           0       -7.163784    0.621308   -1.140356
     31          1           0       -7.263926    0.637339    0.616719
     32          1           0       -7.903243   -1.797381    0.607505
     33          1           0       -7.802531   -1.813504   -1.159554
     34          1           0       -9.044004   -0.840329   -0.352716
 ---------------------------------------------------------------------

 SCF Done:  E(RHF) =  -669.535485395     A.U. after   15 cycles
 E2 =    -0.2091050288D+01 EUMP2 =    -0.67162653568357D+03

 The electronic state is 1-A.
 Alpha  occ. eigenvalues --  -20.60758 -20.60753 -15.85812 -11.31186 -11.27748
 Alpha  occ. eigenvalues --  -11.27743 -11.27464 -11.26767 -11.26756 -11.22487
 Alpha  occ. eigenvalues --  -11.22124 -11.22077 -11.22064 -11.21933 -11.21466
 Alpha  occ. eigenvalues --   -1.59834  -1.39387  -1.19355  -1.09090  -1.08749
 Alpha  occ. eigenvalues --   -1.04756  -1.04220  -0.96680  -0.95582  -0.87699
 Alpha  occ. eigenvalues --   -0.86151  -0.82414  -0.80291  -0.78870  -0.77459
 Alpha  occ. eigenvalues --   -0.72029  -0.71157  -0.70487  -0.65714  -0.65006
 Alpha  occ. eigenvalues --   -0.64760  -0.62101  -0.61608  -0.60105  -0.58294
 Alpha  occ. eigenvalues --   -0.55954  -0.55280  -0.53401  -0.53147  -0.52962
 Alpha  occ. eigenvalues --   -0.52843  -0.50604  -0.48790  -0.48784  -0.48598
 Alpha  occ. eigenvalues --   -0.47311  -0.46421  -0.46321  -0.44791  -0.44468
 Alpha  occ. eigenvalues --   -0.37320  -0.36358
 Alpha virt. eigenvalues --    0.05037   0.11260   0.16438   0.20340   0.22438
 Alpha virt. eigenvalues --    0.23811   0.26003   0.26486   0.26800   0.27392
 Alpha virt. eigenvalues --    0.28941   0.30615   0.30754   0.31356   0.31786

 Mulliken charges:
               1
     1  C   -0.172712
     2  C   -0.219354
     3  C   -0.171017
     4  C    0.158693
     5  C   -0.171051
     6  C   -0.219367
     7  H    0.229398
     8  H    0.224678
     9  H    0.275684
    10  H    0.275584
    11  H    0.223678
    12  N    0.488062
    13  O   -0.460406
    14  O   -0.460366
    15  C   -0.298714
    16  C   -0.299640
    17  C   -0.482456
    18  H    0.151846
    19  H    0.150149
    20  H    0.155200
    21  H    0.148529
    22  H    0.155119
    23  H    0.160841
    24  H    0.154302
    25  C   -0.298764
    26  C   -0.300140
    27  C   -0.476045
    28  H    0.150679
    29  H    0.149387
    30  H    0.152969
    31  H    0.152329
    32  H    0.155319
    33  H    0.155915
    34  H    0.161673
 Sum of Mulliken charges =  -0.00000

 Dipole moment (field-independent basis, Debye):
    X=             -4.9619    Y=              0.5414    Z=              1.9223  Tot=              5.3488
 Quadrupole moment (field-independent basis, Debye-Ang):
   XX=           -135.5717   YY=            -90.5338   ZZ=            -94.3721
   XY=              2.5929   XZ=              8.2631   YZ=             -1.1862

 Normal termination of Gaussian 16 at Thu May  6 15:45:31 2021.
