 Gaussian 16, Revision A.03,
 Gaussian 16:  EM64L-G16RevA.03 25-Dec-2016

 -------------
 #p 6-31g* mp2
 -------------

 ------------------------------------------------------
 Input file generated by CHIRIPA (05-May-2021 14:55:22)
 ------------------------------------------------------
 Symbolic Z-matrix:
 Charge =  0 Multiplicity = 1

                         Standard orientation:
 ---------------------------------------------------------------------
 Center     Atomic      Atomic             Coordinates (Angstroms)
 Number     Number       Type             X           Y           Z
 ---------------------------------------------------------------------
      1          6           0        5.191705    0.663803    0.180343
      2          6           0        4.117909    1.409369   -0.317265
      3          6           0        2.854608    0.827489   -0.458810
      4          6           0        2.700007   -0.508324   -0.091401
      5          6           0        3.750282   -1.277349    0.407412
      6          6           0        5.004794   -0.674816    0.540459
      7          1           0        6.169654    1.123843    0.286998
      8          1           0        4.260142    2.449154   -0.597732
      9          1           0        2.006039    1.381565   -0.841365
     10          1           0        3.577678   -2.311797    0.678598
     11          1           0        5.836908   -1.256256    0.927188
     12          7           0        1.367259   -1.135267   -0.236750
     13          8           0        1.257074   -2.313860    0.094029
     14          8           0        0.458072   -0.436200   -0.678701
     15          6           0       -4.296193    0.079608    0.366304
     16          6           0       -4.507048   -1.211921   -0.424568
     17          6           0       -5.628751   -2.079118    0.147747
     18          1           0       -4.070754   -0.170904    1.411945
     19          1           0       -5.234134    0.651921    0.377233
     20          1           0       -3.568599   -1.780972   -0.435175
     21          1           0       -4.731822   -0.958311   -1.468490
     22          1           0       -6.577941   -1.533572    0.143216
     23          1           0       -5.408109   -2.360907    1.182402
     24          1           0       -5.762372   -2.997254   -0.432796
     25          6           0       -3.178137    0.957184   -0.193643
     26          6           0       -2.967282    2.248713    0.597228
     27          6           0       -1.845579    3.115910    0.024914
     28          1           0       -2.240195    0.384871   -0.204573
     29          1           0       -3.403576    1.207695   -1.239284
     30          1           0       -2.742507    1.995103    1.641150
     31          1           0       -3.905730    2.817764    0.607835
     32          1           0       -2.066221    3.397699   -1.009742
     33          1           0       -0.896389    2.570364    0.029444
     34          1           0       -1.711958    4.034046    0.605457
 ---------------------------------------------------------------------

 SCF Done:  E(RHF) =  -669.536521112     A.U. after   15 cycles
 E2 =    -0.2091385109D+01 EUMP2 =    -0.67162790622081D+03

 The electronic state is 1-A.
 Alpha  occ. eigenvalues --  -20.61043 -20.61037 -15.86065 -11.31339 -11.27897
 Alpha  occ. eigenvalues --  -11.27891 -11.27626 -11.26894 -11.26883 -11.20717
 Alpha  occ. eigenvalues --  -11.20461 -11.20409 -11.20284 -11.20154 -11.19998
 Alpha  occ. eigenvalues --   -1.60097  -1.39655  -1.19503  -1.08917  -1.07329
 Alpha  occ. eigenvalues --   -1.04891  -1.02572  -0.95766  -0.95029  -0.86295
 Alpha  occ. eigenvalues --   -0.86060  -0.82602  -0.78628  -0.77664  -0.77095
 Alpha  occ. eigenvalues --   -0.72289  -0.71406  -0.70611  -0.65161  -0.64894
 Alpha  occ. eigenvalues --   -0.63946  -0.62240  -0.59973  -0.58402  -0.56635
 Alpha  occ. eigenvalues --   -0.55399  -0.54318  -0.53226  -0.52982  -0.51787
 Alpha  occ. eigenvalues --   -0.51468  -0.49149  -0.49046  -0.48879  -0.46953
 Alpha  occ. eigenvalues --   -0.45654  -0.45123  -0.44690  -0.44390  -0.42776
 Alpha  occ. eigenvalues --   -0.37480  -0.36490
 Alpha virt. eigenvalues --    0.04838   0.11157   0.16331   0.20965   0.23839
 Alpha virt. eigenvalues --    0.24733   0.26400   0.27499   0.27966   0.29012
 Alpha virt. eigenvalues --    0.29130   0.30523   0.31536   0.32464   0.32774

 Mulliken charges:
               1
     1  C   -0.170363
     2  C   -0.218832
     3  C   -0.172212
     4  C    0.157312
     5  C   -0.170328
     6  C   -0.218668
     7  H    0.226215
     8  H    0.224431
     9  H    0.278066
    10  H    0.275847
    11  H    0.223954
    12  N    0.492167
    13  O   -0.458565
    14  O   -0.464310
    15  C   -0.296920
    16  C   -0.301297
    17  C   -0.475074
    18  H    0.147635
    19  H    0.143721
    20  H    0.163223
    21  H    0.149176
    22  H    0.151468
    23  H    0.154049
    24  H    0.158421
    25  C   -0.312025
    26  C   -0.297275
    27  C   -0.477473
    28  H    0.181112
    29  H    0.144785
    30  H    0.149504
    31  H    0.147511
    32  H    0.153076
    33  H    0.157834
    34  H    0.153835
 Sum of Mulliken charges =  -0.00000

 Dipole moment (field-independent basis, Debye):
    X=              5.0410    Y=              2.0184    Z=              0.4658  Tot=              5.4500
 Quadrupole moment (field-independent basis, Debye-Ang):
   XX=            -70.5789   YY=            -94.4348   ZZ=            -94.8728
   XY=              1.3485   XZ=              2.5619   YZ=             -2.4150

 Normal termination of Gaussian 16 at Thu May  6 09:25:01 2021.
