 Gaussian 16, Revision A.03,
 Gaussian 16:  EM64L-G16RevA.03 25-Dec-2016

 -------------
 #p 6-31g* mp2
 -------------

 ------------------------------------------------------
 Input file generated by CHIRIPA (05-May-2021 14:51:10)
 ------------------------------------------------------
 Symbolic Z-matrix:
 Charge =  0 Multiplicity = 1

                         Standard orientation:
 ---------------------------------------------------------------------
 Center     Atomic      Atomic             Coordinates (Angstroms)
 Number     Number       Type             X           Y           Z
 ---------------------------------------------------------------------
      1          6           0       -2.549669    1.059691    0.004821
      2          6           0       -3.051477    2.504050    0.005392
      3          6           0       -1.930369    3.519277    0.229499
      4          1           0       -2.050158    0.851400    0.960880
      5          1           0       -1.787194    0.944089   -0.777907
      6          1           0       -3.813775    2.616547    0.786969
      7          1           0       -3.550020    2.708868   -0.950705
      8          1           0       -1.172576    3.436092   -0.556269
      9          1           0       -1.437829    3.343246    1.191278
     10          1           0       -2.311309    4.545305    0.226190
     11          6           0       -3.658799    0.033105   -0.218071
     12          6           0       -3.156991   -1.411254   -0.218642
     13          6           0       -4.278100   -2.426481   -0.442749
     14          1           0       -4.421274    0.148707    0.564657
     15          1           0       -4.158310    0.241396   -1.174130
     16          1           0       -2.658448   -1.616072    0.737454
     17          1           0       -2.394693   -1.523750   -1.000219
     18          1           0       -4.770639   -2.250449   -1.404528
     19          1           0       -5.035892   -2.343296    0.343019
     20          1           0       -3.897159   -3.452509   -0.439440
     21          6           0        2.496269   -0.661789    0.554393
     22          6           0        1.500350   -1.668240   -0.022829
     23          6           0        0.289468   -1.888451    0.884400
     24          1           0        2.833286   -1.012759    1.539372
     25          1           0        1.983769    0.295583    0.722253
     26          1           0        2.014915   -2.623023   -0.190844
     27          1           0        1.165810   -1.314929   -1.006634
     28          1           0       -0.249217   -0.948595    1.042799
     29          1           0        0.604714   -2.264121    1.863223
     30          1           0       -0.409520   -2.611493    0.452559
     31          6           0        3.712199   -0.431007   -0.341142
     32          6           0        4.708119    0.575443    0.236080
     33          6           0        5.919000    0.795655   -0.671150
     34          1           0        4.224699   -1.388379   -0.509003
     35          1           0        3.375182   -0.080037   -1.326122
     36          1           0        5.042658    0.222132    1.219884
     37          1           0        4.193553    1.530226    0.404095
     38          1           0        5.603755    1.171325   -1.649973
     39          1           0        6.457685   -0.144201   -0.829548
     40          1           0        6.617988    1.518697   -0.239308
 ---------------------------------------------------------------------

 SCF Done:  E(RHF) =  -470.731630636     A.U. after   11 cycles
 E2 =    -0.1584108119D+01 EUMP2 =    -0.47231573875487D+03

 The electronic state is 1-A.
 Alpha  occ. eigenvalues --  -11.21639 -11.21575 -11.21534 -11.21475 -11.21435
 Alpha  occ. eigenvalues --  -11.21364 -11.21348 -11.21302 -11.21119 -11.21052
 Alpha  occ. eigenvalues --  -11.21027 -11.20876  -1.08458  -1.08369  -1.03558
 Alpha  occ. eigenvalues --   -1.03445  -0.95990  -0.95926  -0.87044  -0.86917
 Alpha  occ. eigenvalues --   -0.79724  -0.79460  -0.78305  -0.78132  -0.65084
 Alpha  occ. eigenvalues --   -0.65006  -0.60935  -0.60875  -0.59538  -0.59150
 Alpha  occ. eigenvalues --   -0.57727  -0.57404  -0.55293  -0.55215  -0.52770
 Alpha  occ. eigenvalues --   -0.52610  -0.52398  -0.52307  -0.49928  -0.49916
 Alpha  occ. eigenvalues --   -0.47978  -0.47765  -0.46725  -0.46606  -0.45865
 Alpha  occ. eigenvalues --   -0.45734  -0.45709  -0.45351  -0.43812  -0.43626
 Alpha virt. eigenvalues --    0.21570   0.23222   0.23762   0.24261   0.25247
 Alpha virt. eigenvalues --    0.26409   0.27093   0.27493   0.27827   0.29495
 Alpha virt. eigenvalues --    0.30768   0.31099   0.31712   0.31910   0.31987

 Mulliken charges:
               1
     1  C   -0.301447
     2  C   -0.299180
     3  C   -0.475826
     4  H    0.151338
     5  H    0.149387
     6  H    0.152196
     7  H    0.152202
     8  H    0.154800
     9  H    0.155033
    10  H    0.160596
    11  C   -0.298042
    12  C   -0.302905
    13  C   -0.475976
    14  H    0.149254
    15  H    0.149209
    16  H    0.158907
    17  H    0.152163
    18  H    0.154668
    19  H    0.154937
    20  H    0.159583
    21  C   -0.298736
    22  C   -0.299871
    23  C   -0.481717
    24  H    0.149444
    25  H    0.149910
    26  H    0.151335
    27  H    0.150966
    28  H    0.161674
    29  H    0.152829
    30  H    0.163758
    31  C   -0.298161
    32  C   -0.299651
    33  C   -0.475658
    34  H    0.149402
    35  H    0.149324
    36  H    0.151852
    37  H    0.152031
    38  H    0.155074
    39  H    0.155108
    40  H    0.160186
 Sum of Mulliken charges =  -0.00000

 Dipole moment (field-independent basis, Debye):
    X=             -0.0345    Y=              0.0081    Z=              0.0170  Tot=              0.0393
 Quadrupole moment (field-independent basis, Debye-Ang):
   XX=            -86.0634   YY=            -85.0596   ZZ=            -83.8790
   XY=             -1.2154   XZ=              0.4079   YZ=             -0.4142

 Normal termination of Gaussian 16 at Thu May  6 05:23:42 2021.
