 Gaussian 16, Revision A.03,
 Gaussian 16:  EM64L-G16RevA.03 25-Dec-2016

 -------------
 #p 6-31g* mp2
 -------------

 ------------------------------------------------------
 Input file generated by CHIRIPA (05-May-2021 14:51:08)
 ------------------------------------------------------
 Symbolic Z-matrix:
 Charge =  0 Multiplicity = 1

                         Standard orientation:
 ---------------------------------------------------------------------
 Center     Atomic      Atomic             Coordinates (Angstroms)
 Number     Number       Type             X           Y           Z
 ---------------------------------------------------------------------
      1          6           0        3.336590    0.303588   -0.354068
      2          6           0        4.174505    1.533160   -0.001881
      3          6           0        4.618400    2.319254   -1.235902
      4          1           0        3.918216   -0.350763   -1.017755
      5          1           0        2.453077    0.621769   -0.924647
      6          1           0        5.055459    1.212899    0.569056
      7          1           0        3.590887    2.184567    0.661199
      8          1           0        3.749661    2.666747   -1.804358
      9          1           0        5.222554    1.689558   -1.897024
     10          1           0        5.216037    3.194001   -0.961119
     11          6           0        2.885314   -0.492602    0.869109
     12          6           0        2.047399   -1.722174    0.516922
     13          6           0        1.603504   -2.508268    1.750943
     14          1           0        3.768827   -0.810783    1.439688
     15          1           0        2.303688    0.161749    1.532795
     16          1           0        2.631017   -2.373581   -0.146158
     17          1           0        1.166445   -1.401913   -0.054015
     18          1           0        0.999350   -1.878572    2.412065
     19          1           0        2.472243   -2.855761    2.319398
     20          1           0        1.005867   -3.383015    1.476160
     21          6           0       -3.202951   -0.656641   -0.361178
     22          6           0       -2.063191   -1.304212   -1.148313
     23          6           0       -2.261600   -2.807127   -1.347508
     24          1           0       -3.290701   -1.149167    0.616914
     25          1           0       -4.150756   -0.835728   -0.887474
     26          1           0       -1.117641   -1.122772   -0.621407
     27          1           0       -1.978020   -0.809961   -2.124570
     28          1           0       -3.189953   -3.004142   -1.893353
     29          1           0       -2.324685   -3.318731   -0.381650
     30          1           0       -1.435353   -3.249745   -1.912544
     31          6           0       -3.018953    0.845655   -0.153863
     32          6           0       -4.158713    1.493227    0.633273
     33          6           0       -3.960305    2.996141    0.832467
     34          1           0       -2.071147    1.024742    0.372434
     35          1           0       -2.931203    1.338180   -1.131955
     36          1           0       -4.243885    0.998975    1.609529
     37          1           0       -5.104264    1.311786    0.106367
     38          1           0       -3.897218    3.507744   -0.133391
     39          1           0       -3.031951    3.193156    1.378312
     40          1           0       -4.786551    3.438758    1.397504
 ---------------------------------------------------------------------

 SCF Done:  E(RHF) =  -470.733370267     A.U. after   11 cycles
 E2 =    -0.1582843580D+01 EUMP2 =    -0.47231621384619D+03

 The electronic state is 1-A.
 Alpha  occ. eigenvalues --  -11.21630 -11.21617 -11.21604 -11.21603 -11.21437
 Alpha  occ. eigenvalues --  -11.21415 -11.21376 -11.21354 -11.21100 -11.21099
 Alpha  occ. eigenvalues --  -11.21084 -11.21069  -1.08466  -1.08435  -1.03573
 Alpha  occ. eigenvalues --   -1.03524  -0.96008  -0.95984  -0.87022  -0.87002
 Alpha  occ. eigenvalues --   -0.79679  -0.79553  -0.78317  -0.78211  -0.65187
 Alpha  occ. eigenvalues --   -0.64992  -0.61109  -0.60804  -0.59411  -0.59312
 Alpha  occ. eigenvalues --   -0.57647  -0.57563  -0.55321  -0.55245  -0.52700
 Alpha  occ. eigenvalues --   -0.52678  -0.52429  -0.52413  -0.49994  -0.49898
 Alpha  occ. eigenvalues --   -0.48063  -0.47850  -0.46892  -0.46464  -0.45951
 Alpha  occ. eigenvalues --   -0.45785  -0.45768  -0.45414  -0.43811  -0.43789
 Alpha virt. eigenvalues --    0.20826   0.23283   0.23578   0.25022   0.25692
 Alpha virt. eigenvalues --    0.26915   0.27080   0.27608   0.28348   0.28700
 Alpha virt. eigenvalues --    0.30602   0.31378   0.31620   0.31951   0.32214

 Mulliken charges:
               1
     1  C   -0.298510
     2  C   -0.299636
     3  C   -0.475745
     4  H    0.149725
     5  H    0.149845
     6  H    0.151913
     7  H    0.151886
     8  H    0.155341
     9  H    0.155166
    10  H    0.160256
    11  C   -0.297567
    12  C   -0.308835
    13  C   -0.475575
    14  H    0.149633
    15  H    0.149059
    16  H    0.152299
    17  H    0.159997
    18  H    0.154357
    19  H    0.155506
    20  H    0.160725
    21  C   -0.297594
    22  C   -0.308376
    23  C   -0.475548
    24  H    0.149846
    25  H    0.149695
    26  H    0.159448
    27  H    0.151916
    28  H    0.155317
    29  H    0.155277
    30  H    0.160654
    31  C   -0.298232
    32  C   -0.299685
    33  C   -0.475715
    34  H    0.148667
    35  H    0.149682
    36  H    0.152057
    37  H    0.152120
    38  H    0.155212
    39  H    0.154999
    40  H    0.160418
 Sum of Mulliken charges =  -0.00000

 Dipole moment (field-independent basis, Debye):
    X=             -0.0055    Y=             -0.0084    Z=             -0.0098  Tot=              0.0141
 Quadrupole moment (field-independent basis, Debye-Ang):
   XX=            -83.9275   YY=            -86.0599   ZZ=            -84.7055
   XY=             -0.8578   XZ=              0.6970   YZ=              0.1624

 Normal termination of Gaussian 16 at Thu May  6 08:27:29 2021.
