 Gaussian 16, Revision A.03,
 Gaussian 16:  EM64L-G16RevA.03 25-Dec-2016

 -------------
 #p 6-31g* mp2
 -------------

 ------------------------------------------------------
 Input file generated by CHIRIPA (05-May-2021 14:55:23)
 ------------------------------------------------------
 Symbolic Z-matrix:
 Charge =  0 Multiplicity = 1

                         Standard orientation:
 ---------------------------------------------------------------------
 Center     Atomic      Atomic             Coordinates (Angstroms)
 Number     Number       Type             X           Y           Z
 ---------------------------------------------------------------------
      1          6           0       -3.770908    1.667777    1.113582
      2          6           0       -4.457384    0.449841    1.069958
      3          6           0       -3.896842   -0.658539    0.428214
      4          6           0       -2.642388   -0.512923   -0.162067
      5          6           0       -1.933637    0.687184   -0.135500
      6          6           0       -2.513442    1.782359    0.511775
      7          1           0       -4.213833    2.523664    1.614252
      8          1           0       -5.434098    0.357945    1.536467
      9          1           0       -4.406408   -1.613207    0.379532
     10          1           0       -0.961570    0.748135   -0.609618
     11          1           0       -1.978023    2.726989    0.544091
     12          7           0       -2.038771   -1.679326   -0.844380
     13          8           0       -0.932271   -1.525157   -1.356755
     14          8           0       -2.683585   -2.725634   -0.853883
     15          6           0        3.520669    1.065597   -0.329085
     16          6           0        2.194104    1.824415   -0.280004
     17          6           0        2.231972    3.132911   -1.070065
     18          1           0        4.319071    1.709870    0.063869
     19          1           0        3.776122    0.855098   -1.376858
     20          1           0        1.940539    2.032208    0.767442
     21          1           0        1.398736    1.178193   -0.672943
     22          1           0        2.460504    2.940498   -2.123323
     23          1           0        3.005386    3.799365   -0.674754
     24          1           0        1.273511    3.659081   -1.021509
     25          6           0        3.498523   -0.244642    0.456097
     26          6           0        4.825087   -1.003459    0.407015
     27          6           0        4.787220   -2.311955    1.197077
     28          1           0        3.243069   -0.034142    1.503870
     29          1           0        2.700121   -0.888914    0.063142
     30          1           0        5.620456   -0.357237    0.799954
     31          1           0        5.078653   -1.211251   -0.640430
     32          1           0        4.013806   -2.978410    0.801765
     33          1           0        4.558688   -2.119542    2.250334
     34          1           0        5.745681   -2.838125    1.148519
 ---------------------------------------------------------------------

 SCF Done:  E(RHF) =  -669.535821553     A.U. after   15 cycles
 E2 =    -0.2091381122D+01 EUMP2 =    -0.67162720267506D+03

 The electronic state is 1-A.
 Alpha  occ. eigenvalues --  -20.60804 -20.60795 -15.85850 -11.31172 -11.27748
 Alpha  occ. eigenvalues --  -11.27716 -11.27490 -11.26759 -11.26742 -11.21905
 Alpha  occ. eigenvalues --  -11.21437 -11.21368 -11.21320 -11.21100 -11.20724
 Alpha  occ. eigenvalues --   -1.59873  -1.39429  -1.19348  -1.08753  -1.08364
 Alpha  occ. eigenvalues --   -1.04746  -1.03518  -0.95944  -0.95593  -0.86963
 Alpha  occ. eigenvalues --   -0.86149  -0.82426  -0.79626  -0.78142  -0.77468
 Alpha  occ. eigenvalues --   -0.72072  -0.71192  -0.70467  -0.65015  -0.65001
 Alpha  occ. eigenvalues --   -0.64729  -0.62125  -0.60888  -0.59362  -0.57559
 Alpha  occ. eigenvalues --   -0.55268  -0.55192  -0.53079  -0.52862  -0.52682
 Alpha  occ. eigenvalues --   -0.52363  -0.49867  -0.48830  -0.48825  -0.47915
 Alpha  occ. eigenvalues --   -0.46633  -0.45682  -0.45553  -0.44837  -0.43744
 Alpha  occ. eigenvalues --   -0.37333  -0.36344
 Alpha virt. eigenvalues --    0.05048   0.11298   0.16546   0.20029   0.23095
 Alpha virt. eigenvalues --    0.24032   0.25595   0.26677   0.27302   0.28296
 Alpha virt. eigenvalues --    0.29489   0.30036   0.31492   0.31749   0.32684

 Mulliken charges:
               1
     1  C   -0.170461
     2  C   -0.219076
     3  C   -0.169999
     4  C    0.157215
     5  C   -0.177512
     6  C   -0.222861
     7  H    0.225574
     8  H    0.223362
     9  H    0.275510
    10  H    0.288738
    11  H    0.224138
    12  N    0.487142
    13  O   -0.462653
    14  O   -0.459922
    15  C   -0.296428
    16  C   -0.310380
    17  C   -0.474567
    18  H    0.148829
    19  H    0.152944
    20  H    0.149190
    21  H    0.156982
    22  H    0.159782
    23  H    0.157288
    24  H    0.151357
    25  C   -0.302508
    26  C   -0.299650
    27  C   -0.476550
    28  H    0.146650
    29  H    0.161685
    30  H    0.149576
    31  H    0.153494
    32  H    0.160242
    33  H    0.153462
    34  H    0.159408
 Sum of Mulliken charges =  -0.00000

 Dipole moment (field-independent basis, Debye):
    X=             -2.0622    Y=              4.0097    Z=              2.3595  Tot=              5.0890
 Quadrupole moment (field-independent basis, Debye-Ang):
   XX=            -80.2559   YY=            -98.7768   ZZ=            -95.6813
   XY=             -7.2078   XZ=             -7.3303   YZ=             -1.6461

 Normal termination of Gaussian 16 at Thu May  6 07:54:05 2021.
