 Gaussian 16, Revision A.03,
 Gaussian 16:  EM64L-G16RevA.03 25-Dec-2016

 -------------
 #p 6-31g* mp2
 -------------

 ------------------------------------------------------
 Input file generated by CHIRIPA (05-May-2021 14:57:23)
 ------------------------------------------------------
 Symbolic Z-matrix:
 Charge =  0 Multiplicity = 1

                         Standard orientation:
 ---------------------------------------------------------------------
 Center     Atomic      Atomic             Coordinates (Angstroms)
 Number     Number       Type             X           Y           Z
 ---------------------------------------------------------------------
      1          6           0       -3.288529   -2.213830   -0.898755
      2          6           0       -4.518299   -1.568512   -0.732171
      3          6           0       -4.572973   -0.260054   -0.242786
      4          6           0       -3.373042    0.376136    0.071411
      5          6           0       -2.132245   -0.240068   -0.083522
      6          6           0       -2.101519   -1.548722   -0.574471
      7          1           0       -3.255358   -3.230348   -1.279528
      8          1           0       -5.441744   -2.082596   -0.983192
      9          1           0       -5.511301    0.263127   -0.104082
     10          1           0       -1.228553    0.298197    0.175377
     11          1           0       -1.145026   -2.047411   -0.702821
     12          7           0       -3.418247    1.761445    0.590328
     13          8           0       -2.346886    2.300147    0.859816
     14          8           0       -4.524183    2.282317    0.717742
     15          6           0        2.465418   -2.087393    1.353391
     16          6           0        3.368555   -1.192895    1.937117
     17          6           0        3.873803   -0.114674    1.204510
     18          6           0        3.452617    0.039690   -0.115363
     19          6           0        2.554066   -0.834509   -0.725011
     20          6           0        2.061767   -1.905666    0.026529
     21          1           0        2.077959   -2.922237    1.929852
     22          1           0        3.683794   -1.331558    2.967381
     23          1           0        4.574099    0.592827    1.631646
     24          1           0        2.258354   -0.670267   -1.754087
     25          1           0        1.360496   -2.598772   -0.429396
     26          7           0        3.980647    1.177415   -0.900964
     27          8           0        3.593934    1.291448   -2.062035
     28          8           0        4.771230    1.933589   -0.340770
 ---------------------------------------------------------------------

 SCF Done:  E(RHF) =  -868.336719905     A.U. after   16 cycles
 E2 =    -0.2600029504D+01 EUMP2 =    -0.87093674940937D+03

 The electronic state is 1-A.
 Alpha  occ. eigenvalues --  -20.61037 -20.61027 -20.60940 -20.60932 -15.86100
 Alpha  occ. eigenvalues --  -15.85998 -11.31660 -11.31483 -11.28351 -11.28230
 Alpha  occ. eigenvalues --  -11.28090 -11.28080 -11.28071 -11.27896 -11.27470
 Alpha  occ. eigenvalues --  -11.27248 -11.27215 -11.27103  -1.60105  -1.60012
 Alpha  occ. eigenvalues --   -1.39654  -1.39562  -1.19878  -1.19688  -1.09230
 Alpha  occ. eigenvalues --   -1.09068  -1.05331  -1.05114  -0.96024  -0.95873
 Alpha  occ. eigenvalues --   -0.86720  -0.86510  -0.82878  -0.82700  -0.77899
 Alpha  occ. eigenvalues --   -0.77709  -0.72315  -0.72213  -0.71430  -0.71339
 Alpha  occ. eigenvalues --   -0.70968  -0.70800  -0.65533  -0.65491  -0.65346
 Alpha  occ. eigenvalues --   -0.65044  -0.62743  -0.62382  -0.55809  -0.55631
 Alpha  occ. eigenvalues --   -0.53625  -0.53521  -0.53433  -0.53118  -0.49090
 Alpha  occ. eigenvalues --   -0.49056  -0.48984  -0.48959  -0.45017  -0.44940
 Alpha  occ. eigenvalues --   -0.37855  -0.37687  -0.36938  -0.36722
 Alpha virt. eigenvalues --    0.04672   0.04826   0.10635   0.10926   0.15982
 Alpha virt. eigenvalues --    0.16272   0.18882   0.21923   0.24788   0.27747
 Alpha virt. eigenvalues --    0.28001   0.28493   0.29555   0.31759   0.31883

 Mulliken charges:
               1
     1  C   -0.171368
     2  C   -0.218515
     3  C   -0.169987
     4  C    0.159043
     5  C   -0.171846
     6  C   -0.220420
     7  H    0.224728
     8  H    0.224464
     9  H    0.277028
    10  H    0.278603
    11  H    0.215165
    12  N    0.487983
    13  O   -0.458195
    14  O   -0.459696
    15  C   -0.169741
    16  C   -0.217986
    17  C   -0.167774
    18  C    0.159946
    19  C   -0.172793
    20  C   -0.225266
    21  H    0.226635
    22  H    0.226589
    23  H    0.279079
    24  H    0.276265
    25  H    0.216243
    26  N    0.488501
    27  O   -0.459329
    28  O   -0.457355
 Sum of Mulliken charges =  -0.00000

 Dipole moment (field-independent basis, Debye):
    X=             -1.5577    Y=             -8.6786    Z=              1.0645  Tot=              8.8813
 Quadrupole moment (field-independent basis, Debye-Ang):
   XX=           -111.4376   YY=           -109.9181   ZZ=           -103.4746
   XY=              3.7359   XZ=             19.2382   YZ=              0.7212

 Normal termination of Gaussian 16 at Thu May  6 05:01:06 2021.
