 Gaussian 16, Revision A.03,
 Gaussian 16:  EM64L-G16RevA.03 25-Dec-2016

 -------------
 #p 6-31g* mp2
 -------------

 ------------------------------------------------------
 Input file generated by CHIRIPA (05-May-2021 14:51:10)
 ------------------------------------------------------
 Symbolic Z-matrix:
 Charge =  0 Multiplicity = 1

                         Standard orientation:
 ---------------------------------------------------------------------
 Center     Atomic      Atomic             Coordinates (Angstroms)
 Number     Number       Type             X           Y           Z
 ---------------------------------------------------------------------
      1          6           0        1.711798   -1.272019   -0.210152
      2          6           0        0.962040   -2.051031    0.871045
      3          6           0       -0.366818   -2.621486    0.374545
      4          1           0        1.073490   -0.455164   -0.573820
      5          1           0        1.893440   -1.932848   -1.069051
      6          1           0        0.783085   -1.389322    1.728210
      7          1           0        1.602281   -2.866010    1.232316
      8          1           0       -0.203248   -3.303133   -0.466409
      9          1           0       -1.027098   -1.818054    0.032302
     10          1           0       -0.886109   -3.174492    1.163456
     11          6           0        3.042182   -0.695563    0.270997
     12          6           0        3.791941    0.083449   -0.810200
     13          6           0        5.120799    0.653903   -0.313700
     14          1           0        2.860541   -0.034735    1.129896
     15          1           0        3.680491   -1.512419    0.634665
     16          1           0        3.151700    0.898428   -1.171472
     17          1           0        3.970896   -0.578261   -1.667366
     18          1           0        5.781078   -0.149528    0.028542
     19          1           0        4.957228    1.335550    0.527253
     20          1           0        5.640090    1.206909   -1.102612
     21          6           0       -1.965863    1.421092    0.441991
     22          6           0       -0.994660    2.352104   -0.284622
     23          6           0       -0.179321    3.220550    0.673928
     24          1           0       -2.644898    2.021867    1.062416
     25          1           0       -1.400473    0.777713    1.130318
     26          1           0       -1.561562    2.992585   -0.972387
     27          1           0       -0.317982    1.749056   -0.903536
     28          1           0        0.411084    2.595962    1.352098
     29          1           0       -0.839563    3.846559    1.282856
     30          1           0        0.508388    3.878357    0.133367
     31          6           0       -2.788118    0.546490   -0.502836
     32          6           0       -3.759320   -0.384521    0.223777
     33          6           0       -4.574660   -1.252967   -0.734772
     34          1           0       -3.353507    1.189870   -1.191162
     35          1           0       -2.109083   -0.054284   -1.123260
     36          1           0       -4.435999    0.218527    0.842692
     37          1           0       -3.192418   -1.025002    0.911543
     38          1           0       -3.914417   -1.878976   -1.343700
     39          1           0       -5.165065   -0.628380   -1.412942
     40          1           0       -5.262369   -1.910775   -0.194211
 ---------------------------------------------------------------------

 SCF Done:  E(RHF) =  -470.732498485     A.U. after   11 cycles
 E2 =    -0.1585383255D+01 EUMP2 =    -0.47231788173992D+03

 The electronic state is 1-A.
 Alpha  occ. eigenvalues --  -11.21679 -11.21671 -11.21630 -11.21570 -11.21461
 Alpha  occ. eigenvalues --  -11.21459 -11.21399 -11.21393 -11.21151 -11.21090
 Alpha  occ. eigenvalues --  -11.21085 -11.21042  -1.08543  -1.08431  -1.03602
 Alpha  occ. eigenvalues --   -1.03543  -0.96049  -0.95996  -0.87103  -0.86978
 Alpha  occ. eigenvalues --   -0.79672  -0.79604  -0.78356  -0.78242  -0.65578
 Alpha  occ. eigenvalues --   -0.64763  -0.61132  -0.60826  -0.59408  -0.59370
 Alpha  occ. eigenvalues --   -0.57641  -0.57613  -0.55477  -0.55128  -0.52726
 Alpha  occ. eigenvalues --   -0.52698  -0.52477  -0.52406  -0.50244  -0.49675
 Alpha  occ. eigenvalues --   -0.47988  -0.47905  -0.46835  -0.46589  -0.46100
 Alpha  occ. eigenvalues --   -0.45845  -0.45708  -0.45381  -0.43828  -0.43822
 Alpha virt. eigenvalues --    0.18625   0.22094   0.23993   0.24445   0.25425
 Alpha virt. eigenvalues --    0.26107   0.27590   0.27975   0.28513   0.29806
 Alpha virt. eigenvalues --    0.31201   0.31340   0.31629   0.31858   0.32261

 Mulliken charges:
               1
     1  C   -0.304887
     2  C   -0.299566
     3  C   -0.486216
     4  H    0.154863
     5  H    0.149863
     6  H    0.151565
     7  H    0.152502
     8  H    0.155219
     9  H    0.167072
    10  H    0.160297
    11  C   -0.298111
    12  C   -0.300032
    13  C   -0.475785
    14  H    0.149516
    15  H    0.149990
    16  H    0.152216
    17  H    0.151963
    18  H    0.155187
    19  H    0.155519
    20  H    0.160377
    21  C   -0.300656
    22  C   -0.303592
    23  C   -0.475980
    24  H    0.150571
    25  H    0.151097
    26  H    0.152720
    27  H    0.154688
    28  H    0.154720
    29  H    0.155758
    30  H    0.160500
    31  C   -0.303455
    32  C   -0.303301
    33  C   -0.475889
    34  H    0.151370
    35  H    0.150629
    36  H    0.152295
    37  H    0.155611
    38  H    0.156094
    39  H    0.154944
    40  H    0.160322
 Sum of Mulliken charges =  -0.00000

 Dipole moment (field-independent basis, Debye):
    X=             -0.0086    Y=              0.0041    Z=             -0.0040  Tot=              0.0103
 Quadrupole moment (field-independent basis, Debye-Ang):
   XX=            -85.3738   YY=            -84.1905   ZZ=            -85.0752
   XY=             -1.8660   XZ=             -0.7078   YZ=             -0.2577

 Normal termination of Gaussian 16 at Wed May  5 16:40:24 2021.
