 Gaussian 16, Revision A.03,
 Gaussian 16:  EM64L-G16RevA.03 25-Dec-2016

 -------------
 #p 6-31g* mp2
 -------------

 ------------------------------------------------------
 Input file generated by CHIRIPA (05-May-2021 14:55:25)
 ------------------------------------------------------
 Symbolic Z-matrix:
 Charge =  0 Multiplicity = 1

                         Standard orientation:
 ---------------------------------------------------------------------
 Center     Atomic      Atomic             Coordinates (Angstroms)
 Number     Number       Type             X           Y           Z
 ---------------------------------------------------------------------
      1          6           0       -2.496178    1.411704    1.684366
      2          6           0       -1.516484    0.505798    2.103955
      3          6           0       -1.181480   -0.595604    1.310712
      4          6           0       -1.849123   -0.761266    0.098235
      5          6           0       -2.829653    0.123826   -0.347258
      6          6           0       -3.148485    1.218168    0.462253
      7          1           0       -2.750135    2.264558    2.306895
      8          1           0       -1.008254    0.653588    3.052589
      9          1           0       -0.426950   -1.312356    1.611326
     10          1           0       -3.319000   -0.049971   -1.297916
     11          1           0       -3.909738    1.920090    0.133856
     12          7           0       -1.503029   -1.923534   -0.750147
     13          8           0       -2.105813   -2.047132   -1.814107
     14          8           0       -0.635530   -2.688913   -0.335084
     15          6           0        2.645561    0.003061   -0.187195
     16          6           0        3.969868   -0.138100    0.563983
     17          6           0        4.367893   -1.596734    0.791481
     18          1           0        1.854913   -0.510578    0.376716
     19          1           0        2.724190   -0.511713   -1.154779
     20          1           0        3.889224    0.377968    1.529273
     21          1           0        4.757419    0.376099   -0.001685
     22          1           0        4.475888   -2.120109   -0.164039
     23          1           0        3.602761   -2.118230    1.375618
     24          1           0        5.317488   -1.674438    1.330082
     25          6           0        2.234217    1.455397   -0.422237
     26          6           0        0.909909    1.596557   -1.173414
     27          6           0        0.511884    3.055192   -1.400911
     28          1           0        2.155589    1.970170    0.545348
     29          1           0        3.024866    1.969036   -0.986147
     30          1           0        0.122359    1.082358   -0.607746
     31          1           0        0.990554    1.080489   -2.138705
     32          1           0        1.277017    3.576687   -1.985050
     33          1           0        0.403889    3.578566   -0.445393
     34          1           0       -0.437709    3.132896   -1.939514
 ---------------------------------------------------------------------

 SCF Done:  E(RHF) =  -669.534328984     A.U. after   15 cycles
 E2 =    -0.2095459116D+01 EUMP2 =    -0.67162978809958D+03

 The electronic state is 1-A.
 Alpha  occ. eigenvalues --  -20.60844 -20.60833 -15.85883 -11.31264 -11.27869
 Alpha  occ. eigenvalues --  -11.27857 -11.27643 -11.26922 -11.26911 -11.21469
 Alpha  occ. eigenvalues --  -11.21383 -11.21289 -11.21159 -11.21115 -11.20829
 Alpha  occ. eigenvalues --   -1.59906  -1.39460  -1.19506  -1.08871  -1.08298
 Alpha  occ. eigenvalues --   -1.04903  -1.03404  -0.95862  -0.95697  -0.86877
 Alpha  occ. eigenvalues --   -0.86290  -0.82527  -0.79483  -0.78117  -0.77562
 Alpha  occ. eigenvalues --   -0.72107  -0.71230  -0.70591  -0.65137  -0.65000
 Alpha  occ. eigenvalues --   -0.64867  -0.62245  -0.60850  -0.59250  -0.57475
 Alpha  occ. eigenvalues --   -0.55399  -0.55163  -0.53346  -0.52987  -0.52538
 Alpha  occ. eigenvalues --   -0.52262  -0.49789  -0.48871  -0.48862  -0.47760
 Alpha  occ. eigenvalues --   -0.46467  -0.45639  -0.45562  -0.44798  -0.43657
 Alpha  occ. eigenvalues --   -0.37408  -0.36488
 Alpha virt. eigenvalues --    0.04926   0.11040   0.16427   0.20930   0.23033
 Alpha virt. eigenvalues --    0.24137   0.26011   0.27227   0.27509   0.28087
 Alpha virt. eigenvalues --    0.28762   0.30856   0.31402   0.31722   0.31995

 Mulliken charges:
               1
     1  C   -0.171418
     2  C   -0.215445
     3  C   -0.176506
     4  C    0.160421
     5  C   -0.172497
     6  C   -0.215434
     7  H    0.226522
     8  H    0.224239
     9  H    0.275768
    10  H    0.276221
    11  H    0.224456
    12  N    0.489689
    13  O   -0.460216
    14  O   -0.460492
    15  C   -0.300885
    16  C   -0.299843
    17  C   -0.474740
    18  H    0.148275
    19  H    0.156311
    20  H    0.146825
    21  H    0.151958
    22  H    0.159515
    23  H    0.155160
    24  H    0.158303
    25  C   -0.296492
    26  C   -0.309673
    27  C   -0.472902
    28  H    0.143619
    29  H    0.149502
    30  H    0.162336
    31  H    0.154968
    32  H    0.155227
    33  H    0.150238
    34  H    0.156988
 Sum of Mulliken charges =  -0.00000

 Dipole moment (field-independent basis, Debye):
    X=             -1.3292    Y=              3.9704    Z=              2.9417  Tot=              5.1170
 Quadrupole moment (field-independent basis, Debye-Ang):
   XX=            -88.2460   YY=           -102.5276   ZZ=            -91.5051
   XY=             -7.8480   XZ=             -3.9189   YZ=             -2.5641

 Normal termination of Gaussian 16 at Thu May  6 03:12:58 2021.
