 Gaussian 16, Revision A.03,
 Gaussian 16:  EM64L-G16RevA.03 25-Dec-2016

 -------------
 #p 6-31g* mp2
 -------------

 ------------------------------------------------------
 Input file generated by CHIRIPA (05-May-2021 14:51:12)
 ------------------------------------------------------
 Symbolic Z-matrix:
 Charge =  0 Multiplicity = 1

                         Standard orientation:
 ---------------------------------------------------------------------
 Center     Atomic      Atomic             Coordinates (Angstroms)
 Number     Number       Type             X           Y           Z
 ---------------------------------------------------------------------
      1          6           0       -3.858954   -0.067145    0.117953
      2          6           0       -3.234681   -1.365131   -0.395370
      3          6           0       -1.752339   -1.488528   -0.041493
      4          1           0       -3.308529    0.787121   -0.299427
      5          1           0       -3.735877   -0.015530    1.208633
      6          1           0       -3.360123   -1.414936   -1.484590
      7          1           0       -3.786776   -2.216404    0.023129
      8          1           0       -1.612128   -1.464515    1.044033
      9          1           0       -1.183051   -0.658493   -0.472253
     10          1           0       -1.326203   -2.423677   -0.418008
     11          6           0       -5.340518    0.070760   -0.227992
     12          6           0       -5.964790    1.368746    0.285331
     13          6           0       -7.447132    1.492143   -0.068546
     14          1           0       -5.463595    0.019145   -1.318672
     15          1           0       -5.890943   -0.783507    0.189388
     16          1           0       -5.412695    2.220019   -0.133168
     17          1           0       -5.839348    1.418551    1.374551
     18          1           0       -8.016420    0.662108    0.362214
     19          1           0       -7.587343    1.468130   -1.154072
     20          1           0       -7.873269    2.427292    0.307969
     21          6           0        5.103658    0.507743    0.319316
     22          6           0        6.315637    0.692102   -0.594524
     23          6           0        7.314752    1.714619   -0.052287
     24          1           0        4.602877    1.476334    0.453465
     25          1           0        5.447900    0.193386    1.314340
     26          1           0        5.969119    1.004678   -1.587920
     27          1           0        6.813481   -0.277077   -0.726667
     28          1           0        7.688528    1.405040    0.929065
     29          1           0        6.839369    2.694078    0.062919
     30          1           0        8.173260    1.830754   -0.721119
     31          6           0        4.095813   -0.511358   -0.209277
     32          6           0        2.883835   -0.695716    0.704562
     33          6           0        1.884719   -1.718234    0.162326
     34          1           0        3.751573   -0.197001   -1.204302
     35          1           0        4.596595   -1.479948   -0.343426
     36          1           0        2.385991    0.273462    0.836705
     37          1           0        3.230353   -1.008293    1.697959
     38          1           0        2.360102   -2.697692    0.047120
     39          1           0        1.510943   -1.408654   -0.819027
     40          1           0        1.026211   -1.834369    0.831158
 ---------------------------------------------------------------------

 SCF Done:  E(RHF) =  -470.732680007     A.U. after   11 cycles
 E2 =    -0.1582562607D+01 EUMP2 =    -0.47231524261403D+03

 The electronic state is 1-A.
 Alpha  occ. eigenvalues --  -11.21595 -11.21571 -11.21550 -11.21509 -11.21390
 Alpha  occ. eigenvalues --  -11.21355 -11.21331 -11.21293 -11.21066 -11.21048
 Alpha  occ. eigenvalues --  -11.21009 -11.20875  -1.08415  -1.08371  -1.03532
 Alpha  occ. eigenvalues --   -1.03439  -0.96037  -0.95836  -0.87121  -0.86790
 Alpha  occ. eigenvalues --   -0.79679  -0.79425  -0.78232  -0.78182  -0.65050
 Alpha  occ. eigenvalues --   -0.65000  -0.60953  -0.60822  -0.59444  -0.59177
 Alpha  occ. eigenvalues --   -0.57611  -0.57481  -0.55348  -0.55114  -0.53007
 Alpha  occ. eigenvalues --   -0.52468  -0.52335  -0.52140  -0.50005  -0.49742
 Alpha  occ. eigenvalues --   -0.47931  -0.47790  -0.46655  -0.46507  -0.45766
 Alpha  occ. eigenvalues --   -0.45733  -0.45693  -0.45646  -0.43920  -0.43512
 Alpha virt. eigenvalues --    0.22410   0.22982   0.23622   0.24742   0.26459
 Alpha virt. eigenvalues --    0.26630   0.26999   0.27494   0.27604   0.29250
 Alpha virt. eigenvalues --    0.29850   0.31153   0.31386   0.32114   0.32200

 Mulliken charges:
               1
     1  C   -0.298339
     2  C   -0.301433
     3  C   -0.474875
     4  H    0.149349
     5  H    0.149339
     6  H    0.151644
     7  H    0.151603
     8  H    0.153376
     9  H    0.156784
    10  H    0.162449
    11  C   -0.298203
    12  C   -0.299590
    13  C   -0.475688
    14  H    0.149473
    15  H    0.149643
    16  H    0.151836
    17  H    0.151882
    18  H    0.155180
    19  H    0.155160
    20  H    0.160206
    21  C   -0.298167
    22  C   -0.299566
    23  C   -0.475658
    24  H    0.149452
    25  H    0.149417
    26  H    0.151786
    27  H    0.151876
    28  H    0.155138
    29  H    0.155095
    30  H    0.160127
    31  C   -0.298339
    32  C   -0.300062
    33  C   -0.479156
    34  H    0.149159
    35  H    0.149482
    36  H    0.151479
    37  H    0.151283
    38  H    0.153285
    39  H    0.155235
    40  H    0.168338
 Sum of Mulliken charges =  -0.00000

 Dipole moment (field-independent basis, Debye):
    X=             -0.0228    Y=             -0.0174    Z=              0.0018  Tot=              0.0288
 Quadrupole moment (field-independent basis, Debye-Ang):
   XX=            -86.6432   YY=            -84.5704   ZZ=            -83.8700
   XY=             -0.5684   XZ=             -0.3709   YZ=             -0.9600

 Normal termination of Gaussian 16 at Thu May  6 00:43:39 2021.
