 Gaussian 16, Revision A.03,
 Gaussian 16:  EM64L-G16RevA.03 25-Dec-2016

 -------------
 #p 6-31g* mp2
 -------------

 ------------------------------------------------------
 Input file generated by CHIRIPA (05-May-2021 14:55:21)
 ------------------------------------------------------
 Symbolic Z-matrix:
 Charge =  0 Multiplicity = 1

                         Standard orientation:
 ---------------------------------------------------------------------
 Center     Atomic      Atomic             Coordinates (Angstroms)
 Number     Number       Type             X           Y           Z
 ---------------------------------------------------------------------
      1          6           0        1.288605   -1.944163   -0.867537
      2          6           0        0.947488   -0.620671   -0.570001
      3          6           0        1.918105    0.278246   -0.117897
      4          6           0        3.226009   -0.182192    0.025890
      5          6           0        3.597069   -1.494642   -0.262345
      6          6           0        2.609978   -2.376163   -0.713032
      7          1           0        0.528208   -2.635707   -1.218192
      8          1           0       -0.077911   -0.282398   -0.689053
      9          1           0        1.681550    1.308301    0.119687
     10          1           0        4.627631   -1.802588   -0.133776
     11          1           0        2.877780   -3.403433   -0.943343
     12          7           0        4.262278    0.760243    0.503762
     13          8           0        5.407457    0.329892    0.622087
     14          8           0        3.909706    1.911430    0.750945
     15          6           0       -3.947825    1.146619   -0.199539
     16          6           0       -2.607784    1.881579   -0.153627
     17          6           0       -2.698237    3.309965   -0.691519
     18          1           0       -4.312934    1.127386   -1.235527
     19          1           0       -4.688510    1.712358    0.382457
     20          1           0       -1.869492    1.313905   -0.734391
     21          1           0       -2.245731    1.898898    0.882343
     22          1           0       -3.414036    3.897077   -0.107109
     23          1           0       -3.035660    3.308760   -1.733030
     24          1           0       -1.729173    3.816919   -0.649437
     25          6           0       -3.873536   -0.282577    0.334884
     26          6           0       -5.213578   -1.017537    0.288972
     27          6           0       -5.123123   -2.445922    0.826864
     28          1           0       -3.132850   -0.848315   -0.247112
     29          1           0       -3.508428   -0.263344    1.370872
     30          1           0       -5.575630   -1.034855   -0.746998
     31          1           0       -5.951869   -0.449862    0.869735
     32          1           0       -4.785701   -2.444717    1.868374
     33          1           0       -4.407325   -3.033034    0.242455
     34          1           0       -6.092188   -2.952876    0.784782
 ---------------------------------------------------------------------

 SCF Done:  E(RHF) =  -669.535555610     A.U. after   15 cycles
 E2 =    -0.2091258862D+01 EUMP2 =    -0.67162681447181D+03

 The electronic state is 1-A.
 Alpha  occ. eigenvalues --  -20.60719 -20.60714 -15.85771 -11.31125 -11.27694
 Alpha  occ. eigenvalues --  -11.27677 -11.27432 -11.26713 -11.26660 -11.22556
 Alpha  occ. eigenvalues --  -11.22298 -11.22232 -11.22154 -11.21722 -11.21710
 Alpha  occ. eigenvalues --   -1.59794  -1.39348  -1.19294  -1.09235  -1.08693
 Alpha  occ. eigenvalues --   -1.04694  -1.04280  -0.96698  -0.95530  -0.87713
 Alpha  occ. eigenvalues --   -0.86096  -0.82365  -0.80365  -0.79072  -0.77406
 Alpha  occ. eigenvalues --   -0.71990  -0.71117  -0.70407  -0.65889  -0.64945
 Alpha  occ. eigenvalues --   -0.64693  -0.62085  -0.61640  -0.60067  -0.58321
 Alpha  occ. eigenvalues --   -0.55976  -0.55204  -0.53386  -0.53124  -0.53026
 Alpha  occ. eigenvalues --   -0.52797  -0.50635  -0.48769  -0.48746  -0.48642
 Alpha  occ. eigenvalues --   -0.47396  -0.46582  -0.46512  -0.44756  -0.44539
 Alpha  occ. eigenvalues --   -0.37279  -0.36295
 Alpha virt. eigenvalues --    0.05121   0.11350   0.16613   0.19238   0.22614
 Alpha virt. eigenvalues --    0.23544   0.24526   0.26222   0.26937   0.28261
 Alpha virt. eigenvalues --    0.29280   0.30072   0.31063   0.31356   0.32350

 Mulliken charges:
               1
     1  C   -0.172410
     2  C   -0.226235
     3  C   -0.173897
     4  C    0.158755
     5  C   -0.171324
     6  C   -0.218447
     7  H    0.225532
     8  H    0.235231
     9  H    0.275612
    10  H    0.275340
    11  H    0.223074
    12  N    0.488126
    13  O   -0.460725
    14  O   -0.460567
    15  C   -0.298297
    16  C   -0.306487
    17  C   -0.475602
    18  H    0.151260
    19  H    0.154007
    20  H    0.144210
    21  H    0.155231
    22  H    0.159159
    23  H    0.156909
    24  H    0.163019
    25  C   -0.298363
    26  C   -0.300273
    27  C   -0.475737
    28  H    0.140661
    29  H    0.152396
    30  H    0.152919
    31  H    0.155019
    32  H    0.156849
    33  H    0.152210
    34  H    0.162843
 Sum of Mulliken charges =  -0.00000

 Dipole moment (field-independent basis, Debye):
    X=             -3.8923    Y=             -3.2243    Z=             -1.6289  Tot=              5.3103
 Quadrupole moment (field-independent basis, Debye-Ang):
   XX=           -115.3664   YY=            -91.7893   ZZ=            -94.9128
   XY=            -13.4457   XZ=             -6.1382   YZ=              1.1778

 Normal termination of Gaussian 16 at Thu May  6 20:42:35 2021.
