 Gaussian 16, Revision A.03,
 Gaussian 16:  EM64L-G16RevA.03 25-Dec-2016

 -------------
 #p 6-31g* mp2
 -------------

 ------------------------------------------------------
 Input file generated by CHIRIPA (05-May-2021 14:53:13)
 ------------------------------------------------------
 Symbolic Z-matrix:
 Charge =  0 Multiplicity = 1

                         Standard orientation:
 ---------------------------------------------------------------------
 Center     Atomic      Atomic             Coordinates (Angstroms)
 Number     Number       Type             X           Y           Z
 ---------------------------------------------------------------------
      1          6           0       -3.798892    1.141619    0.144284
      2          6           0       -2.586439    2.048266   -0.070039
      3          6           0       -2.908559    3.527175    0.146437
      4          1           0       -4.602671    1.447185   -0.539465
      5          1           0       -4.182558    1.288923    1.163350
      6          1           0       -2.204334    1.898279   -1.087937
      7          1           0       -1.785385    1.740384    0.614165
      8          1           0       -3.268945    3.697712    1.166064
      9          1           0       -3.690274    3.856504   -0.545709
     10          1           0       -2.027771    4.157255   -0.011908
     11          6           0       -3.492708   -0.339833   -0.068506
     12          6           0       -4.705160   -1.246481    0.145818
     13          6           0       -4.383040   -2.725390   -0.070658
     14          1           0       -3.109041   -0.487138   -1.087572
     15          1           0       -2.688928   -0.645400    0.615243
     16          1           0       -5.506214   -0.938598   -0.538387
     17          1           0       -5.087266   -1.096493    1.163715
     18          1           0       -3.601326   -3.054719    0.621487
     19          1           0       -4.022655   -2.895926   -1.090286
     20          1           0       -5.263828   -3.355470    0.087686
     21          6           0        0.707597   -1.645022   -0.127773
     22          6           0        1.924845   -2.292756    0.107318
     23          6           0        3.117143   -1.564893    0.163773
     24          6           0        3.055234   -0.184442   -0.020110
     25          6           0        1.858111    0.489737   -0.256053
     26          6           0        0.678166   -0.258287   -0.308390
     27          1           0       -0.213810   -2.218274   -0.170029
     28          1           0        1.950714   -3.369603    0.247950
     29          1           0        4.073306   -2.040913    0.344257
     30          1           0        1.864081    1.564347   -0.392413
     31          1           0       -0.265717    0.247418   -0.491123
     32          7           0        4.310928    0.596787    0.037476
     33          8           0        4.229574    1.811989   -0.127758
     34          8           0        5.352717   -0.020881    0.246756
 ---------------------------------------------------------------------

 SCF Done:  E(RHF) =  -669.535482114     A.U. after   15 cycles
 E2 =    -0.2092544214D+01 EUMP2 =    -0.67162802632778D+03

 The electronic state is 1-A.
 Alpha  occ. eigenvalues --  -20.60677 -20.60672 -15.85727 -11.31064 -11.27633
 Alpha  occ. eigenvalues --  -11.27603 -11.27328 -11.26642 -11.26504 -11.22738
 Alpha  occ. eigenvalues --  -11.22636 -11.22572 -11.22403 -11.22082 -11.21867
 Alpha  occ. eigenvalues --   -1.59753  -1.39307  -1.19223  -1.09531  -1.08619
 Alpha  occ. eigenvalues --   -1.04630  -1.04535  -0.96973  -0.95464  -0.87989
 Alpha  occ. eigenvalues --   -0.86022  -0.82305  -0.80645  -0.79426  -0.77333
 Alpha  occ. eigenvalues --   -0.71946  -0.71076  -0.70327  -0.66143  -0.64869
 Alpha  occ. eigenvalues --   -0.64618  -0.62016  -0.61902  -0.60335  -0.58607
 Alpha  occ. eigenvalues --   -0.56248  -0.55111  -0.53662  -0.53407  -0.52957
 Alpha  occ. eigenvalues --   -0.52705  -0.50904  -0.48944  -0.48705  -0.48687
 Alpha  occ. eigenvalues --   -0.47661  -0.46829  -0.46821  -0.44811  -0.44719
 Alpha  occ. eigenvalues --   -0.37201  -0.36218
 Alpha virt. eigenvalues --    0.05164   0.11350   0.16623   0.19881   0.22466
 Alpha virt. eigenvalues --    0.22628   0.25088   0.25521   0.26612   0.27900
 Alpha virt. eigenvalues --    0.29801   0.30221   0.30726   0.31347   0.31924

 Mulliken charges:
               1
     1  C   -0.296676
     2  C   -0.310944
     3  C   -0.474906
     4  H    0.154082
     5  H    0.154078
     6  H    0.149771
     7  H    0.151908
     8  H    0.158879
     9  H    0.158364
    10  H    0.163548
    11  C   -0.306056
    12  C   -0.299615
    13  C   -0.477649
    14  H    0.147465
    15  H    0.146813
    16  H    0.156025
    17  H    0.155789
    18  H    0.151696
    19  H    0.154844
    20  H    0.165469
    21  C   -0.176149
    22  C   -0.218433
    23  C   -0.171530
    24  C    0.158921
    25  C   -0.174883
    26  C   -0.228540
    27  H    0.227672
    28  H    0.222789
    29  H    0.275017
    30  H    0.275115
    31  H    0.240743
    32  N    0.488092
    33  O   -0.460791
    34  O   -0.460909
 Sum of Mulliken charges =  -0.00000

 Dipole moment (field-independent basis, Debye):
    X=             -4.7783    Y=             -2.6402    Z=             -0.1682  Tot=              5.4618
 Quadrupole moment (field-independent basis, Debye-Ang):
   XX=           -119.6794   YY=            -91.0775   ZZ=            -94.5061
   XY=            -10.2920   XZ=              0.0973   YZ=             -0.9139

 Normal termination of Gaussian 16 at Thu May  6 08:54:39 2021.
