 Gaussian 16, Revision A.03,
 Gaussian 16:  EM64L-G16RevA.03 25-Dec-2016

 -------------
 #p 6-31g* mp2
 -------------

 ------------------------------------------------------
 Input file generated by CHIRIPA (05-May-2021 14:57:26)
 ------------------------------------------------------
 Symbolic Z-matrix:
 Charge =  0 Multiplicity = 1

                         Standard orientation:
 ---------------------------------------------------------------------
 Center     Atomic      Atomic             Coordinates (Angstroms)
 Number     Number       Type             X           Y           Z
 ---------------------------------------------------------------------
      1          6           0       -4.224851    2.214757   -0.758789
      2          6           0       -2.848878    1.987620   -0.866615
      3          6           0       -2.297223    0.767011   -0.466190
      4          6           0       -3.154662   -0.208710    0.039831
      5          6           0       -4.529598   -0.012548    0.159674
      6          6           0       -5.059349    1.215710   -0.246891
      7          1           0       -4.644882    3.165926   -1.072233
      8          1           0       -2.198391    2.761675   -1.263791
      9          1           0       -1.235537    0.564573   -0.538711
     10          1           0       -5.152688   -0.803320    0.559493
     11          1           0       -6.128319    1.389320   -0.162004
     12          7           0       -2.582244   -1.504962    0.466993
     13          8           0       -3.359049   -2.348401    0.909510
     14          8           0       -1.367618   -1.652981    0.351196
     15          6           0        3.901304    2.293492    0.841555
     16          6           0        2.861313    1.599096    1.468256
     17          6           0        2.491371    0.325013    1.027342
     18          6           0        3.185942   -0.227131   -0.047832
     19          6           0        4.226429    0.439587   -0.692938
     20          6           0        4.579347    1.712545   -0.235143
     21          1           0        4.182071    3.282792    1.190624
     22          1           0        2.332976    2.047800    2.304659
     23          1           0        1.690057   -0.234735    1.494241
     24          1           0        4.734567   -0.033691   -1.524335
     25          1           0        5.387418    2.249498   -0.723764
     26          7           0        2.803311   -1.575350   -0.523543
     27          8           0        3.430878   -2.039849   -1.472774
     28          8           0        1.883087   -2.142057    0.061833
 ---------------------------------------------------------------------

 SCF Done:  E(RHF) =  -868.335794703     A.U. after   16 cycles
 E2 =    -0.2600748746D+01 EUMP2 =    -0.87093654344930D+03

 The electronic state is 1-A.
 Alpha  occ. eigenvalues --  -20.60354 -20.60302 -20.60142 -20.60012 -15.85376
 Alpha  occ. eigenvalues --  -15.85124 -11.31017 -11.30864 -11.27628 -11.27606
 Alpha  occ. eigenvalues --  -11.27491 -11.27412 -11.27406 -11.27303 -11.26703
 Alpha  occ. eigenvalues --  -11.26675 -11.26583 -11.26565  -1.59409  -1.59159
 Alpha  occ. eigenvalues --   -1.38953  -1.38689  -1.19216  -1.19077  -1.08561
 Alpha  occ. eigenvalues --   -1.08409  -1.04658  -1.04523  -0.95351  -0.95167
 Alpha  occ. eigenvalues --   -0.86043  -0.85898  -0.82188  -0.81968  -0.77208
 Alpha  occ. eigenvalues --   -0.76939  -0.71653  -0.71234  -0.70755  -0.70498
 Alpha  occ. eigenvalues --   -0.70317  -0.70159  -0.64861  -0.64700  -0.64663
 Alpha  occ. eigenvalues --   -0.64519  -0.62006  -0.61838  -0.55149  -0.55018
 Alpha  occ. eigenvalues --   -0.52975  -0.52863  -0.52747  -0.52603  -0.48387
 Alpha  occ. eigenvalues --   -0.48340  -0.48135  -0.48051  -0.44301  -0.43994
 Alpha  occ. eigenvalues --   -0.37212  -0.37096  -0.36278  -0.36158
 Alpha virt. eigenvalues --    0.05345   0.05537   0.11364   0.11463   0.16784
 Alpha virt. eigenvalues --    0.16962   0.21341   0.21729   0.27088   0.27577
 Alpha virt. eigenvalues --    0.28108   0.28815   0.30665   0.31342   0.32184

 Mulliken charges:
               1
     1  C   -0.171657
     2  C   -0.218737
     3  C   -0.172762
     4  C    0.158865
     5  C   -0.171202
     6  C   -0.218436
     7  H    0.224311
     8  H    0.221441
     9  H    0.274573
    10  H    0.276018
    11  H    0.222898
    12  N    0.487997
    13  O   -0.461943
    14  O   -0.451761
    15  C   -0.172551
    16  C   -0.220707
    17  C   -0.177362
    18  C    0.156989
    19  C   -0.172064
    20  C   -0.219061
    21  H    0.223336
    22  H    0.221955
    23  H    0.285984
    24  H    0.275306
    25  H    0.221867
    26  N    0.485790
    27  O   -0.466012
    28  O   -0.443076
 Sum of Mulliken charges =  -0.00000

 Dipole moment (field-independent basis, Debye):
    X=             -0.7452    Y=              9.0191    Z=              0.2294  Tot=              9.0528
 Quadrupole moment (field-independent basis, Debye-Ang):
   XX=            -78.3795   YY=           -109.6941   ZZ=           -103.6606
   XY=              2.5305   XZ=              5.9586   YZ=             -0.9387

 Normal termination of Gaussian 16 at Thu May  6 06:48:52 2021.
