 Gaussian 16, Revision A.03,
 Gaussian 16:  EM64L-G16RevA.03 25-Dec-2016

 -------------
 #p 6-31g* mp2
 -------------

 ------------------------------------------------------
 Input file generated by CHIRIPA (05-May-2021 14:51:13)
 ------------------------------------------------------
 Symbolic Z-matrix:
 Charge =  0 Multiplicity = 1

                         Standard orientation:
 ---------------------------------------------------------------------
 Center     Atomic      Atomic             Coordinates (Angstroms)
 Number     Number       Type             X           Y           Z
 ---------------------------------------------------------------------
      1          6           0       -4.138888   -0.072624   -0.360709
      2          6           0       -5.450550    0.622652    0.005513
      3          6           0       -6.426593    0.699949   -1.168864
      4          1           0       -3.667944    0.463403   -1.196072
      5          1           0       -4.358217   -1.086285   -0.723725
      6          1           0       -5.228706    1.634212    0.369035
      7          1           0       -5.918332    0.085020    0.840227
      8          1           0       -6.676954   -0.303379   -1.528383
      9          1           0       -5.983410    1.254615   -2.002252
     10          1           0       -7.357459    1.200683   -0.884938
     11          6           0       -3.152825   -0.157631    0.802984
     12          6           0       -1.841163   -0.852907    0.436763
     13          6           0       -0.865120   -0.930203    1.611140
     14          1           0       -2.933496    0.856031    1.166001
     15          1           0       -3.623769   -0.693658    1.638348
     16          1           0       -1.373382   -0.315274   -0.397951
     17          1           0       -2.063007   -1.864466    0.073241
     18          1           0       -1.308303   -1.484870    2.444528
     19          1           0       -0.614759    0.073124    1.970659
     20          1           0        0.065746   -1.430937    1.327214
     21          6           0        3.561376    0.750569    0.194204
     22          6           0        4.014167    2.016107   -0.534753
     23          6           0        3.838954    3.279074    0.309055
     24          1           0        2.506396    0.858029    0.481285
     25          1           0        4.130914    0.650354    1.128537
     26          1           0        3.444919    2.113167   -1.468109
     27          1           0        5.068137    1.905545   -0.820300
     28          1           0        4.420301    3.208104    1.234043
     29          1           0        2.787859    3.416905    0.582554
     30          1           0        4.168797    4.171873   -0.231292
     31          6           0        3.730337   -0.520315   -0.636479
     32          6           0        3.277547   -1.785852    0.092477
     33          6           0        3.452759   -3.048820   -0.751331
     34          1           0        3.160799   -0.420100   -1.570813
     35          1           0        4.785317   -0.627774   -0.923561
     36          1           0        2.223576   -1.675290    0.378024
     37          1           0        3.846794   -1.882912    1.025833
     38          1           0        4.503854   -3.186650   -1.024830
     39          1           0        2.871413   -2.977849   -1.676319
     40          1           0        3.122917   -3.941618   -0.210984
 ---------------------------------------------------------------------

 SCF Done:  E(RHF) =  -470.733358813     A.U. after   11 cycles
 E2 =    -0.1582610623D+01 EUMP2 =    -0.47231596943665D+03

 The electronic state is 1-A.
 Alpha  occ. eigenvalues --  -11.21650 -11.21623 -11.21598 -11.21589 -11.21437
 Alpha  occ. eigenvalues --  -11.21394 -11.21377 -11.21333 -11.21107 -11.21088
 Alpha  occ. eigenvalues --  -11.21073 -11.21069  -1.08464  -1.08422  -1.03569
 Alpha  occ. eigenvalues --   -1.03523  -0.96014  -0.95973  -0.87038  -0.86984
 Alpha  occ. eigenvalues --   -0.79649  -0.79570  -0.78275  -0.78235  -0.65105
 Alpha  occ. eigenvalues --   -0.65052  -0.60966  -0.60947  -0.59456  -0.59273
 Alpha  occ. eigenvalues --   -0.57656  -0.57555  -0.55305  -0.55253  -0.52768
 Alpha  occ. eigenvalues --   -0.52646  -0.52460  -0.52375  -0.49953  -0.49911
 Alpha  occ. eigenvalues --   -0.48032  -0.47832  -0.46660  -0.46610  -0.45817
 Alpha  occ. eigenvalues --   -0.45772  -0.45741  -0.45693  -0.43805  -0.43746
 Alpha virt. eigenvalues --    0.21061   0.23125   0.23733   0.24491   0.26224
 Alpha virt. eigenvalues --    0.26645   0.27070   0.27458   0.27925   0.29351
 Alpha virt. eigenvalues --    0.29755   0.31428   0.31650   0.31888   0.31982

 Mulliken charges:
               1
     1  C   -0.298270
     2  C   -0.299686
     3  C   -0.475725
     4  H    0.149554
     5  H    0.149615
     6  H    0.151969
     7  H    0.152025
     8  H    0.155225
     9  H    0.155175
    10  H    0.160344
    11  C   -0.298430
    12  C   -0.299227
    13  C   -0.484267
    14  H    0.149538
    15  H    0.149897
    16  H    0.151335
    17  H    0.152140
    18  H    0.155813
    19  H    0.155348
    20  H    0.167766
    21  C   -0.299264
    22  C   -0.299657
    23  C   -0.475618
    24  H    0.150762
    25  H    0.149595
    26  H    0.151730
    27  H    0.151971
    28  H    0.155289
    29  H    0.154918
    30  H    0.160191
    31  C   -0.297519
    32  C   -0.309050
    33  C   -0.475161
    34  H    0.149266
    35  H    0.149670
    36  H    0.160067
    37  H    0.152139
    38  H    0.155275
    39  H    0.155138
    40  H    0.160117
 Sum of Mulliken charges =  -0.00000

 Dipole moment (field-independent basis, Debye):
    X=             -0.0107    Y=             -0.0078    Z=              0.0102  Tot=              0.0167
 Quadrupole moment (field-independent basis, Debye-Ang):
   XX=            -84.3622   YY=            -84.9837   ZZ=            -85.3742
   XY=              0.4381   XZ=             -0.3209   YZ=             -0.7009

 Normal termination of Gaussian 16 at Wed May  5 18:22:19 2021.
