 Gaussian 16, Revision A.03,
 Gaussian 16:  EM64L-G16RevA.03 25-Dec-2016

 -------------
 #p 6-31g* mp2
 -------------

 ------------------------------------------------------
 Input file generated by CHIRIPA (05-May-2021 14:57:23)
 ------------------------------------------------------
 Symbolic Z-matrix:
 Charge =  0 Multiplicity = 1

                         Standard orientation:
 ---------------------------------------------------------------------
 Center     Atomic      Atomic             Coordinates (Angstroms)
 Number     Number       Type             X           Y           Z
 ---------------------------------------------------------------------
      1          6           0        3.397898    2.612560   -0.075845
      2          6           0        2.155512    2.138012   -0.509206
      3          6           0        1.901798    0.764497   -0.569483
      4          6           0        2.917717   -0.110180   -0.187201
      5          6           0        4.165830    0.331741    0.248928
      6          6           0        4.397330    1.709503    0.301174
      7          1           0        3.586361    3.681189   -0.032140
      8          1           0        1.377476    2.837021   -0.802619
      9          1           0        0.949067    0.369867   -0.901129
     10          1           0        4.921768   -0.389490    0.534938
     11          1           0        5.363135    2.075187    0.638132
     12          7           0        2.660880   -1.566506   -0.246762
     13          8           0        3.572493   -2.316477    0.095499
     14          8           0        1.552821   -1.930429   -0.634579
     15          6           0       -1.649473   -2.258361    0.520486
     16          6           0       -1.331529   -1.113796    1.259002
     17          6           0       -2.050945    0.071075    1.077155
     18          6           0       -3.086748    0.075937    0.144214
     19          6           0       -3.427548   -1.047965   -0.606777
     20          6           0       -2.694625   -2.221857   -0.408409
     21          1           0       -1.085367   -3.174533    0.668167
     22          1           0       -0.520360   -1.139232    1.981083
     23          1           0       -1.826002    0.971679    1.635484
     24          1           0       -4.241530   -0.991904   -1.319315
     25          1           0       -2.943766   -3.109219   -0.983353
     26          7           0       -3.855511    1.324495   -0.057045
     27          8           0       -4.763524    1.302854   -0.885104
     28          8           0       -3.535500    2.301115    0.617080
 ---------------------------------------------------------------------

 SCF Done:  E(RHF) =  -868.339962654     A.U. after   16 cycles
 E2 =    -0.2600293930D+01 EUMP2 =    -0.87094025658397D+03

 The electronic state is 1-A.
 Alpha  occ. eigenvalues --  -20.61502 -20.61484 -20.60665 -20.60646 -15.86516
 Alpha  occ. eigenvalues --  -15.85708 -11.31626 -11.30829 -11.28174 -11.28107
 Alpha  occ. eigenvalues --  -11.27835 -11.27429 -11.27378 -11.27122 -11.27056
 Alpha  occ. eigenvalues --  -11.26885 -11.26273 -11.26222  -1.60574  -1.59745
 Alpha  occ. eigenvalues --   -1.40130  -1.39305  -1.19773  -1.18975  -1.09215
 Alpha  occ. eigenvalues --   -1.08350  -1.05123  -1.04354  -0.96093  -0.95234
 Alpha  occ. eigenvalues --   -0.86529  -0.85726  -0.82927  -0.82095  -0.78005
 Alpha  occ. eigenvalues --   -0.77222  -0.72766  -0.71939  -0.71886  -0.71079
 Alpha  occ. eigenvalues --   -0.70855  -0.69940  -0.65417  -0.65103  -0.64593
 Alpha  occ. eigenvalues --   -0.64315  -0.62461  -0.61717  -0.55622  -0.54683
 Alpha  occ. eigenvalues --   -0.53488  -0.53220  -0.52646  -0.52418  -0.49514
 Alpha  occ. eigenvalues --   -0.49487  -0.48698  -0.48656  -0.45597  -0.44767
 Alpha  occ. eigenvalues --   -0.37748  -0.36770  -0.36754  -0.35949
 Alpha virt. eigenvalues --    0.04464   0.05324   0.10896   0.11716   0.16014
 Alpha virt. eigenvalues --    0.16958   0.21151   0.21995   0.27057   0.27706
 Alpha virt. eigenvalues --    0.27986   0.28976   0.30736   0.31641   0.32118

 Mulliken charges:
               1
     1  C   -0.170022
     2  C   -0.220400
     3  C   -0.174967
     4  C    0.154531
     5  C   -0.171393
     6  C   -0.218882
     7  H    0.228622
     8  H    0.230042
     9  H    0.279829
    10  H    0.275376
    11  H    0.224818
    12  N    0.488270
    13  O   -0.459373
    14  O   -0.466780
    15  C   -0.153091
    16  C   -0.218126
    17  C   -0.180878
    18  C    0.155043
    19  C   -0.172039
    20  C   -0.221501
    21  H    0.237577
    22  H    0.222599
    23  H    0.270821
    24  H    0.273792
    25  H    0.224520
    26  N    0.488060
    27  O   -0.461018
    28  O   -0.465433
 Sum of Mulliken charges =  -0.00000

 Dipole moment (field-independent basis, Debye):
    X=              3.8437    Y=              0.5309    Z=              0.8804  Tot=              3.9788
 Quadrupole moment (field-independent basis, Debye-Ang):
   XX=           -111.5336   YY=           -105.6229   ZZ=           -103.0316
   XY=             30.3609   XZ=              2.7333   YZ=             -0.3174

 Normal termination of Gaussian 16 at Fri May  7 09:26:45 2021.
