 Gaussian 16, Revision A.03,
 Gaussian 16:  EM64L-G16RevA.03 25-Dec-2016

 -------------
 #p 6-31g* mp2
 -------------

 ------------------------------------------------------
 Input file generated by CHIRIPA (05-May-2021 14:53:18)
 ------------------------------------------------------
 Symbolic Z-matrix:
 Charge =  0 Multiplicity = 1

                         Standard orientation:
 ---------------------------------------------------------------------
 Center     Atomic      Atomic             Coordinates (Angstroms)
 Number     Number       Type             X           Y           Z
 ---------------------------------------------------------------------
      1          6           0        3.486211    0.765863    0.503465
      2          6           0        1.993765    0.556540    0.761869
      3          6           0        1.274384    1.848269    1.151382
      4          1           0        3.951874    1.189381    1.403873
      5          1           0        3.612144    1.511501   -0.293756
      6          1           0        1.870663   -0.189501    1.557410
      7          1           0        1.531637    0.133292   -0.139194
      8          1           0        1.367589    2.595741    0.356901
      9          1           0        1.708541    2.271113    2.063145
     10          1           0        0.208723    1.675681    1.331493
     11          6           0        4.219125   -0.516378    0.113052
     12          6           0        5.711571   -0.307054   -0.145352
     13          6           0        6.430952   -1.598784   -0.534865
     14          1           0        4.093192   -1.262015    0.910273
     15          1           0        3.753462   -0.939896   -0.787356
     16          1           0        6.173699    0.116193    0.755712
     17          1           0        5.834673    0.438986   -0.940893
     18          1           0        5.996795   -2.021628   -1.446628
     19          1           0        6.337747   -2.346255    0.259616
     20          1           0        7.496613   -1.426196   -0.714976
     21          6           0       -1.714785    1.929279   -1.003033
     22          6           0       -1.198916    0.647124   -1.218625
     23          6           0       -1.907846   -0.482992   -0.800529
     24          6           0       -3.135104   -0.293392   -0.167140
     25          6           0       -3.675557    0.970994    0.062048
     26          6           0       -2.949283    2.086844   -0.364511
     27          1           0       -1.157335    2.801639   -1.331108
     28          1           0       -0.240440    0.521740   -1.714252
     29          1           0       -1.531844   -1.487114   -0.954736
     30          1           0       -4.633649    1.064198    0.558829
     31          1           0       -3.352362    3.081375   -0.195749
     32          7           0       -3.894796   -1.482244    0.279959
     33          8           0       -4.973788   -1.288372    0.835683
     34          8           0       -3.396868   -2.585428    0.066205
 ---------------------------------------------------------------------

 SCF Done:  E(RHF) =  -669.534023938     A.U. after   15 cycles
 E2 =    -0.2093440039D+01 EUMP2 =    -0.67162746397704D+03

 The electronic state is 1-A.
 Alpha  occ. eigenvalues --  -20.60771 -20.60766 -15.85826 -11.31199 -11.27779
 Alpha  occ. eigenvalues --  -11.27764 -11.27499 -11.26785 -11.26753 -11.22222
 Alpha  occ. eigenvalues --  -11.21989 -11.21932 -11.21831 -11.21626 -11.21378
 Alpha  occ. eigenvalues --   -1.59847  -1.39400  -1.19386  -1.08954  -1.08764
 Alpha  occ. eigenvalues --   -1.04798  -1.04012  -0.96464  -0.95599  -0.87479
 Alpha  occ. eigenvalues --   -0.86184  -0.82444  -0.80094  -0.78750  -0.77480
 Alpha  occ. eigenvalues --   -0.72044  -0.71171  -0.70483  -0.65655  -0.65030
 Alpha  occ. eigenvalues --   -0.64771  -0.62203  -0.61363  -0.59850  -0.58089
 Alpha  occ. eigenvalues --   -0.55786  -0.55280  -0.53476  -0.52987  -0.52883
 Alpha  occ. eigenvalues --   -0.52591  -0.50413  -0.48808  -0.48797  -0.48390
 Alpha  occ. eigenvalues --   -0.47136  -0.46284  -0.46210  -0.44804  -0.44266
 Alpha  occ. eigenvalues --   -0.37292  -0.36360
 Alpha virt. eigenvalues --    0.05042   0.11201   0.16459   0.20005   0.22750
 Alpha virt. eigenvalues --    0.24160   0.25404   0.26156   0.27217   0.28259
 Alpha virt. eigenvalues --    0.28539   0.30348   0.31200   0.31530   0.32109

 Mulliken charges:
               1
     1  C   -0.298046
     2  C   -0.300268
     3  C   -0.478703
     4  H    0.152221
     5  H    0.146530
     6  H    0.157411
     7  H    0.142134
     8  H    0.144405
     9  H    0.157556
    10  H    0.169601
    11  C   -0.298154
    12  C   -0.299878
    13  C   -0.475986
    14  H    0.152276
    15  H    0.146745
    16  H    0.153141
    17  H    0.151148
    18  H    0.155050
    19  H    0.156666
    20  H    0.161336
    21  C   -0.169368
    22  C   -0.214378
    23  C   -0.171797
    24  C    0.157983
    25  C   -0.170982
    26  C   -0.219846
    27  H    0.226409
    28  H    0.224152
    29  H    0.275822
    30  H    0.275740
    31  H    0.223752
    32  N    0.488139
    33  O   -0.460500
    34  O   -0.460313
 Sum of Mulliken charges =  -0.00000

 Dipole moment (field-independent basis, Debye):
    X=              2.7043    Y=              4.1705    Z=             -1.5020  Tot=              5.1925
 Quadrupole moment (field-independent basis, Debye-Ang):
   XX=           -109.4454   YY=            -96.6443   ZZ=            -93.3397
   XY=            -16.2444   XZ=              3.6281   YZ=              0.5027

 Normal termination of Gaussian 16 at Thu May  6 09:09:21 2021.
