 Gaussian 16, Revision A.03,
 Gaussian 16:  EM64L-G16RevA.03 25-Dec-2016

 -------------
 #p 6-31g* mp2
 -------------

 ------------------------------------------------------
 Input file generated by CHIRIPA (05-May-2021 14:51:12)
 ------------------------------------------------------
 Symbolic Z-matrix:
 Charge =  0 Multiplicity = 1

                         Standard orientation:
 ---------------------------------------------------------------------
 Center     Atomic      Atomic             Coordinates (Angstroms)
 Number     Number       Type             X           Y           Z
 ---------------------------------------------------------------------
      1          6           0        3.798692   -0.231180   -0.023500
      2          6           0        3.807384   -1.743226    0.203712
      3          6           0        5.015080   -2.212054    1.015786
      4          1           0        4.724239    0.061191   -0.538114
      5          1           0        3.807674    0.278882    0.949717
      6          1           0        3.796991   -2.250289   -0.769630
      7          1           0        2.881622   -2.032057    0.717674
      8          1           0        5.026992   -1.732831    2.000064
      9          1           0        5.947562   -1.952303    0.504309
     10          1           0        5.001303   -3.296027    1.166358
     11          6           0        2.597476    0.252776   -0.833806
     12          6           0        2.588784    1.764823   -1.061018
     13          6           0        1.381088    2.233650   -1.873092
     14          1           0        2.588494   -0.257286   -1.807022
     15          1           0        1.671930   -0.039594   -0.319191
     16          1           0        3.514546    2.053654   -1.574980
     17          1           0        2.599177    2.271886   -0.087676
     18          1           0        0.448606    1.973900   -1.361615
     19          1           0        1.369176    1.754427   -2.857370
     20          1           0        1.394865    3.317624   -2.023664
     21          6           0       -3.323218   -0.556327   -0.091128
     22          6           0       -4.804533   -0.884058   -0.281609
     23          6           0       -5.038754   -1.977240   -1.324626
     24          1           0       -2.896597   -0.243803   -1.054075
     25          1           0       -2.788258   -1.468872    0.206318
     26          1           0       -5.336779    0.029134   -0.577262
     27          1           0       -5.227722   -1.195654    0.681944
     28          1           0       -4.533341   -2.903337   -1.032211
     29          1           0       -4.643017   -1.671589   -2.298572
     30          1           0       -6.104433   -2.195724   -1.444843
     31          6           0       -3.072950    0.534730    0.948434
     32          6           0       -1.591635    0.862461    1.138915
     33          6           0       -1.357415    1.955644    2.181932
     34          1           0       -3.607910    1.447276    0.650988
     35          1           0       -3.499571    0.222207    1.911381
     36          1           0       -1.168445    1.174057    0.175361
     37          1           0       -1.059390   -0.050731    1.434568
     38          1           0       -1.753152    1.649993    3.155878
     39          1           0       -1.862827    2.881740    1.889517
     40          1           0       -0.291735    2.174128    2.302149
 ---------------------------------------------------------------------

 SCF Done:  E(RHF) =  -470.733349161     A.U. after   11 cycles
 E2 =    -0.1583036803D+01 EUMP2 =    -0.47231638596340D+03

 The electronic state is 1-A.
 Alpha  occ. eigenvalues --  -11.21673 -11.21617 -11.21590 -11.21589 -11.21441
 Alpha  occ. eigenvalues --  -11.21378 -11.21378 -11.21314 -11.21137 -11.21078
 Alpha  occ. eigenvalues --  -11.21063 -11.21057  -1.08473  -1.08407  -1.03581
 Alpha  occ. eigenvalues --   -1.03509  -0.96017  -0.95965  -0.87034  -0.86983
 Alpha  occ. eigenvalues --   -0.79680  -0.79547  -0.78316  -0.78187  -0.65140
 Alpha  occ. eigenvalues --   -0.65013  -0.61088  -0.60825  -0.59399  -0.59313
 Alpha  occ. eigenvalues --   -0.57637  -0.57566  -0.55354  -0.55206  -0.52713
 Alpha  occ. eigenvalues --   -0.52663  -0.52446  -0.52394  -0.50036  -0.49855
 Alpha  occ. eigenvalues --   -0.48079  -0.47829  -0.46800  -0.46487  -0.45958
 Alpha  occ. eigenvalues --   -0.45753  -0.45717  -0.45473  -0.43821  -0.43768
 Alpha virt. eigenvalues --    0.20541   0.23093   0.23615   0.25007   0.25794
 Alpha virt. eigenvalues --    0.26093   0.26899   0.27942   0.28196   0.28978
 Alpha virt. eigenvalues --    0.30431   0.31190   0.31516   0.31816   0.32327

 Mulliken charges:
               1
     1  C   -0.298204
     2  C   -0.299556
     3  C   -0.475695
     4  H    0.149559
     5  H    0.149314
     6  H    0.151946
     7  H    0.151770
     8  H    0.155135
     9  H    0.155181
    10  H    0.160164
    11  C   -0.301065
    12  C   -0.298851
    13  C   -0.483017
    14  H    0.149289
    15  H    0.152932
    16  H    0.151912
    17  H    0.151602
    18  H    0.161484
    19  H    0.155142
    20  H    0.160254
    21  C   -0.298553
    22  C   -0.299699
    23  C   -0.475760
    24  H    0.149984
    25  H    0.149556
    26  H    0.152043
    27  H    0.151941
    28  H    0.155216
    29  H    0.155383
    30  H    0.160298
    31  C   -0.297618
    32  C   -0.309412
    33  C   -0.475456
    34  H    0.149813
    35  H    0.149850
    36  H    0.159938
    37  H    0.151988
    38  H    0.155565
    39  H    0.155673
    40  H    0.159956
 Sum of Mulliken charges =  -0.00000

 Dipole moment (field-independent basis, Debye):
    X=             -0.0318    Y=             -0.0015    Z=              0.0035  Tot=              0.0320
 Quadrupole moment (field-independent basis, Debye-Ang):
   XX=            -85.2765   YY=            -85.1257   ZZ=            -84.3560
   XY=              0.0028   XZ=             -1.1296   YZ=             -0.6721

 Normal termination of Gaussian 16 at Wed May  5 15:18:17 2021.
