 Gaussian 16, Revision A.03,
 Gaussian 16:  EM64L-G16RevA.03 25-Dec-2016

 -------------
 #p 6-31g* mp2
 -------------

 ------------------------------------------------------
 Input file generated by CHIRIPA (05-May-2021 14:55:22)
 ------------------------------------------------------
 Symbolic Z-matrix:
 Charge =  0 Multiplicity = 1

                         Standard orientation:
 ---------------------------------------------------------------------
 Center     Atomic      Atomic             Coordinates (Angstroms)
 Number     Number       Type             X           Y           Z
 ---------------------------------------------------------------------
      1          6           0       -2.196879    2.091365    1.259796
      2          6           0       -1.832197    0.926418    1.942750
      3          6           0       -1.648597   -0.274357    1.250666
      4          6           0       -1.838865   -0.274164   -0.130308
      5          6           0       -2.202252    0.869894   -0.839088
      6          6           0       -2.380419    2.059441   -0.126499
      7          1           0       -2.337394    3.019794    1.805388
      8          1           0       -1.688973    0.948250    3.019345
      9          1           0       -1.366313   -1.190873    1.754383
     10          1           0       -2.337812    0.816946   -1.912512
     11          1           0       -2.663641    2.962618   -0.659511
     12          7           0       -1.647372   -1.539427   -0.873840
     13          8           0       -1.821087   -1.512930   -2.090293
     14          8           0       -1.327189   -2.533680   -0.226088
     15          6           0        2.802972    0.714903   -0.125222
     16          6           0        1.945799    1.923867   -0.501579
     17          6           0        2.778014    3.178347   -0.768956
     18          1           0        3.398223    0.958484    0.765445
     19          1           0        3.518829    0.515512   -0.934658
     20          1           0        1.230843    2.120069    0.307717
     21          1           0        1.352376    1.677312   -1.391341
     22          1           0        3.480785    3.006530   -1.590657
     23          1           0        3.358561    3.451803    0.118055
     24          1           0        2.145283    4.030438   -1.036262
     25          6           0        1.985317   -0.546880    0.145099
     26          6           0        2.842490   -1.755845    0.521456
     27          6           0        2.010274   -3.010325    0.788833
     28          1           0        1.269459   -0.347490    0.954535
     29          1           0        1.390065   -0.790463   -0.745569
     30          1           0        3.435912   -1.509290    1.411219
     31          1           0        3.557446   -1.952047   -0.287840
     32          1           0        1.429727   -3.283781   -0.098178
     33          1           0        1.307503   -2.838509    1.610533
     34          1           0        2.643005   -3.862417    1.056138
 ---------------------------------------------------------------------

 SCF Done:  E(RHF) =  -669.535024673     A.U. after   15 cycles
 E2 =    -0.2095882960D+01 EUMP2 =    -0.67163090763246D+03

 The electronic state is 1-A.
 Alpha  occ. eigenvalues --  -20.60909 -20.60874 -15.85906 -11.31225 -11.27819
 Alpha  occ. eigenvalues --  -11.27809 -11.27578 -11.26846 -11.26827 -11.21548
 Alpha  occ. eigenvalues --  -11.21223 -11.21152 -11.21101 -11.21040 -11.20119
 Alpha  occ. eigenvalues --   -1.59954  -1.39509  -1.19425  -1.08828  -1.08179
 Alpha  occ. eigenvalues --   -1.04833  -1.03207  -0.95687  -0.95625  -0.86657
 Alpha  occ. eigenvalues --   -0.86225  -0.82508  -0.79292  -0.78052  -0.77522
 Alpha  occ. eigenvalues --   -0.72146  -0.71254  -0.70547  -0.65087  -0.64887
 Alpha  occ. eigenvalues --   -0.64775  -0.62183  -0.60606  -0.59073  -0.57259
 Alpha  occ. eigenvalues --   -0.55340  -0.54928  -0.53234  -0.52925  -0.52316
 Alpha  occ. eigenvalues --   -0.52042  -0.49595  -0.48909  -0.48902  -0.47597
 Alpha  occ. eigenvalues --   -0.46341  -0.45619  -0.45436  -0.44669  -0.43481
 Alpha  occ. eigenvalues --   -0.37359  -0.36364
 Alpha virt. eigenvalues --    0.04925   0.11170   0.16405   0.20992   0.23065
 Alpha virt. eigenvalues --    0.24185   0.26255   0.27021   0.27595   0.27719
 Alpha virt. eigenvalues --    0.29046   0.30687   0.31495   0.31925   0.32271

 Mulliken charges:
               1
     1  C   -0.170640
     2  C   -0.219853
     3  C   -0.171608
     4  C    0.162304
     5  C   -0.170397
     6  C   -0.217043
     7  H    0.226055
     8  H    0.223736
     9  H    0.277040
    10  H    0.275588
    11  H    0.223803
    12  N    0.488886
    13  O   -0.460720
    14  O   -0.458017
    15  C   -0.297322
    16  C   -0.301374
    17  C   -0.475181
    18  H    0.147277
    19  H    0.150741
    20  H    0.150942
    21  H    0.151437
    22  H    0.156697
    23  H    0.154043
    24  H    0.156074
    25  C   -0.302071
    26  C   -0.300227
    27  C   -0.476120
    28  H    0.146439
    29  H    0.151466
    30  H    0.146701
    31  H    0.151618
    32  H    0.176742
    33  H    0.148038
    34  H    0.154943
 Sum of Mulliken charges =  -0.00000

 Dipole moment (field-independent basis, Debye):
    X=             -0.8645    Y=              4.3310    Z=              2.5290  Tot=              5.0893
 Quadrupole moment (field-independent basis, Debye-Ang):
   XX=            -93.3785   YY=            -97.4752   ZZ=            -91.1628
   XY=             -9.3380   XZ=             -3.9166   YZ=             -2.8221

 Normal termination of Gaussian 16 at Thu May  6 12:36:30 2021.
