 Gaussian 16, Revision A.03,
 Gaussian 16:  EM64L-G16RevA.03 25-Dec-2016

 -------------
 #p 6-31g* mp2
 -------------

 ------------------------------------------------------
 Input file generated by CHIRIPA (05-May-2021 14:51:08)
 ------------------------------------------------------
 Symbolic Z-matrix:
 Charge =  0 Multiplicity = 1

                         Standard orientation:
 ---------------------------------------------------------------------
 Center     Atomic      Atomic             Coordinates (Angstroms)
 Number     Number       Type             X           Y           Z
 ---------------------------------------------------------------------
      1          6           0       -3.697984   -0.396792   -0.391248
      2          6           0       -5.092612   -0.165948    0.191596
      3          6           0       -6.144582    0.108633   -0.883466
      4          1           0       -3.402802    0.483312   -0.978810
      5          1           0       -3.736474   -1.242061   -1.092271
      6          1           0       -5.051210    0.677755    0.892358
      7          1           0       -5.384430   -1.046625    0.777998
      8          1           0       -6.215215   -0.734958   -1.577705
      9          1           0       -5.880103    0.999220   -1.462695
     10          1           0       -7.134093    0.270752   -0.444779
     11          6           0       -2.635437   -0.672576    0.671139
     12          6           0       -1.240808   -0.903420    0.088295
     13          6           0       -0.188838   -1.178000    1.163357
     14          1           0       -2.596947    0.172693    1.372162
     15          1           0       -2.930619   -1.552679    1.258701
     16          1           0       -0.948991   -0.022743   -0.498107
     17          1           0       -1.282210   -1.747123   -0.612467
     18          1           0       -0.453318   -2.068588    1.742585
     19          1           0       -0.118205   -0.334410    1.857596
     20          1           0        0.800672   -1.340120    0.724670
     21          6           0        2.818324    1.053972    0.298688
     22          6           0        1.934269    2.019805   -0.490995
     23          6           0        1.244075    3.052717    0.400364
     24          1           0        2.206425    0.539616    1.052320
     25          1           0        3.575629    1.628403    0.849971
     26          1           0        1.179725    1.443624   -1.041717
     27          1           0        2.548306    2.531782   -1.242963
     28          1           0        1.984501    3.652576    0.939380
     29          1           0        0.608145    2.558236    1.141770
     30          1           0        0.617212    3.732937   -0.184618
     31          6           0        3.515096    0.015395   -0.578578
     32          6           0        4.399151   -0.950439    0.211104
     33          6           0        5.089346   -1.983349   -0.680255
     34          1           0        2.757792   -0.559036   -1.129862
     35          1           0        4.126996    0.529752   -1.332210
     36          1           0        3.785114   -1.462414    0.963072
     37          1           0        5.153694   -0.374257    0.761826
     38          1           0        5.725276   -1.488868   -1.421661
     39          1           0        4.348920   -2.583208   -1.219271
     40          1           0        5.716208   -2.663569   -0.095272
 ---------------------------------------------------------------------

 SCF Done:  E(RHF) =  -470.732329410     A.U. after   11 cycles
 E2 =    -0.1584543142D+01 EUMP2 =    -0.47231687255194D+03

 The electronic state is 1-A.
 Alpha  occ. eigenvalues --  -11.21692 -11.21630 -11.21590 -11.21567 -11.21459
 Alpha  occ. eigenvalues --  -11.21395 -11.21358 -11.21224 -11.21170 -11.21092
 Alpha  occ. eigenvalues --  -11.21086 -11.21061  -1.08506  -1.08382  -1.03614
 Alpha  occ. eigenvalues --   -1.03497  -0.96075  -0.95940  -0.87086  -0.86966
 Alpha  occ. eigenvalues --   -0.79713  -0.79540  -0.78325  -0.78169  -0.65318
 Alpha  occ. eigenvalues --   -0.64941  -0.61215  -0.60686  -0.59415  -0.59319
 Alpha  occ. eigenvalues --   -0.57669  -0.57556  -0.55369  -0.55235  -0.52758
 Alpha  occ. eigenvalues --   -0.52655  -0.52470  -0.52353  -0.50053  -0.49863
 Alpha  occ. eigenvalues --   -0.48033  -0.47840  -0.46928  -0.46466  -0.45884
 Alpha  occ. eigenvalues --   -0.45831  -0.45682  -0.45472  -0.43808  -0.43731
 Alpha virt. eigenvalues --    0.19531   0.22470   0.23532   0.25264   0.25706
 Alpha virt. eigenvalues --    0.26146   0.26695   0.27825   0.28187   0.29340
 Alpha virt. eigenvalues --    0.30278   0.30959   0.31798   0.32019   0.32656

 Mulliken charges:
               1
     1  C   -0.298435
     2  C   -0.299731
     3  C   -0.475759
     4  H    0.149917
     5  H    0.149590
     6  H    0.152132
     7  H    0.151981
     8  H    0.155199
     9  H    0.155300
    10  H    0.160381
    11  C   -0.298389
    12  C   -0.304209
    13  C   -0.482474
    14  H    0.149810
    15  H    0.149940
    16  H    0.156180
    17  H    0.152198
    18  H    0.155980
    19  H    0.156027
    20  H    0.166161
    21  C   -0.304541
    22  C   -0.302765
    23  C   -0.476842
    24  H    0.158436
    25  H    0.148933
    26  H    0.154624
    27  H    0.151924
    28  H    0.155587
    29  H    0.155167
    30  H    0.159788
    31  C   -0.300090
    32  C   -0.301210
    33  C   -0.475535
    34  H    0.149203
    35  H    0.150071
    36  H    0.152706
    37  H    0.152292
    38  H    0.155222
    39  H    0.154954
    40  H    0.160275
 Sum of Mulliken charges =  -0.00000

 Dipole moment (field-independent basis, Debye):
    X=             -0.0317    Y=             -0.0214    Z=              0.0173  Tot=              0.0419
 Quadrupole moment (field-independent basis, Debye-Ang):
   XX=            -85.2209   YY=            -84.1315   ZZ=            -85.4680
   XY=              1.3195   XZ=             -0.3208   YZ=             -0.2919

 Normal termination of Gaussian 16 at Wed May  5 15:05:35 2021.
