 Gaussian 16, Revision A.03,
 Gaussian 16:  EM64L-G16RevA.03 25-Dec-2016

 -------------
 #p 6-31g* mp2
 -------------

 ------------------------------------------------------
 Input file generated by CHIRIPA (05-May-2021 14:51:09)
 ------------------------------------------------------
 Symbolic Z-matrix:
 Charge =  0 Multiplicity = 1

                         Standard orientation:
 ---------------------------------------------------------------------
 Center     Atomic      Atomic             Coordinates (Angstroms)
 Number     Number       Type             X           Y           Z
 ---------------------------------------------------------------------
      1          6           0       -3.493554   -0.694171   -0.185825
      2          6           0       -4.774126    0.139385   -0.243332
      3          6           0       -5.779031   -0.390633   -1.266582
      4          1           0       -3.030138   -0.711920   -1.181754
      5          1           0       -3.751895   -1.734145    0.057296
      6          1           0       -4.513318    1.177766   -0.484910
      7          1           0       -5.234446    0.155311    0.752895
      8          1           0       -6.067986   -1.418818   -1.025871
      9          1           0       -5.342761   -0.390553   -2.270709
     10          1           0       -6.686969    0.220028   -1.291115
     11          6           0       -2.479149   -0.176790    0.832521
     12          6           0       -1.198577   -1.010346    0.890028
     13          6           0       -0.193672   -0.480328    1.913278
     14          1           0       -2.220808    0.863184    0.589400
     15          1           0       -2.942565   -0.159041    1.828450
     16          1           0       -0.738257   -1.026272   -0.106199
     17          1           0       -1.459385   -2.048727    1.131606
     18          1           0       -0.629942   -0.480408    2.917404
     19          1           0        0.095283    0.547857    1.672567
     20          1           0        0.714266   -1.090989    1.937811
     21          6           0        3.587587    0.012892   -0.115104
     22          6           0        3.661169   -1.333606   -0.835878
     23          6           0        4.869367   -2.167581   -0.408633
     24          1           0        4.510707    0.576181   -0.308759
     25          1           0        3.549241   -0.161118    0.969168
     26          1           0        3.697971   -1.157152   -1.918525
     27          1           0        2.737686   -1.893674   -0.640641
     28          1           0        4.835114   -2.372838    0.666215
     29          1           0        5.800854   -1.632131   -0.618930
     30          1           0        4.902434   -3.125959   -0.936154
     31          6           0        2.385115    0.858069   -0.531592
     32          6           0        2.311533    2.204566    0.189182
     33          6           0        1.103336    3.038542   -0.238064
     34          1           0        2.423463    1.032079   -1.615864
     35          1           0        1.461996    0.294781   -0.337937
     36          1           0        3.235017    2.764635   -0.006055
     37          1           0        2.274733    2.028113    1.271829
     38          1           0        0.171849    2.503093   -0.027766
     39          1           0        1.137589    3.243800   -1.312911
     40          1           0        1.070269    3.996919    0.289458
 ---------------------------------------------------------------------

 SCF Done:  E(RHF) =  -470.732290392     A.U. after   11 cycles
 E2 =    -0.1584972141D+01 EUMP2 =    -0.47231726253343D+03

 The electronic state is 1-A.
 Alpha  occ. eigenvalues --  -11.21693 -11.21623 -11.21590 -11.21590 -11.21466
 Alpha  occ. eigenvalues --  -11.21397 -11.21352 -11.21266 -11.21138 -11.21124
 Alpha  occ. eigenvalues --  -11.21085 -11.21062  -1.08517  -1.08386  -1.03629
 Alpha  occ. eigenvalues --   -1.03501  -0.96061  -0.95962  -0.87082  -0.86974
 Alpha  occ. eigenvalues --   -0.79656  -0.79590  -0.78308  -0.78217  -0.65441
 Alpha  occ. eigenvalues --   -0.64833  -0.61304  -0.60634  -0.59425  -0.59328
 Alpha  occ. eigenvalues --   -0.57683  -0.57562  -0.55400  -0.55178  -0.52726
 Alpha  occ. eigenvalues --   -0.52676  -0.52462  -0.52395  -0.50090  -0.49808
 Alpha  occ. eigenvalues --   -0.48049  -0.47832  -0.46681  -0.46624  -0.45948
 Alpha  occ. eigenvalues --   -0.45770  -0.45690  -0.45539  -0.43841  -0.43766
 Alpha virt. eigenvalues --    0.19586   0.22446   0.23506   0.24444   0.25883
 Alpha virt. eigenvalues --    0.26232   0.26521   0.28115   0.28477   0.29852
 Alpha virt. eigenvalues --    0.30444   0.30942   0.31385   0.31776   0.32416

 Mulliken charges:
               1
     1  C   -0.298383
     2  C   -0.299809
     3  C   -0.475767
     4  H    0.150117
     5  H    0.149699
     6  H    0.152287
     7  H    0.151969
     8  H    0.155173
     9  H    0.155337
    10  H    0.160392
    11  C   -0.300654
    12  C   -0.304033
    13  C   -0.485211
    14  H    0.151187
    15  H    0.150243
    16  H    0.154455
    17  H    0.152893
    18  H    0.156877
    19  H    0.162399
    20  H    0.161047
    21  C   -0.298513
    22  C   -0.300527
    23  C   -0.475606
    24  H    0.149521
    25  H    0.150108
    26  H    0.151884
    27  H    0.152011
    28  H    0.155030
    29  H    0.155250
    30  H    0.160191
    31  C   -0.306871
    32  C   -0.302066
    33  C   -0.480001
    34  H    0.148677
    35  H    0.161550
    36  H    0.152926
    37  H    0.153139
    38  H    0.156577
    39  H    0.155684
    40  H    0.160815
 Sum of Mulliken charges =  -0.00000

 Dipole moment (field-independent basis, Debye):
    X=             -0.0307    Y=             -0.0049    Z=              0.0118  Tot=              0.0333
 Quadrupole moment (field-independent basis, Debye-Ang):
   XX=            -85.6525   YY=            -84.8731   ZZ=            -84.2502
   XY=              0.8904   XZ=             -1.4339   YZ=             -0.7728

 Normal termination of Gaussian 16 at Wed May  5 15:06:48 2021.
