 Gaussian 16, Revision A.03,
 Gaussian 16:  EM64L-G16RevA.03 25-Dec-2016

 -------------
 #p 6-31g* mp2
 -------------

 ------------------------------------------------------
 Input file generated by CHIRIPA (05-May-2021 14:55:20)
 ------------------------------------------------------
 Symbolic Z-matrix:
 Charge =  0 Multiplicity = 1

                         Standard orientation:
 ---------------------------------------------------------------------
 Center     Atomic      Atomic             Coordinates (Angstroms)
 Number     Number       Type             X           Y           Z
 ---------------------------------------------------------------------
      1          6           0       -0.862444   -1.443130    0.693914
      2          6           0       -2.080190   -1.855403    1.244955
      3          6           0       -3.275813   -1.236562    0.868032
      4          6           0       -3.216685   -0.204052   -0.066696
      5          6           0       -2.019150    0.229295   -0.633626
      6          6           0       -0.835858   -0.403928   -0.241968
      7          1           0        0.061554   -1.929446    0.992440
      8          1           0       -2.103857   -2.662195    1.971985
      9          1           0       -4.232435   -1.535799    1.278823
     10          1           0       -2.027366    1.036344   -1.356138
     11          1           0        0.108405   -0.081662   -0.671571
     12          7           0       -4.475910    0.458700   -0.473527
     13          8           0       -4.396964    1.365981   -1.298904
     14          8           0       -5.517993    0.058335    0.040678
     15          6           0        4.386985   -0.033798   -0.328882
     16          6           0        4.112231   -1.532648   -0.202614
     17          6           0        5.191876   -2.389383   -0.864554
     18          1           0        4.465342    0.229823   -1.392512
     19          1           0        5.363266    0.192186    0.121898
     20          1           0        3.136138   -1.755518   -0.652264
     21          1           0        4.034330   -1.792696    0.860835
     22          1           0        6.169175   -2.196117   -0.410528
     23          1           0        5.265879   -2.158728   -1.932224
     24          1           0        4.975567   -3.457388   -0.762391
     25          6           0        3.316437    0.835798    0.327974
     26          6           0        3.591191    2.334648    0.201705
     27          6           0        2.511546    3.191383    0.863645
     28          1           0        2.340157    0.609814   -0.122806
     29          1           0        3.238081    0.572177    1.391604
     30          1           0        3.669093    2.594697   -0.861743
     31          1           0        4.567285    2.557518    0.651357
     32          1           0        2.437543    2.960728    1.931317
     33          1           0        1.534249    2.998117    0.409620
     34          1           0        2.727856    4.259387    0.761483
 ---------------------------------------------------------------------

 SCF Done:  E(RHF) =  -669.535548976     A.U. after   15 cycles
 E2 =    -0.2091459916D+01 EUMP2 =    -0.67162700889284D+03

 The electronic state is 1-A.
 Alpha  occ. eigenvalues --  -20.60732 -20.60727 -15.85786 -11.31146 -11.27720
 Alpha  occ. eigenvalues --  -11.27716 -11.27443 -11.26726 -11.26707 -11.22603
 Alpha  occ. eigenvalues --  -11.22439 -11.22345 -11.22267 -11.21849 -11.21703
 Alpha  occ. eigenvalues --   -1.59808  -1.39362  -1.19318  -1.09345  -1.08710
 Alpha  occ. eigenvalues --   -1.04724  -1.04352  -0.96785  -0.95546  -0.87797
 Alpha  occ. eigenvalues --   -0.86123  -0.82383  -0.80426  -0.79192  -0.77431
 Alpha  occ. eigenvalues --   -0.72004  -0.71131  -0.70417  -0.66018  -0.64969
 Alpha  occ. eigenvalues --   -0.64714  -0.62092  -0.61734  -0.60157  -0.58403
 Alpha  occ. eigenvalues --   -0.56074  -0.55209  -0.53448  -0.53228  -0.53047
 Alpha  occ. eigenvalues --   -0.52813  -0.50722  -0.48780  -0.48760  -0.48719
 Alpha  occ. eigenvalues --   -0.47467  -0.46692  -0.46631  -0.44769  -0.44632
 Alpha  occ. eigenvalues --   -0.37290  -0.36326
 Alpha virt. eigenvalues --    0.05105   0.11285   0.16575   0.18820   0.22761
 Alpha virt. eigenvalues --    0.23295   0.24681   0.25951   0.27157   0.27890
 Alpha virt. eigenvalues --    0.29679   0.30548   0.30977   0.31316   0.31822

 Mulliken charges:
               1
     1  C   -0.173318
     2  C   -0.218681
     3  C   -0.171031
     4  C    0.158859
     5  C   -0.172364
     6  C   -0.223452
     7  H    0.227277
     8  H    0.223292
     9  H    0.275462
    10  H    0.275620
    11  H    0.230825
    12  N    0.488005
    13  O   -0.460554
    14  O   -0.460572
    15  C   -0.298232
    16  C   -0.300457
    17  C   -0.475883
    18  H    0.151936
    19  H    0.153735
    20  H    0.144631
    21  H    0.151302
    22  H    0.158061
    23  H    0.157551
    24  H    0.161383
    25  C   -0.303075
    26  C   -0.300338
    27  C   -0.475674
    28  H    0.141744
    29  H    0.151230
    30  H    0.153468
    31  H    0.155253
    32  H    0.156799
    33  H    0.152968
    34  H    0.164233
 Sum of Mulliken charges =  -0.00000

 Dipole moment (field-independent basis, Debye):
    X=              4.6692    Y=             -2.2745    Z=              1.4676  Tot=              5.3971
 Quadrupole moment (field-independent basis, Debye-Ang):
   XX=           -121.6715   YY=            -92.6981   ZZ=            -92.9433
   XY=              9.0885   XZ=             -6.0166   YZ=             -2.5895

 Normal termination of Gaussian 16 at Thu May  6 01:23:06 2021.
