 Gaussian 16, Revision A.03,
 Gaussian 16:  EM64L-G16RevA.03 25-Dec-2016

 -------------
 #p 6-31g* mp2
 -------------

 ------------------------------------------------------
 Input file generated by CHIRIPA (05-May-2021 14:51:10)
 ------------------------------------------------------
 Symbolic Z-matrix:
 Charge =  0 Multiplicity = 1

                         Standard orientation:
 ---------------------------------------------------------------------
 Center     Atomic      Atomic             Coordinates (Angstroms)
 Number     Number       Type             X           Y           Z
 ---------------------------------------------------------------------
      1          6           0       -4.826245   -0.667892    0.005149
      2          6           0       -6.051643    0.203145   -0.273559
      3          6           0       -7.329078   -0.616032   -0.460378
      4          1           0       -4.691452   -1.376060   -0.823871
      5          1           0       -5.010869   -1.271249    0.904744
      6          1           0       -5.864219    0.805695   -1.171569
      7          1           0       -6.183421    0.909450    0.556130
      8          1           0       -7.543419   -1.205468    0.436965
      9          1           0       -7.222403   -1.309813   -1.300551
     10          1           0       -8.192653    0.026493   -0.658514
     11          6           0       -3.541441    0.136634    0.194209
     12          6           0       -2.316043   -0.734404    0.472918
     13          6           0       -1.038608    0.084774    0.659737
     14          1           0       -3.356817    0.739990   -0.705385
     15          1           0       -3.676233    0.844801    1.023230
     16          1           0       -2.184264   -1.440708   -0.356772
     17          1           0       -2.503467   -1.336954    1.370928
     18          1           0       -1.145282    0.778554    1.499910
     19          1           0       -0.824266    0.674210   -0.237606
     20          1           0       -0.175032   -0.557752    0.857873
     21          6           0        4.920279    0.068890   -0.148541
     22          6           0        5.151883   -1.439997   -0.061328
     23          6           0        6.630103   -1.817889   -0.160612
     24          1           0        5.332943    0.442633   -1.095625
     25          1           0        5.481526    0.565996    0.654754
     26          1           0        4.589260   -1.934229   -0.863703
     27          1           0        4.738449   -1.810223    0.885572
     28          1           0        7.202127   -1.351410    0.647959
     29          1           0        7.052089   -1.476120   -1.111256
     30          1           0        6.772785   -2.901091   -0.095993
     31          6           0        3.447407    0.462369   -0.050818
     32          6           0        3.215803    1.971256   -0.138030
     33          6           0        1.737582    2.349147   -0.038747
     34          1           0        2.886159   -0.034737   -0.854113
     35          1           0        3.034743    0.088625    0.896267
     36          1           0        3.629236    2.341482   -1.084932
     37          1           0        3.778427    2.465488    0.664344
     38          1           0        1.315597    2.007379    0.911896
     39          1           0        1.165559    1.882668   -0.847318
     40          1           0        1.594900    3.432349   -0.103366
 ---------------------------------------------------------------------

 SCF Done:  E(RHF) =  -470.732353082     A.U. after   11 cycles
 E2 =    -0.1583021146D+01 EUMP2 =    -0.47231537422784D+03

 The electronic state is 1-A.
 Alpha  occ. eigenvalues --  -11.21586 -11.21576 -11.21529 -11.21515 -11.21371
 Alpha  occ. eigenvalues --  -11.21365 -11.21311 -11.21304 -11.21059 -11.21052
 Alpha  occ. eigenvalues --  -11.20936 -11.20915  -1.08400  -1.08375  -1.03525
 Alpha  occ. eigenvalues --   -1.03435  -0.96018  -0.95844  -0.87090  -0.86813
 Alpha  occ. eigenvalues --   -0.79710  -0.79394  -0.78243  -0.78148  -0.65044
 Alpha  occ. eigenvalues --   -0.64998  -0.60967  -0.60804  -0.59373  -0.59223
 Alpha  occ. eigenvalues --   -0.57694  -0.57419  -0.55371  -0.55078  -0.52812
 Alpha  occ. eigenvalues --   -0.52644  -0.52511  -0.52009  -0.50050  -0.49698
 Alpha  occ. eigenvalues --   -0.48074  -0.47606  -0.46692  -0.46450  -0.45833
 Alpha  occ. eigenvalues --   -0.45705  -0.45654  -0.45563  -0.43750  -0.43697
 Alpha virt. eigenvalues --    0.22222   0.23021   0.23605   0.24850   0.25938
 Alpha virt. eigenvalues --    0.26488   0.26828   0.27286   0.27868   0.29400
 Alpha virt. eigenvalues --    0.29581   0.30857   0.31547   0.32083   0.32339

 Mulliken charges:
               1
     1  C   -0.298149
     2  C   -0.299587
     3  C   -0.475671
     4  H    0.149480
     5  H    0.149437
     6  H    0.151852
     7  H    0.151899
     8  H    0.155135
     9  H    0.155108
    10  H    0.160163
    11  C   -0.298158
    12  C   -0.301172
    13  C   -0.476437
    14  H    0.149313
    15  H    0.149539
    16  H    0.151299
    17  H    0.151142
    18  H    0.153762
    19  H    0.159446
    20  H    0.160661
    21  C   -0.298210
    22  C   -0.299604
    23  C   -0.475670
    24  H    0.149583
    25  H    0.149467
    26  H    0.151813
    27  H    0.151780
    28  H    0.155173
    29  H    0.155152
    30  H    0.160162
    31  C   -0.298586
    32  C   -0.299949
    33  C   -0.477684
    34  H    0.149501
    35  H    0.149844
    36  H    0.151244
    37  H    0.151375
    38  H    0.160993
    39  H    0.155796
    40  H    0.158760
 Sum of Mulliken charges =  -0.00000

 Dipole moment (field-independent basis, Debye):
    X=              0.0075    Y=              0.0174    Z=              0.0040  Tot=              0.0194
 Quadrupole moment (field-independent basis, Debye-Ang):
   XX=            -87.0873   YY=            -85.2667   ZZ=            -82.7353
   XY=             -0.0838   XZ=             -0.1681   YZ=              0.0762

 Normal termination of Gaussian 16 at Thu May  6 05:22:00 2021.
