 Gaussian 16, Revision A.03,
 Gaussian 16:  EM64L-G16RevA.03 25-Dec-2016

 -------------
 #p 6-31g* mp2
 -------------

 ------------------------------------------------------
 Input file generated by CHIRIPA (05-May-2021 14:53:14)
 ------------------------------------------------------
 Symbolic Z-matrix:
 Charge =  0 Multiplicity = 1

                         Standard orientation:
 ---------------------------------------------------------------------
 Center     Atomic      Atomic             Coordinates (Angstroms)
 Number     Number       Type             X           Y           Z
 ---------------------------------------------------------------------
      1          6           0        3.751302   -0.508769   -0.158304
      2          6           0        5.153463   -0.565615   -0.765507
      3          6           0        5.421169   -1.871911   -1.513651
      4          1           0        3.620192   -1.358300    0.525840
      5          1           0        3.007795   -0.633569   -0.957689
      6          1           0        5.894078   -0.439360    0.034596
      7          1           0        5.281318    0.284258   -1.448139
      8          1           0        4.704657   -2.001410   -2.331234
      9          1           0        5.320898   -2.729140   -0.840074
     10          1           0        6.429140   -1.891266   -1.939654
     11          6           0        3.468657    0.791072    0.592864
     12          6           0        2.066495    0.847918    1.200068
     13          6           0        1.798790    2.154214    1.948211
     14          1           0        4.212164    0.915872    1.392249
     15          1           0        3.599767    1.640603   -0.091279
     16          1           0        1.938640   -0.001955    1.882699
     17          1           0        1.325881    0.721663    0.399964
     18          1           0        1.899060    3.011443    1.274635
     19          1           0        2.515302    2.283713    2.765794
     20          1           0        0.790818    2.173569    2.374214
     21          6           0       -2.343713    2.057280   -1.369957
     22          6           0       -3.513316    1.343679   -1.651599
     23          6           0       -3.787664    0.141557   -0.992673
     24          6           0       -2.866371   -0.319826   -0.053719
     25          6           0       -1.692343    0.368256    0.248760
     26          6           0       -1.438555    1.568154   -0.422347
     27          1           0       -2.138579    2.990253   -1.886558
     28          1           0       -4.218074    1.721141   -2.387048
     29          1           0       -4.685435   -0.431093   -1.191412
     30          1           0       -1.008773   -0.033304    0.986933
     31          1           0       -0.529420    2.120229   -0.201597
     32          7           0       -3.145927   -1.591282    0.650305
     33          8           0       -2.318254   -1.976412    1.473269
     34          8           0       -4.187423   -2.178643    0.365824
 ---------------------------------------------------------------------

 SCF Done:  E(RHF) =  -669.534946339     A.U. after   15 cycles
 E2 =    -0.2092637653D+01 EUMP2 =    -0.67162758399173D+03

 The electronic state is 1-A.
 Alpha  occ. eigenvalues --  -20.60728 -20.60723 -15.85780 -11.31134 -11.27720
 Alpha  occ. eigenvalues --  -11.27664 -11.27453 -11.26734 -11.26670 -11.22420
 Alpha  occ. eigenvalues --  -11.21982 -11.21963 -11.21882 -11.21727 -11.21246
 Alpha  occ. eigenvalues --   -1.59803  -1.39356  -1.19313  -1.08961  -1.08708
 Alpha  occ. eigenvalues --   -1.04733  -1.04076  -0.96519  -0.95545  -0.87527
 Alpha  occ. eigenvalues --   -0.86110  -0.82395  -0.80187  -0.78734  -0.77414
 Alpha  occ. eigenvalues --   -0.71999  -0.71126  -0.70426  -0.65662  -0.64960
 Alpha  occ. eigenvalues --   -0.64703  -0.62279  -0.61322  -0.59856  -0.58096
 Alpha  occ. eigenvalues --   -0.55804  -0.55198  -0.53224  -0.53083  -0.52911
 Alpha  occ. eigenvalues --   -0.52773  -0.50455  -0.48759  -0.48756  -0.48461
 Alpha  occ. eigenvalues --   -0.47207  -0.46259  -0.46158  -0.44764  -0.44307
 Alpha  occ. eigenvalues --   -0.37298  -0.36298
 Alpha virt. eigenvalues --    0.05073   0.11332   0.16467   0.19833   0.22751
 Alpha virt. eigenvalues --    0.23804   0.25778   0.26178   0.26971   0.28104
 Alpha virt. eigenvalues --    0.29250   0.30448   0.31107   0.31441   0.32044

 Mulliken charges:
               1
     1  C   -0.299609
     2  C   -0.300115
     3  C   -0.476112
     4  H    0.153839
     5  H    0.150083
     6  H    0.152780
     7  H    0.151005
     8  H    0.155709
     9  H    0.157309
    10  H    0.160913
    11  C   -0.297081
    12  C   -0.311898
    13  C   -0.481504
    14  H    0.152712
    15  H    0.148087
    16  H    0.160743
    17  H    0.147056
    18  H    0.151766
    19  H    0.163522
    20  H    0.160057
    21  C   -0.171617
    22  C   -0.218753
    23  C   -0.170783
    24  C    0.158234
    25  C   -0.175251
    26  C   -0.224861
    27  H    0.225519
    28  H    0.223219
    29  H    0.275426
    30  H    0.281289
    31  H    0.231275
    32  N    0.488282
    33  O   -0.460553
    34  O   -0.460687
 Sum of Mulliken charges =  -0.00000

 Dipole moment (field-independent basis, Debye):
    X=              1.1609    Y=              4.4135    Z=             -2.4236  Tot=              5.1672
 Quadrupole moment (field-independent basis, Debye-Ang):
   XX=            -96.3522   YY=            -98.9231   ZZ=            -93.1576
   XY=            -12.8180   XZ=             10.4091   YZ=             -0.0837

 Normal termination of Gaussian 16 at Wed May  5 17:04:38 2021.
