 Gaussian 16, Revision A.03,
 Gaussian 16:  EM64L-G16RevA.03 25-Dec-2016

 -------------
 #p 6-31g* mp2
 -------------

 ------------------------------------------------------
 Input file generated by CHIRIPA (05-May-2021 14:55:21)
 ------------------------------------------------------
 Symbolic Z-matrix:
 Charge =  0 Multiplicity = 1

                         Standard orientation:
 ---------------------------------------------------------------------
 Center     Atomic      Atomic             Coordinates (Angstroms)
 Number     Number       Type             X           Y           Z
 ---------------------------------------------------------------------
      1          6           0        2.907910    2.436135   -0.014904
      2          6           0        2.030921    1.352777    0.102335
      3          6           0        2.512346    0.041119    0.054070
      4          6           0        3.882812   -0.151564   -0.113221
      5          6           0        4.781858    0.907051   -0.232970
      6          6           0        4.278165    2.210213   -0.181888
      7          1           0        2.525278    3.451763    0.023684
      8          1           0        0.966278    1.525234    0.232103
      9          1           0        1.855716   -0.815900    0.142237
     10          1           0        5.838033    0.703552   -0.361431
     11          1           0        4.961585    3.049643   -0.273209
     12          7           0        4.404263   -1.535661   -0.165809
     13          8           0        5.615963   -1.678749   -0.313949
     14          8           0        3.591402   -2.451220   -0.057890
     15          6           0       -4.323910   -0.231312    0.661342
     16          6           0       -2.911300    0.118605    0.192221
     17          6           0       -1.849867   -0.153623    1.258546
     18          1           0       -4.555907    0.345250    1.567266
     19          1           0       -4.355191   -1.291363    0.948934
     20          1           0       -2.883043    1.177338   -0.095710
     21          1           0       -2.682711   -0.458715   -0.712801
     22          1           0       -1.848919   -1.211667    1.539872
     23          1           0       -2.050391    0.433681    2.160469
     24          1           0       -0.847530    0.103552    0.902116
     25          6           0       -5.396079    0.035341   -0.393683
     26          6           0       -6.808689   -0.314577    0.075437
     27          6           0       -7.870122   -0.042348   -0.990887
     28          1           0       -5.364797    1.095391   -0.681276
     29          1           0       -5.164082   -0.541222   -1.299608
     30          1           0       -7.037279    0.262742    0.980459
     31          1           0       -6.836946   -1.373309    0.363367
     32          1           0       -7.669599   -0.629653   -1.892810
     33          1           0       -7.871070    1.015695   -1.272213
     34          1           0       -8.872459   -0.299523   -0.634458
 ---------------------------------------------------------------------

 SCF Done:  E(RHF) =  -669.535383008     A.U. after   15 cycles
 E2 =    -0.2090937522D+01 EUMP2 =    -0.67162632053029D+03

 The electronic state is 1-A.
 Alpha  occ. eigenvalues --  -20.60730 -20.60725 -15.85784 -11.31147 -11.27719
 Alpha  occ. eigenvalues --  -11.27706 -11.27462 -11.26736 -11.26708 -11.22284
 Alpha  occ. eigenvalues --  -11.21965 -11.21905 -11.21878 -11.21754 -11.21319
 Alpha  occ. eigenvalues --   -1.59806  -1.39359  -1.19320  -1.08906  -1.08716
 Alpha  occ. eigenvalues --   -1.04728  -1.04043  -0.96503  -0.95551  -0.87523
 Alpha  occ. eigenvalues --   -0.86123  -0.82389  -0.80107  -0.78686  -0.77436
 Alpha  occ. eigenvalues --   -0.72002  -0.71128  -0.70432  -0.65528  -0.64977
 Alpha  occ. eigenvalues --   -0.64750  -0.62146  -0.61426  -0.59878  -0.58101
 Alpha  occ. eigenvalues --   -0.55765  -0.55231  -0.53290  -0.53049  -0.52978
 Alpha  occ. eigenvalues --   -0.52690  -0.50418  -0.48762  -0.48756  -0.48421
 Alpha  occ. eigenvalues --   -0.47122  -0.46236  -0.46138  -0.44765  -0.44296
 Alpha  occ. eigenvalues --   -0.37303  -0.36326
 Alpha virt. eigenvalues --    0.05103   0.11327   0.16587   0.19650   0.22614
 Alpha virt. eigenvalues --    0.23734   0.25876   0.26211   0.27049   0.28089
 Alpha virt. eigenvalues --    0.28725   0.30192   0.30952   0.31548   0.32046

 Mulliken charges:
               1
     1  C   -0.170877
     2  C   -0.223134
     3  C   -0.172810
     4  C    0.158711
     5  C   -0.170991
     6  C   -0.218597
     7  H    0.225708
     8  H    0.228850
     9  H    0.276242
    10  H    0.275481
    11  H    0.223261
    12  N    0.488209
    13  O   -0.460665
    14  O   -0.460407
    15  C   -0.299023
    16  C   -0.300188
    17  C   -0.480466
    18  H    0.150268
    19  H    0.152361
    20  H    0.149404
    21  H    0.154761
    22  H    0.162912
    23  H    0.158244
    24  H    0.149780
    25  C   -0.298720
    26  C   -0.300121
    27  C   -0.475988
    28  H    0.149032
    29  H    0.151037
    30  H    0.152131
    31  H    0.153242
    32  H    0.155980
    33  H    0.155005
    34  H    0.161370
 Sum of Mulliken charges =  -0.00000

 Dipole moment (field-independent basis, Debye):
    X=             -2.0305    Y=              4.8315    Z=              0.2052  Tot=              5.2448
 Quadrupole moment (field-independent basis, Debye-Ang):
   XX=           -104.8155   YY=            -95.2257   ZZ=            -95.8905
   XY=             21.4842   XZ=             -0.4021   YZ=             -0.4217

 Normal termination of Gaussian 16 at Thu May  6 12:29:20 2021.
