 Gaussian 16, Revision A.03,
 Gaussian 16:  EM64L-G16RevA.03 25-Dec-2016

 -------------
 #p 6-31g* mp2
 -------------

 ------------------------------------------------------
 Input file generated by CHIRIPA (05-May-2021 14:51:09)
 ------------------------------------------------------
 Symbolic Z-matrix:
 Charge =  0 Multiplicity = 1

                         Standard orientation:
 ---------------------------------------------------------------------
 Center     Atomic      Atomic             Coordinates (Angstroms)
 Number     Number       Type             X           Y           Z
 ---------------------------------------------------------------------
      1          6           0       -3.202248    0.964894    0.226096
      2          6           0       -2.420218    1.956524   -0.635928
      3          6           0       -2.073816    3.244606    0.111497
      4          1           0       -4.125043    1.444651    0.579970
      5          1           0       -2.612507    0.723242    1.121196
      6          1           0       -3.010662    2.195170   -1.529818
      7          1           0       -1.499270    1.474287   -0.987949
      8          1           0       -1.464017    3.025796    0.994033
      9          1           0       -2.983996    3.750775    0.449084
     10          1           0       -1.514911    3.939215   -0.523329
     11          6           0       -3.555908   -0.327765   -0.507174
     12          6           0       -4.337938   -1.319395    0.354850
     13          6           0       -4.684340   -2.607477   -0.392575
     14          1           0       -4.145649   -0.086113   -1.402275
     15          1           0       -2.633113   -0.807522   -0.861049
     16          1           0       -5.258885   -0.837157    0.706871
     17          1           0       -3.747493   -1.558040    1.248740
     18          1           0       -3.774159   -3.113646   -0.730162
     19          1           0       -5.294139   -2.388667   -1.275111
     20          1           0       -5.243245   -3.302085    0.242251
     21          6           0        2.795631   -0.282429    0.632185
     22          6           0        1.432173   -0.487828   -0.028705
     23          6           0        0.274918   -0.412745    0.967748
     24          1           0        2.934359   -1.040423    1.415221
     25          1           0        2.807536    0.693749    1.136498
     26          1           0        1.423320   -1.462730   -0.532790
     27          1           0        1.296755    0.270625   -0.810388
     28          1           0        0.255336    0.563672    1.462549
     29          1           0        0.382621   -1.179532    1.741724
     30          1           0       -0.690338   -0.562297    0.474013
     31          6           0        3.962524   -0.354700   -0.351107
     32          6           0        5.325982   -0.149301    0.309783
     33          6           0        6.483237   -0.224384   -0.686670
     34          1           0        3.950619   -1.330878   -0.855420
     35          1           0        3.823796    0.403294   -1.134143
     36          1           0        5.461401   -0.907754    1.091466
     37          1           0        5.334835    0.825601    0.813868
     38          1           0        6.375535    0.542403   -1.460646
     39          1           0        6.502819   -1.200802   -1.181471
     40          1           0        7.448493   -0.074832   -0.192935
 ---------------------------------------------------------------------

 SCF Done:  E(RHF) =  -470.732097324     A.U. after   11 cycles
 E2 =    -0.1584510627D+01 EUMP2 =    -0.47231660795031D+03

 The electronic state is 1-A.
 Alpha  occ. eigenvalues --  -11.21671 -11.21623 -11.21592 -11.21552 -11.21443
 Alpha  occ. eigenvalues --  -11.21386 -11.21381 -11.21277 -11.21098 -11.21087
 Alpha  occ. eigenvalues --  -11.21064 -11.21056  -1.08497  -1.08396  -1.03597
 Alpha  occ. eigenvalues --   -1.03489  -0.96063  -0.95936  -0.87075  -0.86959
 Alpha  occ. eigenvalues --   -0.79668  -0.79556  -0.78299  -0.78209  -0.65266
 Alpha  occ. eigenvalues --   -0.65037  -0.61156  -0.60746  -0.59386  -0.59299
 Alpha  occ. eigenvalues --   -0.57648  -0.57568  -0.55338  -0.55249  -0.52708
 Alpha  occ. eigenvalues --   -0.52643  -0.52444  -0.52342  -0.50002  -0.49866
 Alpha  occ. eigenvalues --   -0.47978  -0.47869  -0.46748  -0.46555  -0.45849
 Alpha  occ. eigenvalues --   -0.45786  -0.45735  -0.45612  -0.43808  -0.43723
 Alpha virt. eigenvalues --    0.20345   0.23008   0.23553   0.24889   0.25982
 Alpha virt. eigenvalues --    0.26293   0.26678   0.27599   0.27967   0.29432
 Alpha virt. eigenvalues --    0.30412   0.30721   0.31820   0.31930   0.32551

 Mulliken charges:
               1
     1  C   -0.304192
     2  C   -0.301549
     3  C   -0.476671
     4  H    0.150575
     5  H    0.154974
     6  H    0.151760
     7  H    0.154975
     8  H    0.155723
     9  H    0.155236
    10  H    0.159743
    11  C   -0.302345
    12  C   -0.299960
    13  C   -0.475690
    14  H    0.150571
    15  H    0.150161
    16  H    0.152260
    17  H    0.152582
    18  H    0.155105
    19  H    0.155157
    20  H    0.160279
    21  C   -0.298630
    22  C   -0.301185
    23  C   -0.485614
    24  H    0.149839
    25  H    0.149792
    26  H    0.151909
    27  H    0.152976
    28  H    0.155781
    29  H    0.155137
    30  H    0.170924
    31  C   -0.298331
    32  C   -0.299688
    33  C   -0.475732
    34  H    0.149562
    35  H    0.149778
    36  H    0.151964
    37  H    0.152031
    38  H    0.155250
    39  H    0.155206
    40  H    0.160342
 Sum of Mulliken charges =  -0.00000

 Dipole moment (field-independent basis, Debye):
    X=              0.0072    Y=             -0.0087    Z=              0.0125  Tot=              0.0169
 Quadrupole moment (field-independent basis, Debye-Ang):
   XX=            -84.9919   YY=            -84.6098   ZZ=            -85.2035
   XY=             -0.7139   XZ=              0.6653   YZ=             -0.7081

 Normal termination of Gaussian 16 at Wed May  5 18:10:34 2021.
