 Gaussian 16, Revision A.03,
 Gaussian 16:  EM64L-G16RevA.03 25-Dec-2016

 -------------
 #p 6-31g* mp2
 -------------

 ------------------------------------------------------
 Input file generated by CHIRIPA (05-May-2021 14:53:14)
 ------------------------------------------------------
 Symbolic Z-matrix:
 Charge =  0 Multiplicity = 1

                         Standard orientation:
 ---------------------------------------------------------------------
 Center     Atomic      Atomic             Coordinates (Angstroms)
 Number     Number       Type             X           Y           Z
 ---------------------------------------------------------------------
      1          6           0        3.773514    0.944092    0.394341
      2          6           0        2.881128    2.158618    0.136352
      3          6           0        3.331517    3.398127    0.910020
      4          1           0        3.780131    0.723940    1.470647
      5          1           0        4.807970    1.192982    0.119844
      6          1           0        1.848425    1.907059    0.409954
      7          1           0        2.876482    2.375787   -0.939488
      8          1           0        4.352731    3.676712    0.630531
      9          1           0        3.318832    3.205320    1.987640
     10          1           0        2.679700    4.254483    0.710896
     11          6           0        3.336016   -0.302866   -0.372093
     12          6           0        4.228402   -1.517393   -0.114104
     13          6           0        3.778013   -2.756902   -0.887772
     14          1           0        2.301560   -0.551757   -0.097596
     15          1           0        3.329399   -0.082714   -1.448399
     16          1           0        4.233048   -1.734562    0.961736
     17          1           0        5.261105   -1.265833   -0.387706
     18          1           0        3.790698   -2.564094   -1.965392
     19          1           0        2.756799   -3.035486   -0.608283
     20          1           0        4.429830   -3.613257   -0.688648
     21          6           0       -1.439576   -2.275321    0.681821
     22          6           0       -0.880510   -1.328667   -0.182941
     23          6           0       -1.612428   -0.202918   -0.572214
     24          6           0       -2.906473   -0.054725   -0.075447
     25          6           0       -3.491190   -0.980314    0.787502
     26          6           0       -2.740838   -2.098434    1.163434
     27          1           0       -0.863843   -3.146866    0.979036
     28          1           0        0.129841   -1.463446   -0.558533
     29          1           0       -1.204066    0.545465   -1.240480
     30          1           0       -4.500731   -0.818630    1.145416
     31          1           0       -3.177577   -2.831992    1.835146
     32          7           0       -3.691079    1.133018   -0.480491
     33          8           0       -4.829131    1.240504   -0.028913
     34          8           0       -3.153147    1.933994   -1.241873
 ---------------------------------------------------------------------

 SCF Done:  E(RHF) =  -669.535625481     A.U. after   15 cycles
 E2 =    -0.2091537704D+01 EUMP2 =    -0.67162716318554D+03

 The electronic state is 1-A.
 Alpha  occ. eigenvalues --  -20.60752 -20.60747 -15.85806 -11.31175 -11.27752
 Alpha  occ. eigenvalues --  -11.27738 -11.27492 -11.26766 -11.26723 -11.22389
 Alpha  occ. eigenvalues --  -11.22229 -11.22012 -11.21997 -11.21924 -11.21310
 Alpha  occ. eigenvalues --   -1.59828  -1.39381  -1.19350  -1.09097  -1.08744
 Alpha  occ. eigenvalues --   -1.04751  -1.04132  -0.96596  -0.95578  -0.87609
 Alpha  occ. eigenvalues --   -0.86152  -0.82411  -0.80216  -0.78914  -0.77449
 Alpha  occ. eigenvalues --   -0.72024  -0.71151  -0.70458  -0.65771  -0.65000
 Alpha  occ. eigenvalues --   -0.64733  -0.62109  -0.61513  -0.59973  -0.58195
 Alpha  occ. eigenvalues --   -0.55905  -0.55255  -0.53259  -0.53092  -0.53040
 Alpha  occ. eigenvalues --   -0.52827  -0.50543  -0.48794  -0.48778  -0.48511
 Alpha  occ. eigenvalues --   -0.47248  -0.46424  -0.46335  -0.44786  -0.44397
 Alpha  occ. eigenvalues --   -0.37332  -0.36349
 Alpha virt. eigenvalues --    0.05067   0.11236   0.16480   0.19292   0.22777
 Alpha virt. eigenvalues --    0.23487   0.25114   0.26432   0.26874   0.28262
 Alpha virt. eigenvalues --    0.29577   0.30068   0.31137   0.31338   0.31823

 Mulliken charges:
               1
     1  C   -0.297856
     2  C   -0.301121
     3  C   -0.476326
     4  H    0.150895
     5  H    0.152149
     6  H    0.151550
     7  H    0.153038
     8  H    0.155685
     9  H    0.155692
    10  H    0.164513
    11  C   -0.304149
    12  C   -0.299995
    13  C   -0.475942
    14  H    0.143625
    15  H    0.151275
    16  H    0.153074
    17  H    0.156278
    18  H    0.158056
    19  H    0.145352
    20  H    0.164340
    21  C   -0.172001
    22  C   -0.225316
    23  C   -0.173215
    24  C    0.158730
    25  C   -0.170925
    26  C   -0.218538
    27  H    0.225396
    28  H    0.232951
    29  H    0.276604
    30  H    0.275606
    31  H    0.223367
    32  N    0.488071
    33  O   -0.460572
    34  O   -0.460292
 Sum of Mulliken charges =  -0.00000

 Dipole moment (field-independent basis, Debye):
    X=              2.9316    Y=             -4.0989    Z=              1.4412  Tot=              5.2414
 Quadrupole moment (field-independent basis, Debye-Ang):
   XX=           -107.0440   YY=            -95.0205   ZZ=            -93.6063
   XY=             13.5698   XZ=             -7.4731   YZ=             -1.5005

 Normal termination of Gaussian 16 at Thu May  6 08:58:02 2021.
