 Gaussian 16, Revision A.03,
 Gaussian 16:  EM64L-G16RevA.03 25-Dec-2016

 -------------
 #p 6-31g* mp2
 -------------

 ------------------------------------------------------
 Input file generated by CHIRIPA (05-May-2021 14:55:20)
 ------------------------------------------------------
 Symbolic Z-matrix:
 Charge =  0 Multiplicity = 1

                         Standard orientation:
 ---------------------------------------------------------------------
 Center     Atomic      Atomic             Coordinates (Angstroms)
 Number     Number       Type             X           Y           Z
 ---------------------------------------------------------------------
      1          6           0        1.909215    1.902478   -0.328787
      2          6           0        3.282252    2.068962   -0.120043
      3          6           0        4.116500    0.958042    0.036269
      4          6           0        3.541576   -0.310564   -0.021977
      5          6           0        2.177314   -0.509039   -0.228584
      6          6           0        1.362093    0.616277   -0.382297
      7          1           0        1.268541    2.771059   -0.449205
      8          1           0        3.709911    3.066653   -0.078030
      9          1           0        5.182748    1.058160    0.199082
     10          1           0        1.780055   -1.516129   -0.265656
     11          1           0        0.296119    0.483967   -0.544284
     12          7           0        4.414685   -1.494265    0.142128
     13          8           0        3.883647   -2.601319    0.086754
     14          8           0        5.613534   -1.292582    0.323021
     15          6           0       -4.150619    0.829466    0.344546
     16          6           0       -2.822793    1.350243   -0.206502
     17          6           0       -2.439419    2.714906    0.366659
     18          1           0       -4.942999    1.557498    0.123077
     19          1           0       -4.084407    0.762901    1.439343
     20          1           0       -2.891023    1.414494   -1.300043
     21          1           0       -2.033518    0.620797    0.016137
     22          1           0       -2.343854    2.662153    1.456010
     23          1           0       -3.206232    3.460359    0.132351
     24          1           0       -1.487042    3.068268   -0.040736
     25          6           0       -4.547433   -0.533850   -0.219046
     26          6           0       -5.875259   -1.054626    0.332003
     27          6           0       -6.258633   -2.419290   -0.241158
     28          1           0       -4.613646   -0.467284   -1.313843
     29          1           0       -3.755054   -1.261882    0.002424
     30          1           0       -6.664535   -0.325180    0.109364
     31          1           0       -5.807030   -1.118877    1.425544
     32          1           0       -5.491822   -3.164742   -0.006851
     33          1           0       -6.354198   -2.366536   -1.330509
     34          1           0       -7.211012   -2.772652    0.166237
 ---------------------------------------------------------------------

 SCF Done:  E(RHF) =  -669.535441407     A.U. after   15 cycles
 E2 =    -0.2091434066D+01 EUMP2 =    -0.67162687547314D+03

 The electronic state is 1-A.
 Alpha  occ. eigenvalues --  -20.60726 -20.60721 -15.85778 -11.31133 -11.27702
 Alpha  occ. eigenvalues --  -11.27692 -11.27435 -11.26717 -11.26665 -11.22764
 Alpha  occ. eigenvalues --  -11.22259 -11.22210 -11.22107 -11.22023 -11.21459
 Alpha  occ. eigenvalues --   -1.59801  -1.39355  -1.19302  -1.09220  -1.08698
 Alpha  occ. eigenvalues --   -1.04706  -1.04329  -0.96759  -0.95537  -0.87777
 Alpha  occ. eigenvalues --   -0.86104  -0.82373  -0.80433  -0.78990  -0.77418
 Alpha  occ. eigenvalues --   -0.71997  -0.71124  -0.70421  -0.65865  -0.64954
 Alpha  occ. eigenvalues --   -0.64720  -0.62121  -0.61659  -0.60171  -0.58362
 Alpha  occ. eigenvalues --   -0.56015  -0.55227  -0.53482  -0.53180  -0.53031
 Alpha  occ. eigenvalues --   -0.52808  -0.50681  -0.48806  -0.48753  -0.48671
 Alpha  occ. eigenvalues --   -0.47441  -0.46528  -0.46416  -0.44763  -0.44573
 Alpha  occ. eigenvalues --   -0.37281  -0.36306
 Alpha virt. eigenvalues --    0.05113   0.11319   0.16597   0.18884   0.22473
 Alpha virt. eigenvalues --    0.23946   0.24798   0.25765   0.26276   0.27805
 Alpha virt. eigenvalues --    0.28698   0.29692   0.30850   0.31754   0.32232

 Mulliken charges:
               1
     1  C   -0.175055
     2  C   -0.218696
     3  C   -0.171117
     4  C    0.158800
     5  C   -0.172974
     6  C   -0.226252
     7  H    0.227889
     8  H    0.223344
     9  H    0.275351
    10  H    0.275527
    11  H    0.234990
    12  N    0.488035
    13  O   -0.460611
    14  O   -0.460630
    15  C   -0.298051
    16  C   -0.306028
    17  C   -0.476613
    18  H    0.152597
    19  H    0.152315
    20  H    0.154151
    21  H    0.146867
    22  H    0.160399
    23  H    0.161108
    24  H    0.150335
    25  C   -0.299140
    26  C   -0.300353
    27  C   -0.476292
    28  H    0.150418
    29  H    0.149298
    30  H    0.152873
    31  H    0.153263
    32  H    0.156322
    33  H    0.155764
    34  H    0.162166
 Sum of Mulliken charges =  -0.00000

 Dipole moment (field-independent basis, Debye):
    X=             -3.3525    Y=              4.1735    Z=             -0.5390  Tot=              5.3803
 Quadrupole moment (field-independent basis, Debye-Ang):
   XX=           -112.4687   YY=            -96.5900   ZZ=            -95.0487
   XY=             17.8966   XZ=             -1.3544   YZ=             -0.1455

 Normal termination of Gaussian 16 at Thu May  6 04:32:44 2021.
