 Gaussian 16, Revision A.03,
 Gaussian 16:  EM64L-G16RevA.03 25-Dec-2016

 -------------
 #p 6-31g* mp2
 -------------

 ------------------------------------------------------
 Input file generated by CHIRIPA (05-May-2021 14:55:21)
 ------------------------------------------------------
 Symbolic Z-matrix:
 Charge =  0 Multiplicity = 1

                         Standard orientation:
 ---------------------------------------------------------------------
 Center     Atomic      Atomic             Coordinates (Angstroms)
 Number     Number       Type             X           Y           Z
 ---------------------------------------------------------------------
      1          6           0        2.965977    2.537005    0.002957
      2          6           0        2.993310    1.917934    1.256960
      3          6           0        2.985568    0.523768    1.360832
      4          6           0        2.950038   -0.223964    0.184854
      5          6           0        2.922216    0.363388   -1.079082
      6          6           0        2.930579    1.759128   -1.159014
      7          1           0        2.972232    3.620638   -0.068435
      8          1           0        3.020825    2.519520    2.161052
      9          1           0        3.006208    0.018524    2.318809
     10          1           0        2.895043   -0.262896   -1.962512
     11          1           0        2.909297    2.237183   -2.134234
     12          7           0        2.941513   -1.700738    0.282147
     13          8           0        2.909996   -2.337039   -0.768931
     14          8           0        2.966511   -2.193969    1.407640
     15          6           0       -3.049360    0.201081   -0.175027
     16          6           0       -2.140257   -0.496133   -1.187652
     17          6           0       -0.685987   -0.033564   -1.093172
     18          1           0       -2.997599    1.287151   -0.332250
     19          1           0       -2.669085    0.013527    0.838683
     20          1           0       -2.522924   -0.308469   -2.199068
     21          1           0       -2.194335   -1.580681   -1.028125
     22          1           0       -0.281426   -0.235737   -0.096147
     23          1           0       -0.611882    1.043703   -1.273744
     24          1           0       -0.053725   -0.544661   -1.825895
     25          6           0       -4.506335   -0.250813   -0.257149
     26          6           0       -5.415439    0.446401    0.755475
     27          6           0       -6.869708   -0.016168    0.660995
     28          1           0       -4.886609   -0.063258   -1.270861
     29          1           0       -4.558097   -1.336883   -0.099927
     30          1           0       -5.361359    1.530949    0.595948
     31          1           0       -5.032771    0.258737    1.766892
     32          1           0       -6.943814   -1.093434    0.841567
     33          1           0       -7.274269    0.186005   -0.336029
     34          1           0       -7.501970    0.494929    1.393719
 ---------------------------------------------------------------------

 SCF Done:  E(RHF) =  -669.535299145     A.U. after   15 cycles
 E2 =    -0.2092386289D+01 EUMP2 =    -0.67162768543385D+03

 The electronic state is 1-A.
 Alpha  occ. eigenvalues --  -20.60762 -20.60753 -15.85808 -11.31137 -11.27732
 Alpha  occ. eigenvalues --  -11.27720 -11.27476 -11.26741 -11.26731 -11.21580
 Alpha  occ. eigenvalues --  -11.21481 -11.21354 -11.21295 -11.21042 -11.21013
 Alpha  occ. eigenvalues --   -1.59832  -1.39387  -1.19331  -1.08730  -1.08375
 Alpha  occ. eigenvalues --   -1.04736  -1.03474  -0.95939  -0.95565  -0.86962
 Alpha  occ. eigenvalues --   -0.86133  -0.82403  -0.79546  -0.78190  -0.77451
 Alpha  occ. eigenvalues --   -0.72030  -0.71153  -0.70450  -0.65008  -0.64984
 Alpha  occ. eigenvalues --   -0.64744  -0.62093  -0.60873  -0.59304  -0.57541
 Alpha  occ. eigenvalues --   -0.55257  -0.55221  -0.53314  -0.52847  -0.52509
 Alpha  occ. eigenvalues --   -0.52213  -0.49882  -0.48787  -0.48786  -0.47845
 Alpha  occ. eigenvalues --   -0.46574  -0.45728  -0.45656  -0.44801  -0.43735
 Alpha  occ. eigenvalues --   -0.37278  -0.36290
 Alpha virt. eigenvalues --    0.05074   0.11280   0.16577   0.21320   0.22906
 Alpha virt. eigenvalues --    0.24224   0.26680   0.26925   0.27505   0.27828
 Alpha virt. eigenvalues --    0.28421   0.30482   0.31282   0.31550   0.31911

 Mulliken charges:
               1
     1  C   -0.170810
     2  C   -0.218055
     3  C   -0.172554
     4  C    0.160828
     5  C   -0.166218
     6  C   -0.217929
     7  H    0.225357
     8  H    0.223193
     9  H    0.275328
    10  H    0.274878
    11  H    0.223221
    12  N    0.488305
    13  O   -0.460908
    14  O   -0.460966
    15  C   -0.298169
    16  C   -0.300947
    17  C   -0.475464
    18  H    0.146727
    19  H    0.150142
    20  H    0.150237
    21  H    0.156678
    22  H    0.155671
    23  H    0.150410
    24  H    0.160709
    25  C   -0.298362
    26  C   -0.299500
    27  C   -0.475700
    28  H    0.148991
    29  H    0.151543
    30  H    0.150445
    31  H    0.152095
    32  H    0.156132
    33  H    0.154910
    34  H    0.159780
 Sum of Mulliken charges =  -0.00000

 Dipole moment (field-independent basis, Debye):
    X=              0.0693    Y=              5.1701    Z=             -0.3484  Tot=              5.1823
 Quadrupole moment (field-independent basis, Debye-Ang):
   XX=            -96.7141   YY=            -97.2267   ZZ=            -89.4950
   XY=             15.3316   XZ=             -0.7682   YZ=              0.9468

 Normal termination of Gaussian 16 at Thu May  6 01:25:12 2021.
