 Gaussian 16, Revision A.03,
 Gaussian 16:  EM64L-G16RevA.03 25-Dec-2016

 -------------
 #p 6-31g* mp2
 -------------

 ------------------------------------------------------
 Input file generated by CHIRIPA (05-May-2021 14:55:19)
 ------------------------------------------------------
 Symbolic Z-matrix:
 Charge =  0 Multiplicity = 1

                         Standard orientation:
 ---------------------------------------------------------------------
 Center     Atomic      Atomic             Coordinates (Angstroms)
 Number     Number       Type             X           Y           Z
 ---------------------------------------------------------------------
      1          6           0        2.378270   -2.195595   -0.781402
      2          6           0        3.652009   -1.919967   -0.273327
      3          6           0        4.019265   -0.610393    0.050225
      4          6           0        3.083682    0.403880   -0.147830
      5          6           0        1.806993    0.161161   -0.652253
      6          6           0        1.461444   -1.155984   -0.968913
      7          1           0        2.101408   -3.215844   -1.030069
      8          1           0        4.366074   -2.725352   -0.126665
      9          1           0        4.998616   -0.368867    0.445134
     10          1           0        1.116740    0.984979   -0.787506
     11          1           0        0.471536   -1.367090   -1.363326
     12          7           0        3.460989    1.794275    0.191052
     13          8           0        2.618535    2.670146    0.007322
     14          8           0        4.592033    1.981868    0.633981
     15          6           0       -3.283526   -0.343451    0.738244
     16          6           0       -2.437759   -1.562308    0.368043
     17          6           0       -1.273323   -1.788889    1.332690
     18          1           0       -2.641956    0.548174    0.756656
     19          1           0       -3.670922   -0.470899    1.758575
     20          1           0       -2.053209   -1.433230   -0.651798
     21          1           0       -3.081455   -2.451104    0.350322
     22          1           0       -1.641912   -1.943303    2.351954
     23          1           0       -0.607825   -0.919647    1.344140
     24          1           0       -0.681980   -2.665191    1.049374
     25          6           0       -4.451507   -0.103849   -0.216817
     26          6           0       -5.297274    1.115009    0.153384
     27          6           0       -6.461709    1.341590   -0.811265
     28          1           0       -4.064111    0.023599   -1.237148
     29          1           0       -5.093076   -0.995473   -0.235230
     30          1           0       -4.653578    2.003804    0.171104
     31          1           0       -5.681823    0.985932    1.173225
     32          1           0       -7.127207    0.472348   -0.822714
     33          1           0       -6.093120    1.496005   -1.830528
     34          1           0       -7.053053    2.217892   -0.527947
 ---------------------------------------------------------------------

 SCF Done:  E(RHF) =  -669.534993553     A.U. after   15 cycles
 E2 =    -0.2092433493D+01 EUMP2 =    -0.67162742704591D+03

 The electronic state is 1-A.
 Alpha  occ. eigenvalues --  -20.60777 -20.60772 -15.85830 -11.31203 -11.27745
 Alpha  occ. eigenvalues --  -11.27740 -11.27478 -11.26782 -11.26754 -11.22351
 Alpha  occ. eigenvalues --  -11.21895 -11.21873 -11.21775 -11.21629 -11.21291
 Alpha  occ. eigenvalues --   -1.59852  -1.39406  -1.19364  -1.08914  -1.08754
 Alpha  occ. eigenvalues --   -1.04775  -1.03993  -0.96422  -0.95594  -0.87438
 Alpha  occ. eigenvalues --   -0.86159  -0.82427  -0.80073  -0.78700  -0.77478
 Alpha  occ. eigenvalues --   -0.72048  -0.71175  -0.70467  -0.65595  -0.65015
 Alpha  occ. eigenvalues --   -0.64761  -0.62189  -0.61326  -0.59806  -0.58033
 Alpha  occ. eigenvalues --   -0.55739  -0.55251  -0.53271  -0.52957  -0.52850
 Alpha  occ. eigenvalues --   -0.52798  -0.50341  -0.48807  -0.48803  -0.48378
 Alpha  occ. eigenvalues --   -0.47124  -0.46237  -0.46158  -0.44810  -0.44248
 Alpha  occ. eigenvalues --   -0.37325  -0.36316
 Alpha virt. eigenvalues --    0.05024   0.11235   0.16458   0.19690   0.22821
 Alpha virt. eigenvalues --    0.23972   0.25575   0.26409   0.27304   0.28130
 Alpha virt. eigenvalues --    0.28731   0.29807   0.31081   0.31221   0.32122

 Mulliken charges:
               1
     1  C   -0.173169
     2  C   -0.217964
     3  C   -0.171424
     4  C    0.159022
     5  C   -0.174935
     6  C   -0.214496
     7  H    0.225619
     8  H    0.223502
     9  H    0.275551
    10  H    0.274882
    11  H    0.228977
    12  N    0.488106
    13  O   -0.460652
    14  O   -0.460234
    15  C   -0.298587
    16  C   -0.303208
    17  C   -0.476716
    18  H    0.151142
    19  H    0.152882
    20  H    0.141647
    21  H    0.154465
    22  H    0.158838
    23  H    0.159995
    24  H    0.154209
    25  C   -0.298380
    26  C   -0.300388
    27  C   -0.475995
    28  H    0.147722
    29  H    0.150076
    30  H    0.154104
    31  H    0.153085
    32  H    0.155061
    33  H    0.155217
    34  H    0.162047
 Sum of Mulliken charges =  -0.00000

 Dipole moment (field-independent basis, Debye):
    X=             -1.4077    Y=             -4.8710    Z=             -1.1176  Tot=              5.1921
 Quadrupole moment (field-independent basis, Debye-Ang):
   XX=            -98.8845   YY=            -98.6114   ZZ=            -94.7534
   XY=            -17.0417   XZ=             -3.1009   YZ=             -0.4616

 Normal termination of Gaussian 16 at Thu May  6 15:43:16 2021.
