 Gaussian 16, Revision A.03,
 Gaussian 16:  EM64L-G16RevA.03 25-Dec-2016

 -------------
 #p 6-31g* mp2
 -------------

 ------------------------------------------------------
 Input file generated by CHIRIPA (05-May-2021 14:53:17)
 ------------------------------------------------------
 Symbolic Z-matrix:
 Charge =  0 Multiplicity = 1

                         Standard orientation:
 ---------------------------------------------------------------------
 Center     Atomic      Atomic             Coordinates (Angstroms)
 Number     Number       Type             X           Y           Z
 ---------------------------------------------------------------------
      1          6           0       -2.728231    0.583121   -0.177404
      2          6           0       -2.868571    1.995003   -0.747387
      3          6           0       -1.520457    2.687135   -0.950699
      4          1           0       -2.191834    0.632744    0.780072
      5          1           0       -2.104920   -0.017681   -0.854099
      6          1           0       -3.492575    2.592566   -0.070517
      7          1           0       -3.404864    1.942033   -1.703525
      8          1           0       -0.894276    2.115133   -1.643024
      9          1           0       -0.982485    2.769362   -0.000738
     10          1           0       -1.644172    3.695077   -1.358873
     11          6           0       -4.067356   -0.121751    0.031466
     12          6           0       -3.927017   -1.533633    0.601449
     13          6           0       -5.275131   -2.225764    0.804761
     14          1           0       -4.690667    0.479051    0.708161
     15          1           0       -4.603753   -0.171374   -0.926010
     16          1           0       -3.390723   -1.480663    1.557586
     17          1           0       -3.303012   -2.131196   -0.075421
     18          1           0       -5.813102   -2.307992   -0.145200
     19          1           0       -5.901311   -1.653763    1.497086
     20          1           0       -5.151416   -3.233707    1.212935
     21          6           0        2.355186    2.058460    1.181560
     22          6           0        1.921873    1.873148   -0.135414
     23          6           0        2.082617    0.637045   -0.768470
     24          6           0        2.683466   -0.396650   -0.051710
     25          6           0        3.125573   -0.243163    1.261405
     26          6           0        2.954596    1.001577    1.874545
     27          1           0        2.226341    3.022048    1.665598
     28          1           0        1.456027    2.692151   -0.676029
     29          1           0        1.756325    0.466103   -1.787161
     30          1           0        3.586402   -1.078398    1.774664
     31          1           0        3.292073    1.142613    2.897415
     32          7           0        2.859054   -1.709828   -0.711357
     33          8           0        3.391399   -2.604632   -0.058233
     34          8           0        2.461011   -1.819427   -1.869021
 ---------------------------------------------------------------------

 SCF Done:  E(RHF) =  -669.534746198     A.U. after   15 cycles
 E2 =    -0.2092191892D+01 EUMP2 =    -0.67162693808996D+03

 The electronic state is 1-A.
 Alpha  occ. eigenvalues --  -20.60744 -20.60738 -15.85794 -11.31151 -11.27693
 Alpha  occ. eigenvalues --  -11.27682 -11.27426 -11.26734 -11.26645 -11.22087
 Alpha  occ. eigenvalues --  -11.21867 -11.21657 -11.21636 -11.21523 -11.21078
 Alpha  occ. eigenvalues --   -1.59818  -1.39372  -1.19308  -1.08721  -1.08678
 Alpha  occ. eigenvalues --   -1.04711  -1.03837  -0.96324  -0.95547  -0.87374
 Alpha  occ. eigenvalues --   -0.86095  -0.82381  -0.79931  -0.78462  -0.77416
 Alpha  occ. eigenvalues --   -0.72014  -0.71139  -0.70420  -0.65321  -0.64957
 Alpha  occ. eigenvalues --   -0.64721  -0.62081  -0.61238  -0.59697  -0.57900
 Alpha  occ. eigenvalues --   -0.55617  -0.55215  -0.53249  -0.53053  -0.52873
 Alpha  occ. eigenvalues --   -0.52420  -0.50276  -0.48775  -0.48770  -0.48197
 Alpha  occ. eigenvalues --   -0.46932  -0.46011  -0.45906  -0.44780  -0.44073
 Alpha  occ. eigenvalues --   -0.37283  -0.36259
 Alpha virt. eigenvalues --    0.05081   0.11273   0.16557   0.20830   0.22630
 Alpha virt. eigenvalues --    0.24039   0.25590   0.26374   0.27358   0.27946
 Alpha virt. eigenvalues --    0.28906   0.30376   0.30825   0.31593   0.32132

 Mulliken charges:
               1
     1  C   -0.299172
     2  C   -0.299876
     3  C   -0.479251
     4  H    0.149781
     5  H    0.152547
     6  H    0.152819
     7  H    0.154598
     8  H    0.150644
     9  H    0.153252
    10  H    0.160138
    11  C   -0.298679
    12  C   -0.300424
    13  C   -0.475964
    14  H    0.148709
    15  H    0.150612
    16  H    0.151566
    17  H    0.155746
    18  H    0.155711
    19  H    0.154182
    20  H    0.161783
    21  C   -0.174313
    22  C   -0.215446
    23  C   -0.173281
    24  C    0.158810
    25  C   -0.171691
    26  C   -0.217983
    27  H    0.225206
    28  H    0.230429
    29  H    0.274421
    30  H    0.275244
    31  H    0.223067
    32  N    0.488149
    33  O   -0.460465
    34  O   -0.460870
 Sum of Mulliken charges =  -0.00000

 Dipole moment (field-independent basis, Debye):
    X=             -0.7214    Y=              4.5801    Z=              2.3280  Tot=              5.1882
 Quadrupole moment (field-independent basis, Debye-Ang):
   XX=            -98.5292   YY=            -98.7107   ZZ=            -90.9821
   XY=             11.4385   XZ=              8.5898   YZ=             -2.3204

 Normal termination of Gaussian 16 at Thu May  6 12:15:40 2021.
