 Gaussian 16, Revision A.03,
 Gaussian 16:  EM64L-G16RevA.03 25-Dec-2016

 -------------
 #p 6-31g* mp2
 -------------

 ------------------------------------------------------
 Input file generated by CHIRIPA (05-May-2021 14:57:26)
 ------------------------------------------------------
 Symbolic Z-matrix:
 Charge =  0 Multiplicity = 1

                         Standard orientation:
 ---------------------------------------------------------------------
 Center     Atomic      Atomic             Coordinates (Angstroms)
 Number     Number       Type             X           Y           Z
 ---------------------------------------------------------------------
      1          6           0        4.108181    2.308623    0.978751
      2          6           0        4.737567    1.881432   -0.195089
      3          6           0        4.444368    0.628869   -0.742508
      4          6           0        3.512565   -0.174462   -0.086998
      5          6           0        2.868776    0.222919    1.083863
      6          6           0        3.177435    1.479466    1.613362
      7          1           0        4.341950    3.283191    1.397040
      8          1           0        5.460811    2.523259   -0.690084
      9          1           0        4.916868    0.273232   -1.650079
     10          1           0        2.152175   -0.439087    1.554657
     11          1           0        2.687099    1.808616    2.525105
     12          7           0        3.193985   -1.502602   -0.657040
     13          8           0        2.369382   -2.191594   -0.060419
     14          8           0        3.774918   -1.829459   -1.689667
     15          6           0       -2.010070   -1.861586    0.796693
     16          6           0       -3.362687   -1.890061    1.151853
     17          6           0       -4.233418   -0.888481    0.712293
     18          6           0       -3.715403    0.131244   -0.084646
     19          6           0       -2.372763    0.187323   -0.455408
     20          6           0       -1.520289   -0.824813   -0.004391
     21          1           0       -1.340757   -2.643738    1.142604
     22          1           0       -3.745835   -2.694008    1.773875
     23          1           0       -5.284986   -0.886075    0.972327
     24          1           0       -2.020093    1.001640   -1.076641
     25          1           0       -0.470292   -0.800136   -0.281777
     26          7           0       -4.627543    1.197159   -0.556052
     27          8           0       -4.146460    2.084645   -1.257168
     28          8           0       -5.806291    1.124955   -0.215499
 ---------------------------------------------------------------------

 SCF Done:  E(RHF) =  -868.339786253     A.U. after   16 cycles
 E2 =    -0.2598903297D+01 EUMP2 =    -0.87093868954985D+03

 The electronic state is 1-A.
 Alpha  occ. eigenvalues --  -20.61832 -20.61758 -20.60549 -20.60544 -15.86814
 Alpha  occ. eigenvalues --  -15.85598 -11.31966 -11.30855 -11.28532 -11.28457
 Alpha  occ. eigenvalues --  -11.28148 -11.27451 -11.27421 -11.27418 -11.27394
 Alpha  occ. eigenvalues --  -11.27027 -11.26388 -11.26278  -1.60851  -1.59627
 Alpha  occ. eigenvalues --   -1.40415  -1.39184  -1.20104  -1.19002  -1.09529
 Alpha  occ. eigenvalues --   -1.08395  -1.05467  -1.04387  -0.96403  -0.95254
 Alpha  occ. eigenvalues --   -0.86875  -0.85770  -0.83242  -0.82094  -0.78331
 Alpha  occ. eigenvalues --   -0.77174  -0.73036  -0.72163  -0.71816  -0.71191
 Alpha  occ. eigenvalues --   -0.70951  -0.70055  -0.65752  -0.65454  -0.64638
 Alpha  occ. eigenvalues --   -0.64351  -0.62819  -0.61729  -0.55948  -0.54812
 Alpha  occ. eigenvalues --   -0.53811  -0.53547  -0.52730  -0.52456  -0.49810
 Alpha  occ. eigenvalues --   -0.49761  -0.48581  -0.48563  -0.45846  -0.44614
 Alpha  occ. eigenvalues --   -0.38056  -0.37066  -0.36951  -0.36006
 Alpha virt. eigenvalues --    0.04159   0.05350   0.10531   0.11644   0.15695
 Alpha virt. eigenvalues --    0.16884   0.20564   0.21913   0.26308   0.27160
 Alpha virt. eigenvalues --    0.28096   0.28825   0.30537   0.31278   0.31935

 Mulliken charges:
               1
     1  C   -0.169804
     2  C   -0.217931
     3  C   -0.170490
     4  C    0.157356
     5  C   -0.174743
     6  C   -0.217652
     7  H    0.229242
     8  H    0.226725
     9  H    0.277413
    10  H    0.271559
    11  H    0.226520
    12  N    0.488350
    13  O   -0.469405
    14  O   -0.453313
    15  C   -0.173362
    16  C   -0.219178
    17  C   -0.171986
    18  C    0.158147
    19  C   -0.172508
    20  C   -0.224770
    21  H    0.233726
    22  H    0.222613
    23  H    0.274121
    24  H    0.273440
    25  H    0.231398
    26  N    0.488143
    27  O   -0.462143
    28  O   -0.461467
 Sum of Mulliken charges =  -0.00000

 Dipole moment (field-independent basis, Debye):
    X=              4.7439    Y=              0.9683    Z=              3.6553  Tot=              6.0666
 Quadrupole moment (field-independent basis, Debye-Ang):
   XX=           -116.0516   YY=           -107.1315   ZZ=           -102.3432
   XY=             34.1170   XZ=             -4.5155   YZ=             -1.9440

 Normal termination of Gaussian 16 at Thu May  6 21:20:41 2021.
