 Gaussian 16, Revision A.03,
 Gaussian 16:  EM64L-G16RevA.03 25-Dec-2016

 -------------
 #p 6-31g* mp2
 -------------

 ------------------------------------------------------
 Input file generated by CHIRIPA (05-May-2021 14:51:12)
 ------------------------------------------------------
 Symbolic Z-matrix:
 Charge =  0 Multiplicity = 1

                         Standard orientation:
 ---------------------------------------------------------------------
 Center     Atomic      Atomic             Coordinates (Angstroms)
 Number     Number       Type             X           Y           Z
 ---------------------------------------------------------------------
      1          6           0        2.358902    0.657866   -0.699059
      2          6           0        2.492715    2.131424   -0.313436
      3          6           0        1.327968    2.983006   -0.819368
      4          1           0        2.291033    0.576288   -1.792532
      5          1           0        1.414647    0.265158   -0.297116
      6          1           0        3.437093    2.520867   -0.714808
      7          1           0        2.560466    2.209489    0.779236
      8          1           0        0.379658    2.621710   -0.408546
      9          1           0        1.261266    2.934857   -1.911079
     10          1           0        1.443926    4.032834   -0.532532
     11          6           0        3.515736   -0.206309   -0.200394
     12          6           0        3.381924   -1.679867   -0.586017
     13          6           0        4.546671   -2.531449   -0.080085
     14          1           0        4.459992    0.186399   -0.602337
     15          1           0        3.583606   -0.124731    0.893079
     16          1           0        3.314173   -1.757932   -1.678689
     17          1           0        2.437546   -2.069310   -0.184644
     18          1           0        4.613373   -2.483300    1.011626
     19          1           0        5.494981   -2.170153   -0.490907
     20          1           0        4.430713   -3.581277   -0.366921
     21          6           0       -2.347029   -0.476702    0.864488
     22          6           0       -1.574759    0.644572    1.560425
     23          6           0       -0.396790    0.126790    2.386309
     24          1           0       -2.710929   -1.186387    1.620045
     25          1           0       -1.660452   -1.036767    0.214616
     26          1           0       -2.262889    1.203219    2.207732
     27          1           0       -1.212818    1.351773    0.803139
     28          1           0        0.311941   -0.413170    1.750114
     29          1           0       -0.744097   -0.562568    3.162688
     30          1           0        0.141261    0.944992    2.875091
     31          6           0       -3.527610    0.025145    0.034965
     32          6           0       -4.299880   -1.096129   -0.660972
     33          6           0       -5.477849   -0.578347   -1.486857
     34          1           0       -4.214187    0.585210    0.684836
     35          1           0       -3.163709    0.734831   -0.720593
     36          1           0       -4.661820   -1.803330    0.096314
     37          1           0       -3.611750   -1.654775   -1.308280
     38          1           0       -5.130542    0.111012   -2.263235
     39          1           0       -6.186579   -0.038387   -0.850661
     40          1           0       -6.015900   -1.396549   -1.975638
 ---------------------------------------------------------------------

 SCF Done:  E(RHF) =  -470.732812531     A.U. after   11 cycles
 E2 =    -0.1584222629D+01 EUMP2 =    -0.47231703515997D+03

 The electronic state is 1-A.
 Alpha  occ. eigenvalues --  -11.21667 -11.21624 -11.21615 -11.21601 -11.21445
 Alpha  occ. eigenvalues --  -11.21404 -11.21380 -11.21343 -11.21154 -11.21077
 Alpha  occ. eigenvalues --  -11.21076 -11.21074  -1.08492  -1.08422  -1.03602
 Alpha  occ. eigenvalues --   -1.03517  -0.96031  -0.95986  -0.87064  -0.86986
 Alpha  occ. eigenvalues --   -0.79666  -0.79582  -0.78286  -0.78260  -0.65345
 Alpha  occ. eigenvalues --   -0.64887  -0.61191  -0.60727  -0.59399  -0.59343
 Alpha  occ. eigenvalues --   -0.57683  -0.57563  -0.55406  -0.55207  -0.52722
 Alpha  occ. eigenvalues --   -0.52680  -0.52454  -0.52426  -0.50153  -0.49775
 Alpha  occ. eigenvalues --   -0.48069  -0.47865  -0.46770  -0.46510  -0.45961
 Alpha  occ. eigenvalues --   -0.45763  -0.45708  -0.45515  -0.43824  -0.43790
 Alpha virt. eigenvalues --    0.19348   0.22790   0.23507   0.24768   0.25719
 Alpha virt. eigenvalues --    0.26212   0.26664   0.27997   0.28719   0.29344
 Alpha virt. eigenvalues --    0.30447   0.31096   0.31762   0.32044   0.32374

 Mulliken charges:
               1
     1  C   -0.303773
     2  C   -0.299109
     3  C   -0.482963
     4  H    0.149373
     5  H    0.154689
     6  H    0.152008
     7  H    0.152686
     8  H    0.161205
     9  H    0.155043
    10  H    0.160552
    11  C   -0.298760
    12  C   -0.300161
    13  C   -0.475705
    14  H    0.149745
    15  H    0.150547
    16  H    0.151979
    17  H    0.151333
    18  H    0.155534
    19  H    0.155254
    20  H    0.160286
    21  C   -0.298293
    22  C   -0.308538
    23  C   -0.479474
    24  H    0.149963
    25  H    0.149511
    26  H    0.152907
    27  H    0.159129
    28  H    0.157856
    29  H    0.155962
    30  H    0.160551
    31  C   -0.298466
    32  C   -0.299745
    33  C   -0.475774
    34  H    0.149664
    35  H    0.150012
    36  H    0.151917
    37  H    0.152171
    38  H    0.155389
    39  H    0.155185
    40  H    0.160310
 Sum of Mulliken charges =  -0.00000

 Dipole moment (field-independent basis, Debye):
    X=             -0.0126    Y=             -0.0003    Z=              0.0133  Tot=              0.0183
 Quadrupole moment (field-independent basis, Debye-Ang):
   XX=            -85.4522   YY=            -85.3783   ZZ=            -83.8441
   XY=              0.9033   XZ=             -1.7187   YZ=              0.1485

 Normal termination of Gaussian 16 at Thu May  6 05:29:45 2021.
