 Gaussian 16, Revision A.03,
 Gaussian 16:  EM64L-G16RevA.03 25-Dec-2016

 -------------
 #p 6-31g* mp2
 -------------

 ------------------------------------------------------
 Input file generated by CHIRIPA (05-May-2021 14:57:22)
 ------------------------------------------------------
 Symbolic Z-matrix:
 Charge =  0 Multiplicity = 1

                         Standard orientation:
 ---------------------------------------------------------------------
 Center     Atomic      Atomic             Coordinates (Angstroms)
 Number     Number       Type             X           Y           Z
 ---------------------------------------------------------------------
      1          6           0       -2.494310    2.334821   -0.692104
      2          6           0       -3.842341    2.034807   -0.470013
      3          6           0       -4.233005    0.738833   -0.120184
      4          6           0       -3.244820   -0.237120   -0.000628
      5          6           0       -1.893721    0.030604   -0.215439
      6          6           0       -1.526009    1.333527   -0.564334
      7          1           0       -2.199747    3.344264   -0.963497
      8          1           0       -4.596504    2.810422   -0.568525
      9          1           0       -5.269527    0.479055    0.057455
     10          1           0       -1.164780   -0.763676   -0.109690
     11          1           0       -0.478368    1.563637   -0.736215
     12          7           0       -3.646249   -1.612789    0.369226
     13          8           0       -2.756367   -2.454783    0.468183
     14          8           0       -4.843170   -1.822994    0.553158
     15          6           0        3.452110   -0.873116   -2.285874
     16          6           0        3.982378   -1.583964   -1.204194
     17          6           0        3.836870   -1.103898    0.100762
     18          6           0        3.152223    0.095808    0.288528
     19          6           0        2.612589    0.826985   -0.768575
     20          6           0        2.770110    0.327972   -2.065001
     21          1           0        3.569810   -1.253401   -3.296282
     22          1           0        4.512505   -2.517025   -1.372739
     23          1           0        4.237401   -1.633970    0.956341
     24          1           0        2.089154    1.754152   -0.569086
     25          1           0        2.357250    0.882148   -2.903143
     26          7           0        2.991822    0.614062    1.665512
     27          8           0        2.384407    1.673498    1.804360
     28          8           0        3.476549   -0.048981    2.579869
 ---------------------------------------------------------------------

 SCF Done:  E(RHF) =  -868.337328924     A.U. after   16 cycles
 E2 =    -0.2600117123D+01 EUMP2 =    -0.87093744604774D+03

 The electronic state is 1-A.
 Alpha  occ. eigenvalues --  -20.61331 -20.61299 -20.60693 -20.60688 -15.86374
 Alpha  occ. eigenvalues --  -15.85748 -11.31853 -11.31110 -11.28510 -11.28324
 Alpha  occ. eigenvalues --  -11.28083 -11.27690 -11.27684 -11.27487 -11.27449
 Alpha  occ. eigenvalues --  -11.27349 -11.26739 -11.26699  -1.60390  -1.59767
 Alpha  occ. eigenvalues --   -1.39942  -1.39321  -1.20007  -1.19290  -1.09361
 Alpha  occ. eigenvalues --   -1.08690  -1.05431  -1.04698  -0.96191  -0.95522
 Alpha  occ. eigenvalues --   -0.86810  -0.86105  -0.83024  -0.82359  -0.78083
 Alpha  occ. eigenvalues --   -0.77401  -0.72585  -0.71968  -0.71717  -0.71092
 Alpha  occ. eigenvalues --   -0.71088  -0.70407  -0.65650  -0.65432  -0.64950
 Alpha  occ. eigenvalues --   -0.64728  -0.62802  -0.62024  -0.55870  -0.55215
 Alpha  occ. eigenvalues --   -0.53740  -0.53526  -0.53017  -0.52771  -0.49357
 Alpha  occ. eigenvalues --   -0.49334  -0.48727  -0.48720  -0.45322  -0.44727
 Alpha  occ. eigenvalues --   -0.37949  -0.37271  -0.37033  -0.36291
 Alpha virt. eigenvalues --    0.04421   0.05144   0.10541   0.11355   0.15923
 Alpha virt. eigenvalues --    0.16633   0.19601   0.21906   0.25145   0.27322
 Alpha virt. eigenvalues --    0.28264   0.28821   0.30245   0.31082   0.32118

 Mulliken charges:
               1
     1  C   -0.171025
     2  C   -0.218351
     3  C   -0.170707
     4  C    0.158767
     5  C   -0.171149
     6  C   -0.215848
     7  H    0.225153
     8  H    0.223429
     9  H    0.275596
    10  H    0.275552
    11  H    0.218540
    12  N    0.488249
    13  O   -0.460699
    14  O   -0.460549
    15  C   -0.170268
    16  C   -0.216592
    17  C   -0.169692
    18  C    0.160053
    19  C   -0.180589
    20  C   -0.218127
    21  H    0.228871
    22  H    0.227647
    23  H    0.279166
    24  H    0.269526
    25  H    0.223247
    26  N    0.488179
    27  O   -0.463045
    28  O   -0.455334
 Sum of Mulliken charges =  -0.00000

 Dipole moment (field-independent basis, Debye):
    X=              2.1849    Y=              2.8361    Z=             -6.1091  Tot=              7.0809
 Quadrupole moment (field-independent basis, Debye-Ang):
   XX=           -104.1769   YY=           -104.7435   ZZ=           -108.1373
   XY=            -26.5457   XZ=            -10.3405   YZ=             -2.0741

 Normal termination of Gaussian 16 at Thu May  6 11:14:15 2021.
