 Gaussian 16, Revision A.03,
 Gaussian 16:  EM64L-G16RevA.03 25-Dec-2016

 -------------
 #p 6-31g* mp2
 -------------

 ------------------------------------------------------
 Input file generated by CHIRIPA (05-May-2021 14:55:19)
 ------------------------------------------------------
 Symbolic Z-matrix:
 Charge =  0 Multiplicity = 1

                         Standard orientation:
 ---------------------------------------------------------------------
 Center     Atomic      Atomic             Coordinates (Angstroms)
 Number     Number       Type             X           Y           Z
 ---------------------------------------------------------------------
      1          6           0        2.012915    2.895887    0.095343
      2          6           0        3.103610    2.410923   -0.633844
      3          6           0        3.398849    1.044450   -0.645399
      4          6           0        2.578684    0.187360    0.086731
      5          6           0        1.484938    0.639994    0.823026
      6          6           0        1.208478    2.010436    0.820173
      7          1           0        1.790860    3.958937    0.098724
      8          1           0        3.730075    3.096254   -1.197678
      9          1           0        4.237000    0.642054   -1.201276
     10          1           0        0.878656   -0.067645    1.375373
     11          1           0        0.360776    2.384240    1.387375
     12          7           0        2.881300   -1.261365    0.082125
     13          8           0        2.143360   -1.995805    0.735331
     14          8           0        3.850701   -1.635003   -0.574605
     15          6           0       -2.877013   -1.114555   -0.472601
     16          6           0       -1.913801   -1.889487    0.427224
     17          6           0       -1.201459   -3.024837   -0.308538
     18          1           0       -3.621039   -1.808899   -0.886433
     19          1           0       -2.320747   -0.706373   -1.327792
     20          1           0       -2.471461   -2.294920    1.281189
     21          1           0       -1.172097   -1.193184    0.839113
     22          1           0       -0.620620   -2.633798   -1.150153
     23          1           0       -1.927366   -3.741794   -0.705565
     24          1           0       -0.517809   -3.565518    0.353389
     25          6           0       -3.596739    0.023669    0.248627
     26          6           0       -4.559951    0.798603   -0.651199
     27          6           0       -5.272293    1.933951    0.084563
     28          1           0       -4.153004   -0.384512    1.103817
     29          1           0       -2.852713    0.718014    0.662457
     30          1           0       -5.301655    0.102299   -1.063087
     31          1           0       -4.002292    1.204035   -1.505164
     32          1           0       -4.546386    2.650909    0.481590
     33          1           0       -5.853132    1.542913    0.926178
     34          1           0       -5.955943    2.474632   -0.577364
 ---------------------------------------------------------------------

 SCF Done:  E(RHF) =  -669.535514406     A.U. after   15 cycles
 E2 =    -0.2092400841D+01 EUMP2 =    -0.67162791524730D+03

 The electronic state is 1-A.
 Alpha  occ. eigenvalues --  -20.60865 -20.60850 -15.85896 -11.31253 -11.27822
 Alpha  occ. eigenvalues --  -11.27806 -11.27564 -11.26840 -11.26830 -11.21795
 Alpha  occ. eigenvalues --  -11.21568 -11.21393 -11.21338 -11.21304 -11.20301
 Alpha  occ. eigenvalues --   -1.59922  -1.39476  -1.19427  -1.08823  -1.08448
 Alpha  occ. eigenvalues --   -1.04830  -1.03435  -0.95857  -0.95652  -0.86862
 Alpha  occ. eigenvalues --   -0.86228  -0.82492  -0.79535  -0.78266  -0.77536
 Alpha  occ. eigenvalues --   -0.72123  -0.71240  -0.70541  -0.65127  -0.65080
 Alpha  occ. eigenvalues --   -0.64815  -0.62208  -0.60817  -0.59251  -0.57444
 Alpha  occ. eigenvalues --   -0.55341  -0.55149  -0.53159  -0.52930  -0.52483
 Alpha  occ. eigenvalues --   -0.52269  -0.49814  -0.48883  -0.48870  -0.47820
 Alpha  occ. eigenvalues --   -0.46600  -0.45796  -0.45705  -0.44859  -0.43673
 Alpha  occ. eigenvalues --   -0.37405  -0.36424
 Alpha virt. eigenvalues --    0.04946   0.11164   0.16439   0.20289   0.22974
 Alpha virt. eigenvalues --    0.24127   0.25392   0.27060   0.27440   0.28289
 Alpha virt. eigenvalues --    0.29328   0.30217   0.31503   0.31694   0.32395

 Mulliken charges:
               1
     1  C   -0.170642
     2  C   -0.218491
     3  C   -0.170686
     4  C    0.157424
     5  C   -0.174483
     6  C   -0.220663
     7  H    0.225941
     8  H    0.223739
     9  H    0.275798
    10  H    0.282873
    11  H    0.224049
    12  N    0.488503
    13  O   -0.460797
    14  O   -0.459670
    15  C   -0.298127
    16  C   -0.301517
    17  C   -0.472979
    18  H    0.151199
    19  H    0.149146
    20  H    0.151250
    21  H    0.143459
    22  H    0.154199
    23  H    0.149613
    24  H    0.177460
    25  C   -0.295767
    26  C   -0.299627
    27  C   -0.475030
    28  H    0.150479
    29  H    0.140011
    30  H    0.153928
    31  H    0.151439
    32  H    0.151031
    33  H    0.156105
    34  H    0.160838
 Sum of Mulliken charges =  -0.00000

 Dipole moment (field-independent basis, Debye):
    X=             -0.9530    Y=              4.9645    Z=             -0.0111  Tot=              5.0551
 Quadrupole moment (field-independent basis, Debye-Ang):
   XX=            -97.3499   YY=            -93.1659   ZZ=            -93.6832
   XY=             14.9108   XZ=             -2.7116   YZ=             -0.7475

 Normal termination of Gaussian 16 at Thu May  6 02:53:59 2021.
