 Gaussian 16, Revision A.03,
 Gaussian 16:  EM64L-G16RevA.03 25-Dec-2016

 -------------
 #p 6-31g* mp2
 -------------

 ------------------------------------------------------
 Input file generated by CHIRIPA (05-May-2021 14:57:24)
 ------------------------------------------------------
 Symbolic Z-matrix:
 Charge =  0 Multiplicity = 1

                         Standard orientation:
 ---------------------------------------------------------------------
 Center     Atomic      Atomic             Coordinates (Angstroms)
 Number     Number       Type             X           Y           Z
 ---------------------------------------------------------------------
      1          6           0        4.770921   -0.647276   -1.680351
      2          6           0        4.495654    0.678073   -1.327933
      3          6           0        3.590094    0.966702   -0.302651
      4          6           0        2.975074   -0.099281    0.352117
      5          6           0        3.228447   -1.430250    0.024072
      6          6           0        4.137555   -1.695360   -1.004415
      7          1           0        5.475760   -0.862354   -2.478059
      8          1           0        4.986053    1.494041   -1.851145
      9          1           0        3.358566    1.983486   -0.009457
     10          1           0        2.723983   -2.222449    0.563845
     11          1           0        4.349400   -2.725614   -1.275973
     12          7           0        2.014520    0.193828    1.439234
     13          8           0        1.485866   -0.763200    2.000712
     14          8           0        1.808480    1.375045    1.709253
     15          6           0       -4.432288   -2.015373   -0.192177
     16          6           0       -3.325689   -1.870861    0.651076
     17          6           0       -2.598591   -0.676911    0.670034
     18          6           0       -3.007811    0.356696   -0.171088
     19          6           0       -4.105847    0.243273   -1.022408
     20          6           0       -4.818155   -0.959706   -1.024759
     21          1           0       -4.991370   -2.946369   -0.200453
     22          1           0       -3.023728   -2.689025    1.298743
     23          1           0       -1.737931   -0.538070    1.313000
     24          1           0       -4.382714    1.076578   -1.656731
     25          1           0       -5.677138   -1.069109   -1.680673
     26          7           0       -2.245895    1.625457   -0.159808
     27          8           0       -2.626801    2.521106   -0.910382
     28          8           0       -1.282226    1.700239    0.599393
 ---------------------------------------------------------------------

 SCF Done:  E(RHF) =  -868.337876810     A.U. after   16 cycles
 E2 =    -0.2600268053D+01 EUMP2 =    -0.87093814486290D+03

 The electronic state is 1-A.
 Alpha  occ. eigenvalues --  -20.60388 -20.60205 -20.59948 -20.59878 -15.85320
 Alpha  occ. eigenvalues --  -15.84956 -11.30807 -11.30434 -11.27444 -11.27335
 Alpha  occ. eigenvalues --  -11.27175 -11.27100 -11.26892 -11.26861 -11.26475
 Alpha  occ. eigenvalues --  -11.26406 -11.26143 -11.26038  -1.59330  -1.59006
 Alpha  occ. eigenvalues --   -1.38889  -1.38545  -1.18992  -1.18643  -1.08368
 Alpha  occ. eigenvalues --   -1.08034  -1.04416  -1.04048  -0.95185  -0.94831
 Alpha  occ. eigenvalues --   -0.85809  -0.85447  -0.82021  -0.81645  -0.77044
 Alpha  occ. eigenvalues --   -0.76667  -0.71575  -0.71215  -0.70566  -0.70322
 Alpha  occ. eigenvalues --   -0.70110  -0.69746  -0.64650  -0.64428  -0.64284
 Alpha  occ. eigenvalues --   -0.64055  -0.61762  -0.61363  -0.54925  -0.54584
 Alpha  occ. eigenvalues --   -0.52737  -0.52514  -0.52404  -0.52130  -0.48341
 Alpha  occ. eigenvalues --   -0.48294  -0.47966  -0.47895  -0.44289  -0.43882
 Alpha  occ. eigenvalues --   -0.36983  -0.36672  -0.36024  -0.35667
 Alpha virt. eigenvalues --    0.05479   0.05844   0.11629   0.11977   0.16932
 Alpha virt. eigenvalues --    0.17289   0.21711   0.22137   0.27623   0.28021
 Alpha virt. eigenvalues --    0.28599   0.29109   0.31210   0.31657   0.32887

 Mulliken charges:
               1
     1  C   -0.171277
     2  C   -0.218741
     3  C   -0.168794
     4  C    0.159598
     5  C   -0.172128
     6  C   -0.218686
     7  H    0.224157
     8  H    0.223621
     9  H    0.280128
    10  H    0.271486
    11  H    0.220899
    12  N    0.490114
    13  O   -0.475173
    14  O   -0.442023
    15  C   -0.171612
    16  C   -0.220890
    17  C   -0.177308
    18  C    0.155994
    19  C   -0.171917
    20  C   -0.219530
    21  H    0.222508
    22  H    0.224048
    23  H    0.292903
    24  H    0.273061
    25  H    0.220164
    26  N    0.486670
    27  O   -0.467302
    28  O   -0.449972
 Sum of Mulliken charges =  -0.00000

 Dipole moment (field-independent basis, Debye):
    X=              0.9362    Y=             -5.2154    Z=             -3.6769  Tot=              6.4496
 Quadrupole moment (field-independent basis, Debye-Ang):
   XX=            -69.0512   YY=           -103.0311   ZZ=           -106.3404
   XY=              9.3208   XZ=             -7.8460   YZ=             -1.1294

 Normal termination of Gaussian 16 at Fri May  7 11:05:15 2021.
