 Gaussian 16, Revision A.03,
 Gaussian 16:  EM64L-G16RevA.03 25-Dec-2016

 -------------
 #p 6-31g* mp2
 -------------

 ------------------------------------------------------
 Input file generated by CHIRIPA (05-May-2021 14:57:27)
 ------------------------------------------------------
 Symbolic Z-matrix:
 Charge =  0 Multiplicity = 1

                         Standard orientation:
 ---------------------------------------------------------------------
 Center     Atomic      Atomic             Coordinates (Angstroms)
 Number     Number       Type             X           Y           Z
 ---------------------------------------------------------------------
      1          6           0        1.956360    0.646987    0.620112
      2          6           0        2.531835   -0.553487    1.049312
      3          6           0        3.873033   -0.836255    0.774034
      4          6           0        4.612828    0.108187    0.064090
      5          6           0        4.068072    1.313170   -0.376987
      6          6           0        2.724960    1.574848   -0.090415
      7          1           0        0.913742    0.858456    0.838341
      8          1           0        1.937333   -1.275925    1.601305
      9          1           0        4.343785   -1.757750    1.094436
     10          1           0        4.686021    2.013849   -0.925263
     11          1           0        2.280684    2.507976   -0.424982
     12          7           0        6.033708   -0.180003   -0.233313
     13          8           0        6.664092    0.668501   -0.860444
     14          8           0        6.490104   -1.248934    0.166346
     15          6           0       -6.612101    0.970986    0.215882
     16          6           0       -5.434155    1.723542    0.267093
     17          6           0       -4.191101    1.109825    0.086218
     18          6           0       -4.162729   -0.264607   -0.144911
     19          6           0       -5.318766   -1.041561   -0.201576
     20          6           0       -6.550755   -0.406735   -0.017877
     21          1           0       -7.573438    1.455935    0.357487
     22          1           0       -5.478768    2.793662    0.448469
     23          1           0       -3.263662    1.668461    0.120885
     24          1           0       -5.242378   -2.106580   -0.384107
     25          1           0       -7.463938   -0.993692   -0.058169
     26          7           0       -2.852619   -0.925495   -0.337890
     27          8           0       -2.854569   -2.137833   -0.540057
     28          8           0       -1.848614   -0.218648   -0.283326
 ---------------------------------------------------------------------

 SCF Done:  E(RHF) =  -868.339540978     A.U. after   16 cycles
 E2 =    -0.2598182668D+01 EUMP2 =    -0.87093772364591D+03

 The electronic state is 1-A.
 Alpha  occ. eigenvalues --  -20.61763 -20.61697 -20.60040 -20.60033 -15.86777
 Alpha  occ. eigenvalues --  -15.85089 -11.31936 -11.30263 -11.28512 -11.28451
 Alpha  occ. eigenvalues --  -11.28163 -11.27452 -11.27418 -11.26863 -11.26812
 Alpha  occ. eigenvalues --  -11.26384 -11.25790 -11.25693  -1.60796  -1.59120
 Alpha  occ. eigenvalues --   -1.40360  -1.38679  -1.20084  -1.18412  -1.09512
 Alpha  occ. eigenvalues --   -1.07806  -1.05458  -1.03802  -0.96385  -0.94678
 Alpha  occ. eigenvalues --   -0.86865  -0.85189  -0.83231  -0.81533  -0.78304
 Alpha  occ. eigenvalues --   -0.76636  -0.73015  -0.72104  -0.71311  -0.71188
 Alpha  occ. eigenvalues --   -0.70442  -0.69427  -0.65741  -0.65455  -0.64053
 Alpha  occ. eigenvalues --   -0.63794  -0.62813  -0.61169  -0.55954  -0.54180
 Alpha  occ. eigenvalues --   -0.53794  -0.53547  -0.52123  -0.51886  -0.49769
 Alpha  occ. eigenvalues --   -0.49723  -0.48076  -0.48050  -0.45810  -0.44129
 Alpha  occ. eigenvalues --   -0.38044  -0.37052  -0.36315  -0.35419
 Alpha virt. eigenvalues --    0.04215   0.05915   0.10606   0.12255   0.15747
 Alpha virt. eigenvalues --    0.17472   0.20721   0.22462   0.26652   0.27452
 Alpha virt. eigenvalues --    0.28251   0.29301   0.30436   0.31537   0.32569

 Mulliken charges:
               1
     1  C   -0.167684
     2  C   -0.218409
     3  C   -0.171885
     4  C    0.157111
     5  C   -0.171822
     6  C   -0.220164
     7  H    0.238333
     8  H    0.226108
     9  H    0.273209
    10  H    0.272025
    11  H    0.219203
    12  N    0.488328
    13  O   -0.463417
    14  O   -0.462429
    15  C   -0.169974
    16  C   -0.218180
    17  C   -0.170439
    18  C    0.158101
    19  C   -0.170352
    20  C   -0.218317
    21  H    0.228062
    22  H    0.224769
    23  H    0.271175
    24  H    0.277082
    25  H    0.225936
    26  N    0.491674
    27  O   -0.455479
    28  O   -0.472566
 Sum of Mulliken charges =  -0.00000

 Dipole moment (field-independent basis, Debye):
    X=            -10.2076    Y=              3.2504    Z=              1.7598  Tot=             10.8562
 Quadrupole moment (field-independent basis, Debye-Ang):
   XX=           -112.7167   YY=            -98.3455   ZZ=           -105.2859
   XY=             -1.8090   XZ=              2.5028   YZ=             -2.0617

 Normal termination of Gaussian 16 at Thu May  6 06:51:30 2021.
