 Gaussian 16, Revision A.03,
 Gaussian 16:  EM64L-G16RevA.03 25-Dec-2016

 -------------
 #p 6-31g* mp2
 -------------

 ------------------------------------------------------
 Input file generated by CHIRIPA (05-May-2021 14:55:23)
 ------------------------------------------------------
 Symbolic Z-matrix:
 Charge =  0 Multiplicity = 1

                         Standard orientation:
 ---------------------------------------------------------------------
 Center     Atomic      Atomic             Coordinates (Angstroms)
 Number     Number       Type             X           Y           Z
 ---------------------------------------------------------------------
      1          6           0        1.898401   -2.482958    0.679406
      2          6           0        1.256028   -1.954097   -0.444953
      3          6           0        1.515512   -0.644727   -0.860605
      4          6           0        2.427209    0.111119   -0.125216
      5          6           0        3.083197   -0.387417    0.999253
      6          6           0        2.808332   -1.699312    1.396656
      7          1           0        1.690854   -3.501089    0.995207
      8          1           0        0.548892   -2.560382   -1.003900
      9          1           0        1.032305   -0.210257   -1.727303
     10          1           0        3.783125    0.241244    1.536192
     11          1           0        3.308685   -2.107408    2.270240
     12          7           0        2.710054    1.498627   -0.555589
     13          8           0        3.517465    2.144023    0.109383
     14          8           0        2.118982    1.914486   -1.549738
     15          6           0       -3.266979    0.735291    0.508919
     16          6           0       -2.752673    2.089137    0.018433
     17          6           0       -3.200772    3.249256    0.907884
     18          1           0       -4.364330    0.761681    0.554415
     19          1           0       -2.915480    0.567745    1.536428
     20          1           0       -3.103886    2.253460   -1.008341
     21          1           0       -1.656429    2.059457   -0.026084
     22          1           0       -2.837762    3.112294    1.931635
     23          1           0       -4.293443    3.307399    0.943796
     24          1           0       -2.821983    4.207523    0.538964
     25          6           0       -2.827337   -0.434339   -0.369948
     26          6           0       -3.341642   -1.788185    0.120539
     27          6           0       -2.893544   -2.948305   -0.768912
     28          1           0       -3.178835   -0.266794   -1.397456
     29          1           0       -1.729986   -0.460729   -0.415443
     30          1           0       -4.437888   -1.758505    0.165055
     31          1           0       -2.990430   -1.952510    1.147312
     32          1           0       -1.800873   -3.006448   -0.804825
     33          1           0       -3.256555   -2.811343   -1.792663
     34          1           0       -3.272333   -3.906573   -0.399993
 ---------------------------------------------------------------------

 SCF Done:  E(RHF) =  -669.535549095     A.U. after   15 cycles
 E2 =    -0.2092450415D+01 EUMP2 =    -0.67162799950982D+03

 The electronic state is 1-A.
 Alpha  occ. eigenvalues --  -20.60828 -20.60823 -15.85881 -11.31266 -11.27841
 Alpha  occ. eigenvalues --  -11.27836 -11.27575 -11.26853 -11.26838 -11.22080
 Alpha  occ. eigenvalues --  -11.21843 -11.21681 -11.21500 -11.21441 -11.20890
 Alpha  occ. eigenvalues --   -1.59903  -1.39455  -1.19445  -1.08833  -1.08649
 Alpha  occ. eigenvalues --   -1.04850  -1.03751  -0.96228  -0.95662  -0.87252
 Alpha  occ. eigenvalues --   -0.86241  -0.82496  -0.79839  -0.78421  -0.77533
 Alpha  occ. eigenvalues --   -0.72097  -0.71227  -0.70539  -0.65321  -0.65090
 Alpha  occ. eigenvalues --   -0.64846  -0.62221  -0.61124  -0.59618  -0.57811
 Alpha  occ. eigenvalues --   -0.55571  -0.55322  -0.53181  -0.53013  -0.52904
 Alpha  occ. eigenvalues --   -0.52583  -0.50181  -0.48858  -0.48851  -0.48138
 Alpha  occ. eigenvalues --   -0.46863  -0.45969  -0.45856  -0.44851  -0.43988
 Alpha  occ. eigenvalues --   -0.37418  -0.36414
 Alpha virt. eigenvalues --    0.04956   0.11108   0.16317   0.20077   0.22950
 Alpha virt. eigenvalues --    0.23985   0.25521   0.26556   0.26907   0.28523
 Alpha virt. eigenvalues --    0.29183   0.30058   0.31343   0.31805   0.32127

 Mulliken charges:
               1
     1  C   -0.172375
     2  C   -0.221780
     3  C   -0.172340
     4  C    0.157726
     5  C   -0.170830
     6  C   -0.218491
     7  H    0.226349
     8  H    0.230884
     9  H    0.277274
    10  H    0.275955
    11  H    0.223853
    12  N    0.487990
    13  O   -0.460169
    14  O   -0.460012
    15  C   -0.298253
    16  C   -0.300862
    17  C   -0.476080
    18  H    0.149638
    19  H    0.149344
    20  H    0.152699
    21  H    0.156719
    22  H    0.154625
    23  H    0.153601
    24  H    0.164348
    25  C   -0.302448
    26  C   -0.298804
    27  C   -0.478220
    28  H    0.150018
    29  H    0.148467
    30  H    0.154796
    31  H    0.152041
    32  H    0.144045
    33  H    0.158238
    34  H    0.162055
 Sum of Mulliken charges =  -0.00000

 Dipole moment (field-independent basis, Debye):
    X=             -0.9900    Y=             -4.7963    Z=              1.5405  Tot=              5.1340
 Quadrupole moment (field-independent basis, Debye-Ang):
   XX=            -97.1296   YY=            -97.2214   ZZ=            -92.5599
   XY=            -11.6903   XZ=              7.3501   YZ=              0.5212

 Normal termination of Gaussian 16 at Wed May  5 23:58:13 2021.
