 Gaussian 16, Revision A.03,
 Gaussian 16:  EM64L-G16RevA.03 25-Dec-2016

 -------------
 #p 6-31g* mp2
 -------------

 ------------------------------------------------------
 Input file generated by CHIRIPA (05-May-2021 14:57:21)
 ------------------------------------------------------
 Symbolic Z-matrix:
 Charge =  0 Multiplicity = 1

                         Standard orientation:
 ---------------------------------------------------------------------
 Center     Atomic      Atomic             Coordinates (Angstroms)
 Number     Number       Type             X           Y           Z
 ---------------------------------------------------------------------
      1          6           0        4.154639    1.407527    0.948411
      2          6           0        2.932319    1.784048    0.382118
      3          6           0        2.099381    0.829183   -0.208639
      4          6           0        2.521913   -0.499241   -0.215518
      5          6           0        3.733960   -0.905635    0.340429
      6          6           0        4.550860    0.066252    0.925799
      7          1           0        4.795456    2.155901    1.405233
      8          1           0        2.622041    2.824967    0.398231
      9          1           0        1.148001    1.093092   -0.654337
     10          1           0        4.016199   -1.950995    0.309114
     11          1           0        5.499595   -0.229050    1.364825
     12          7           0        1.648608   -1.519124   -0.838074
     13          8           0        2.043706   -2.682949   -0.831257
     14          8           0        0.585550   -1.135372   -1.321063
     15          6           0       -3.518635   -1.679641    1.375998
     16          6           0       -3.492901   -1.690675   -0.022478
     17          6           0       -3.022472   -0.582162   -0.732720
     18          6           0       -2.583399    0.525548   -0.009198
     19          6           0       -2.596567    0.566925    1.384145
     20          6           0       -3.071175   -0.552862    2.073617
     21          1           0       -3.885698   -2.545139    1.919664
     22          1           0       -3.839781   -2.564364   -0.566891
     23          1           0       -2.991544   -0.563894   -1.815369
     24          1           0       -2.244207    1.452411    1.899099
     25          1           0       -3.090006   -0.541483    3.159692
     26          7           0       -2.083165    1.705049   -0.750105
     27          8           0       -1.701891    2.668660   -0.089258
     28          8           0       -2.081828    1.643595   -1.977647
 ---------------------------------------------------------------------

 SCF Done:  E(RHF) =  -868.339857995     A.U. after   16 cycles
 E2 =    -0.2599982146D+01 EUMP2 =    -0.87093984014155D+03

 The electronic state is 1-A.
 Alpha  occ. eigenvalues --  -20.60665 -20.60644 -20.60614 -20.60533 -15.85691
 Alpha  occ. eigenvalues --  -15.85599 -11.30875 -11.30610 -11.27474 -11.27333
 Alpha  occ. eigenvalues --  -11.27262 -11.27157 -11.27095 -11.26915 -11.26466
 Alpha  occ. eigenvalues --  -11.26318 -11.26206 -11.26061  -1.59727  -1.59660
 Alpha  occ. eigenvalues --   -1.39285  -1.39213  -1.19037  -1.18776  -1.08475
 Alpha  occ. eigenvalues --   -1.08255  -1.04395  -1.04141  -0.95336  -0.95141
 Alpha  occ. eigenvalues --   -0.85813  -0.85567  -0.82161  -0.81992  -0.77232
 Alpha  occ. eigenvalues --   -0.77061  -0.71948  -0.71834  -0.71055  -0.70944
 Alpha  occ. eigenvalues --   -0.70135  -0.69928  -0.64687  -0.64454  -0.64387
 Alpha  occ. eigenvalues --   -0.64175  -0.61725  -0.61507  -0.54933  -0.54703
 Alpha  occ. eigenvalues --   -0.52764  -0.52487  -0.52449  -0.52256  -0.48691
 Alpha  occ. eigenvalues --   -0.48669  -0.48606  -0.48556  -0.44726  -0.44688
 Alpha  occ. eigenvalues --   -0.37038  -0.36741  -0.35998  -0.35685
 Alpha virt. eigenvalues --    0.05274   0.05451   0.11630   0.11964   0.16804
 Alpha virt. eigenvalues --    0.16992   0.21734   0.22017   0.27608   0.27904
 Alpha virt. eigenvalues --    0.28394   0.28948   0.31148   0.31576   0.32616

 Mulliken charges:
               1
     1  C   -0.171145
     2  C   -0.220914
     3  C   -0.173023
     4  C    0.157398
     5  C   -0.171845
     6  C   -0.219259
     7  H    0.225003
     8  H    0.231065
     9  H    0.283761
    10  H    0.273320
    11  H    0.221640
    12  N    0.489091
    13  O   -0.463214
    14  O   -0.463101
    15  C   -0.169485
    16  C   -0.217056
    17  C   -0.154717
    18  C    0.158624
    19  C   -0.173494
    20  C   -0.219514
    21  H    0.224258
    22  H    0.224722
    23  H    0.278953
    24  H    0.270080
    25  H    0.219944
    26  N    0.486024
    27  O   -0.472368
    28  O   -0.454748
 Sum of Mulliken charges =  -0.00000

 Dipole moment (field-independent basis, Debye):
    X=              1.2223    Y=             -0.6489    Z=              4.5856  Tot=              4.7899
 Quadrupole moment (field-independent basis, Debye-Ang):
   XX=            -79.0817   YY=           -110.2121   ZZ=           -102.8119
   XY=             16.2363   XZ=              0.4152   YZ=              0.9356

 Normal termination of Gaussian 16 at Wed May  5 22:32:13 2021.
