 Gaussian 16, Revision A.03,
 Gaussian 16:  EM64L-G16RevA.03 25-Dec-2016

 -------------
 #p 6-31g* mp2
 -------------

 ------------------------------------------------------
 Input file generated by CHIRIPA (05-May-2021 14:55:21)
 ------------------------------------------------------
 Symbolic Z-matrix:
 Charge =  0 Multiplicity = 1

                         Standard orientation:
 ---------------------------------------------------------------------
 Center     Atomic      Atomic             Coordinates (Angstroms)
 Number     Number       Type             X           Y           Z
 ---------------------------------------------------------------------
      1          6           0       -5.006021   -1.922701   -0.194564
      2          6           0       -3.617741   -2.090641   -0.163000
      3          6           0       -2.767928   -0.980542   -0.169853
      4          6           0       -3.343000    0.288735   -0.208818
      5          6           0       -4.722236    0.488659   -0.240891
      6          6           0       -5.552873   -0.635856   -0.233340
      7          1           0       -5.658728   -2.790651   -0.188969
      8          1           0       -3.190252   -3.088834   -0.132855
      9          1           0       -1.689690   -1.081789   -0.145968
     10          1           0       -5.118917    1.496219   -0.270618
     11          1           0       -6.630665   -0.502416   -0.257911
     12          7           0       -2.453491    1.471577   -0.216443
     13          8           0       -2.985002    2.579248   -0.251044
     14          8           0       -1.241625    1.268621   -0.187674
     15          6           0        3.751053    0.140171    0.325517
     16          6           0        3.051770   -0.298993    1.612421
     17          6           0        1.620875    0.229463    1.717618
     18          1           0        3.759446    1.237654    0.276473
     19          1           0        3.166634   -0.206832   -0.537872
     20          1           0        3.638062    0.047542    2.473112
     21          1           0        3.045210   -1.395556    1.658500
     22          1           0        1.015750   -0.127256    0.877869
     23          1           0        1.611972    1.324041    1.697111
     24          1           0        1.139724   -0.096405    2.645068
     25          6           0        5.182327   -0.380270    0.205842
     26          6           0        5.881610    0.058896   -1.081062
     27          6           0        7.312505   -0.469562   -1.186260
     28          1           0        5.766746   -0.033266    1.069230
     29          1           0        5.173934   -1.477752    0.254886
     30          1           0        5.888170    1.155458   -1.127141
     31          1           0        5.295318   -0.287640   -1.941755
     32          1           0        7.321409   -1.564139   -1.165753
     33          1           0        7.917629   -0.112842   -0.346512
     34          1           0        7.793657   -0.143692   -2.113709
 ---------------------------------------------------------------------

 SCF Done:  E(RHF) =  -669.535608601     A.U. after   15 cycles
 E2 =    -0.2091049561D+01 EUMP2 =    -0.67162665816175D+03

 The electronic state is 1-A.
 Alpha  occ. eigenvalues --  -20.60825 -20.60814 -15.85861 -11.31226 -11.27799
 Alpha  occ. eigenvalues --  -11.27793 -11.27540 -11.26814 -11.26804 -11.21189
 Alpha  occ. eigenvalues --  -11.20925 -11.20911 -11.20747 -11.20732 -11.20049
 Alpha  occ. eigenvalues --   -1.59890  -1.39445  -1.19400  -1.08796  -1.07875
 Alpha  occ. eigenvalues --   -1.04803  -1.02941  -0.95639  -0.95361  -0.86375
 Alpha  occ. eigenvalues --   -0.86202  -0.82466  -0.79011  -0.77687  -0.77489
 Alpha  occ. eigenvalues --   -0.72088  -0.71206  -0.70510  -0.65056  -0.64809
 Alpha  occ. eigenvalues --   -0.64514  -0.62155  -0.60346  -0.58773  -0.56973
 Alpha  occ. eigenvalues --   -0.55307  -0.54652  -0.53132  -0.52897  -0.52078
 Alpha  occ. eigenvalues --   -0.51758  -0.49340  -0.48843  -0.48802  -0.47294
 Alpha  occ. eigenvalues --   -0.46052  -0.45218  -0.45144  -0.44804  -0.43209
 Alpha  occ. eigenvalues --   -0.37381  -0.36406
 Alpha virt. eigenvalues --    0.05015   0.11246   0.16502   0.21009   0.23323
 Alpha virt. eigenvalues --    0.24457   0.26236   0.27350   0.27642   0.28123
 Alpha virt. eigenvalues --    0.29174   0.30425   0.31609   0.32250   0.32463

 Mulliken charges:
               1
     1  C   -0.170587
     2  C   -0.219289
     3  C   -0.170743
     4  C    0.157663
     5  C   -0.170768
     6  C   -0.218649
     7  H    0.225724
     8  H    0.223699
     9  H    0.277299
    10  H    0.275705
    11  H    0.223572
    12  N    0.491539
    13  O   -0.460160
    14  O   -0.462962
    15  C   -0.297137
    16  C   -0.300878
    17  C   -0.475847
    18  H    0.152929
    19  H    0.149463
    20  H    0.149369
    21  H    0.145288
    22  H    0.163211
    23  H    0.164287
    24  H    0.152004
    25  C   -0.297756
    26  C   -0.299245
    27  C   -0.475358
    28  H    0.148585
    29  H    0.146820
    30  H    0.153029
    31  H    0.151385
    32  H    0.153701
    33  H    0.154725
    34  H    0.159379
 Sum of Mulliken charges =  -0.00000

 Dipole moment (field-independent basis, Debye):
    X=             -3.3178    Y=             -4.0448    Z=             -0.0248  Tot=              5.2315
 Quadrupole moment (field-independent basis, Debye-Ang):
   XX=            -72.4989   YY=            -95.1185   ZZ=            -95.8068
   XY=             11.4756   XZ=              0.9680   YZ=              1.2722

 Normal termination of Gaussian 16 at Wed May  5 18:58:35 2021.
