 Gaussian 16, Revision A.03,
 Gaussian 16:  EM64L-G16RevA.03 25-Dec-2016

 -------------
 #p 6-31g* mp2
 -------------

 ------------------------------------------------------
 Input file generated by CHIRIPA (05-May-2021 14:57:23)
 ------------------------------------------------------
 Symbolic Z-matrix:
 Charge =  0 Multiplicity = 1

                         Standard orientation:
 ---------------------------------------------------------------------
 Center     Atomic      Atomic             Coordinates (Angstroms)
 Number     Number       Type             X           Y           Z
 ---------------------------------------------------------------------
      1          6           0        4.440245   -2.167371   -0.177167
      2          6           0        3.097083   -1.850511   -0.405280
      3          6           0        2.663091   -0.522344   -0.358665
      4          6           0        3.603455    0.468273   -0.079947
      5          6           0        4.948454    0.184407    0.151759
      6          6           0        5.360022   -1.150694    0.100136
      7          1           0        4.768671   -3.201816   -0.215325
      8          1           0        2.380555   -2.638011   -0.620862
      9          1           0        1.629236   -0.248954   -0.531351
     10          1           0        5.639367    0.991184    0.364290
     11          1           0        6.403766   -1.393828    0.277701
     12          7           0        3.155877    1.878014   -0.027946
     13          8           0        4.004059    2.732380    0.219608
     14          8           0        1.965358    2.101909   -0.235726
     15          6           0       -5.954836    0.679042   -0.495621
     16          6           0       -5.564226    0.576042    0.843534
     17          6           0       -4.304624    0.070563    1.178860
     18          6           0       -3.457030   -0.324386    0.144989
     19          6           0       -3.817265   -0.234122   -1.198652
     20          6           0       -5.081649    0.274345   -1.510650
     21          1           0       -6.935183    1.072871   -0.747049
     22          1           0       -6.240285    0.889570    1.633906
     23          1           0       -3.976692   -0.020082    2.207286
     24          1           0       -3.121522   -0.554713   -1.964537
     25          1           0       -5.382325    0.353195   -2.551526
     26          7           0       -2.121015   -0.861096    0.487636
     27          8           0       -1.392700   -1.202251   -0.441776
     28          8           0       -1.827458   -0.930451    1.679127
 ---------------------------------------------------------------------

 SCF Done:  E(RHF) =  -868.340341468     A.U. after   16 cycles
 E2 =    -0.2598307089D+01 EUMP2 =    -0.87093864855628D+03

 The electronic state is 1-A.
 Alpha  occ. eigenvalues --  -20.61161 -20.61125 -20.59882 -20.59866 -15.86164
 Alpha  occ. eigenvalues --  -15.84922 -11.31289 -11.30095 -11.27840 -11.27825
 Alpha  occ. eigenvalues --  -11.27549 -11.26807 -11.26796 -11.26756 -11.26481
 Alpha  occ. eigenvalues --  -11.26455 -11.25761 -11.25547  -1.60191  -1.58955
 Alpha  occ. eigenvalues --   -1.39755  -1.38511  -1.19441  -1.18278  -1.08884
 Alpha  occ. eigenvalues --   -1.07731  -1.04814  -1.03630  -0.95760  -0.94581
 Alpha  occ. eigenvalues --   -0.86225  -0.85057  -0.82606  -0.81403  -0.77673
 Alpha  occ. eigenvalues --   -0.76452  -0.72408  -0.71473  -0.71152  -0.70560
 Alpha  occ. eigenvalues --   -0.70272  -0.69401  -0.65106  -0.64824  -0.63931
 Alpha  occ. eigenvalues --   -0.63638  -0.62167  -0.60949  -0.55336  -0.54207
 Alpha  occ. eigenvalues --   -0.53147  -0.52910  -0.52012  -0.51712  -0.49170
 Alpha  occ. eigenvalues --   -0.49132  -0.47909  -0.47891  -0.45205  -0.43958
 Alpha  occ. eigenvalues --   -0.37407  -0.36401  -0.36307  -0.35230
 Alpha virt. eigenvalues --    0.04835   0.06043   0.11257   0.12407   0.16359
 Alpha virt. eigenvalues --    0.17549   0.21377   0.22550   0.27307   0.28175
 Alpha virt. eigenvalues --    0.28559   0.29445   0.30962   0.32056   0.32476

 Mulliken charges:
               1
     1  C   -0.171357
     2  C   -0.220915
     3  C   -0.172813
     4  C    0.156770
     5  C   -0.172075
     6  C   -0.219728
     7  H    0.222084
     8  H    0.229803
     9  H    0.291302
    10  H    0.271719
    11  H    0.219058
    12  N    0.488087
    13  O   -0.465217
    14  O   -0.460247
    15  C   -0.169798
    16  C   -0.218475
    17  C   -0.169528
    18  C    0.159270
    19  C   -0.169179
    20  C   -0.218365
    21  H    0.226432
    22  H    0.224315
    23  H    0.276269
    24  H    0.274695
    25  H    0.224078
    26  N    0.491160
    27  O   -0.470684
    28  O   -0.456660
 Sum of Mulliken charges =  -0.00000

 Dipole moment (field-independent basis, Debye):
    X=             -3.6246    Y=             -3.1192    Z=             -1.3588  Tot=              4.9712
 Quadrupole moment (field-independent basis, Debye-Ang):
   XX=            -57.9579   YY=           -111.9438   ZZ=           -100.9402
   XY=            -21.4564   XZ=              2.6766   YZ=              2.0068

 Normal termination of Gaussian 16 at Wed May  5 19:25:44 2021.
