 Gaussian 16, Revision A.03,
 Gaussian 16:  EM64L-G16RevA.03 25-Dec-2016

 -------------
 #p 6-31g* mp2
 -------------

 ------------------------------------------------------
 Input file generated by CHIRIPA (05-May-2021 14:51:08)
 ------------------------------------------------------
 Symbolic Z-matrix:
 Charge =  0 Multiplicity = 1

                         Standard orientation:
 ---------------------------------------------------------------------
 Center     Atomic      Atomic             Coordinates (Angstroms)
 Number     Number       Type             X           Y           Z
 ---------------------------------------------------------------------
      1          6           0        5.598349    0.260854   -0.144684
      2          6           0        6.919090   -0.503282   -0.046067
      3          6           0        8.133154    0.371802   -0.359228
      4          1           0        5.499134    0.679960   -1.155353
      5          1           0        5.624225    1.114601    0.546576
      6          1           0        6.890189   -1.356136   -0.736299
      7          1           0        7.015082   -0.920780    0.964426
      8          1           0        8.189909    1.215161    0.336563
      9          1           0        8.064307    0.777331   -1.373826
     10          1           0        9.066623   -0.194464   -0.282823
     11          6           0        4.375455   -0.600524    0.165617
     12          6           0        3.054714    0.163611    0.067000
     13          6           0        1.840649   -0.711473    0.380161
     14          1           0        4.349579   -1.454272   -0.525643
     15          1           0        4.474669   -1.019631    1.176285
     16          1           0        2.958721    0.581109   -0.943494
     17          1           0        3.083614    1.016466    0.757232
     18          1           0        1.909496   -1.117002    1.394758
     19          1           0        1.783894   -1.554832   -0.315630
     20          1           0        0.907180   -0.145207    0.303756
     21          6           0       -4.249827   -0.023497    0.042215
     22          6           0       -3.312621    1.180663    0.140349
     23          6           0       -1.841414    0.777720    0.245136
     24          1           0       -4.105662   -0.664976    0.922366
     25          1           0       -3.970561   -0.626301   -0.833018
     26          1           0       -3.594449    1.781763    1.014345
     27          1           0       -3.459170    1.819450   -0.740043
     28          1           0       -1.537687    0.196845   -0.631754
     29          1           0       -1.673732    0.158944    1.132603
     30          1           0       -1.189142    1.653863    0.314252
     31          6           0       -5.723977    0.363167   -0.063148
     32          6           0       -6.661181   -0.840992   -0.161282
     33          6           0       -8.132389   -0.438050   -0.266068
     34          1           0       -6.003242    0.965970    0.812085
     35          1           0       -5.868141    1.004647   -0.943299
     36          1           0       -6.514632   -1.479780    0.719111
     37          1           0       -6.379355   -1.442092   -1.035278
     38          1           0       -8.300070    0.180727   -1.153536
     39          1           0       -8.436117    0.142825    0.610822
     40          1           0       -8.784661   -1.314192   -0.335184
 ---------------------------------------------------------------------

 SCF Done:  E(RHF) =  -470.733196834     A.U. after   11 cycles
 E2 =    -0.1582279889D+01 EUMP2 =    -0.47231547672386D+03

 The electronic state is 1-A.
 Alpha  occ. eigenvalues --  -11.21614 -11.21603 -11.21565 -11.21509 -11.21410
 Alpha  occ. eigenvalues --  -11.21351 -11.21347 -11.21284 -11.21105 -11.21072
 Alpha  occ. eigenvalues --  -11.21043 -11.20875  -1.08439  -1.08365  -1.03551
 Alpha  occ. eigenvalues --   -1.03448  -0.96031  -0.95873  -0.87088  -0.86856
 Alpha  occ. eigenvalues --   -0.79658  -0.79478  -0.78250  -0.78180  -0.65068
 Alpha  occ. eigenvalues --   -0.64997  -0.60943  -0.60850  -0.59444  -0.59216
 Alpha  occ. eigenvalues --   -0.57628  -0.57495  -0.55294  -0.55177  -0.52985
 Alpha  occ. eigenvalues --   -0.52556  -0.52368  -0.52119  -0.49951  -0.49831
 Alpha  occ. eigenvalues --   -0.47966  -0.47784  -0.46642  -0.46553  -0.45793
 Alpha  occ. eigenvalues --   -0.45722  -0.45713  -0.45651  -0.43887  -0.43583
 Alpha virt. eigenvalues --    0.22654   0.22936   0.23682   0.24668   0.26631
 Alpha virt. eigenvalues --    0.26716   0.26727   0.27476   0.27620   0.28921
 Alpha virt. eigenvalues --    0.30635   0.31306   0.31473   0.31519   0.32144

 Mulliken charges:
               1
     1  C   -0.298131
     2  C   -0.299564
     3  C   -0.475656
     4  H    0.149456
     5  H    0.149346
     6  H    0.151837
     7  H    0.151858
     8  H    0.155107
     9  H    0.155096
    10  H    0.160117
    11  C   -0.298294
    12  C   -0.298750
    13  C   -0.486740
    14  H    0.149287
    15  H    0.149431
    16  H    0.151328
    17  H    0.151294
    18  H    0.153846
    19  H    0.153821
    20  H    0.175929
    21  C   -0.298463
    22  C   -0.300704
    23  C   -0.478137
    24  H    0.149855
    25  H    0.149669
    26  H    0.151998
    27  H    0.151985
    28  H    0.156216
    29  H    0.156797
    30  H    0.160079
    31  C   -0.298344
    32  C   -0.299627
    33  C   -0.475712
    34  H    0.149537
    35  H    0.149641
    36  H    0.152000
    37  H    0.151960
    38  H    0.155169
    39  H    0.155182
    40  H    0.160281
 Sum of Mulliken charges =  -0.00000

 Dipole moment (field-independent basis, Debye):
    X=             -0.0581    Y=              0.0092    Z=              0.0017  Tot=              0.0589
 Quadrupole moment (field-independent basis, Debye-Ang):
   XX=            -87.1867   YY=            -85.0511   ZZ=            -82.7767
   XY=             -0.2809   XZ=              0.0844   YZ=              0.3499

 Normal termination of Gaussian 16 at Wed May  5 15:04:51 2021.
