 Gaussian 16, Revision A.03,
 Gaussian 16:  EM64L-G16RevA.03 25-Dec-2016

 -------------
 #p 6-31g* mp2
 -------------

 ------------------------------------------------------
 Input file generated by CHIRIPA (05-May-2021 14:57:25)
 ------------------------------------------------------
 Symbolic Z-matrix:
 Charge =  0 Multiplicity = 1

                         Standard orientation:
 ---------------------------------------------------------------------
 Center     Atomic      Atomic             Coordinates (Angstroms)
 Number     Number       Type             X           Y           Z
 ---------------------------------------------------------------------
      1          6           0       -1.265576   -1.426685    1.142126
      2          6           0       -2.029661   -0.497824    1.856207
      3          6           0       -3.145010    0.106025    1.268064
      4          6           0       -3.469084   -0.243862   -0.041839
      5          6           0       -2.727638   -1.165710   -0.779228
      6          6           0       -1.616384   -1.757081   -0.170998
      7          1           0       -0.400737   -1.890923    1.606811
      8          1           0       -1.759573   -0.239319    2.876144
      9          1           0       -3.754038    0.828294    1.797999
     10          1           0       -3.021674   -1.403222   -1.794388
     11          1           0       -1.024820   -2.478114   -0.727961
     12          7           0       -4.647686    0.388801   -0.675112
     13          8           0       -4.912259    0.063515   -1.830459
     14          8           0       -5.284584    1.197990   -0.004133
     15          6           0        5.064611   -1.386555   -0.454306
     16          6           0        3.785896   -1.779937   -0.046066
     17          6           0        2.786458   -0.827440    0.173979
     18          6           0        3.101808    0.515835   -0.024657
     19          6           0        4.366282    0.939198   -0.431053
     20          6           0        5.350219   -0.030634   -0.645160
     21          1           0        5.834979   -2.133211   -0.622936
     22          1           0        3.561242   -2.832256    0.102939
     23          1           0        1.788102   -1.104254    0.490330
     24          1           0        4.560222    1.995669   -0.571320
     25          1           0        6.342404    0.277779   -0.962174
     26          7           0        2.051952    1.533377    0.205152
     27          8           0        2.355108    2.710499    0.023173
     28          8           0        0.945797    1.134537    0.562903
 ---------------------------------------------------------------------

 SCF Done:  E(RHF) =  -868.336377501     A.U. after   16 cycles
 E2 =    -0.2601557022D+01 EUMP2 =    -0.87093793452269D+03

 The electronic state is 1-A.
 Alpha  occ. eigenvalues --  -20.61307 -20.61285 -20.60182 -20.60168 -15.86347
 Alpha  occ. eigenvalues --  -15.85229 -11.31821 -11.30527 -11.28475 -11.28338
 Alpha  occ. eigenvalues --  -11.28111 -11.27466 -11.27364 -11.27152 -11.27048
 Alpha  occ. eigenvalues --  -11.26984 -11.26251 -11.26074  -1.60375  -1.59251
 Alpha  occ. eigenvalues --   -1.39927  -1.38808  -1.19991  -1.18702  -1.09357
 Alpha  occ. eigenvalues --   -1.08147  -1.05419  -1.04111  -0.96186  -0.94996
 Alpha  occ. eigenvalues --   -0.86807  -0.85547  -0.83019  -0.81837  -0.78069
 Alpha  occ. eigenvalues --   -0.76858  -0.72576  -0.71701  -0.71461  -0.71115
 Alpha  occ. eigenvalues --   -0.70564  -0.69943  -0.65643  -0.65422  -0.64403
 Alpha  occ. eigenvalues --   -0.64178  -0.62779  -0.61486  -0.55895  -0.54773
 Alpha  occ. eigenvalues --   -0.53725  -0.53496  -0.52371  -0.52259  -0.49338
 Alpha  occ. eigenvalues --   -0.49313  -0.48212  -0.48210  -0.45312  -0.44230
 Alpha  occ. eigenvalues --   -0.37951  -0.37026  -0.36631  -0.35650
 Alpha virt. eigenvalues --    0.04478   0.05656   0.10618   0.11949   0.15977
 Alpha virt. eigenvalues --    0.17005   0.19708   0.22068   0.25879   0.27265
 Alpha virt. eigenvalues --    0.27819   0.29356   0.30730   0.31138   0.32743

 Mulliken charges:
               1
     1  C   -0.157410
     2  C   -0.206875
     3  C   -0.168081
     4  C    0.160038
     5  C   -0.169659
     6  C   -0.217939
     7  H    0.211189
     8  H    0.223396
     9  H    0.275304
    10  H    0.273002
    11  H    0.214337
    12  N    0.488221
    13  O   -0.462882
    14  O   -0.460491
    15  C   -0.170222
    16  C   -0.220236
    17  C   -0.173488
    18  C    0.157476
    19  C   -0.169479
    20  C   -0.218300
    21  H    0.227441
    22  H    0.221420
    23  H    0.271118
    24  H    0.277943
    25  H    0.225947
    26  N    0.489155
    27  O   -0.457229
    28  O   -0.463697
 Sum of Mulliken charges =  -0.00000

 Dipole moment (field-independent basis, Debye):
    X=              7.9775    Y=             -5.5328    Z=              1.4753  Tot=              9.8198
 Quadrupole moment (field-independent basis, Debye-Ang):
   XX=           -108.8709   YY=           -104.6923   ZZ=           -102.1518
   XY=             -0.5009   XZ=            -12.8627   YZ=              0.7829

 Normal termination of Gaussian 16 at Thu May  6 08:18:53 2021.
