 Gaussian 16, Revision A.03,
 Gaussian 16:  EM64L-G16RevA.03 25-Dec-2016

 -------------
 #p 6-31g* mp2
 -------------

 ------------------------------------------------------
 Input file generated by CHIRIPA (05-May-2021 14:53:14)
 ------------------------------------------------------
 Symbolic Z-matrix:
 Charge =  0 Multiplicity = 1

                         Standard orientation:
 ---------------------------------------------------------------------
 Center     Atomic      Atomic             Coordinates (Angstroms)
 Number     Number       Type             X           Y           Z
 ---------------------------------------------------------------------
      1          6           0        2.703334    0.642186   -0.735184
      2          6           0        2.245976    1.945410   -0.079123
      3          6           0        1.352332    2.785132   -0.992393
      4          1           0        3.242048    0.875897   -1.663684
      5          1           0        1.820209    0.056218   -1.025231
      6          1           0        3.129709    2.528119    0.210849
      7          1           0        1.708454    1.708578    0.848021
      8          1           0        0.453485    2.226055   -1.271872
      9          1           0        1.882815    3.050252   -1.912664
     10          1           0        1.036940    3.712169   -0.503526
     11          6           0        3.597456   -0.208201    0.165435
     12          6           0        4.054813   -1.511424   -0.490627
     13          6           0        4.948458   -2.351146    0.422643
     14          1           0        4.480581    0.377768    0.455482
     15          1           0        3.058742   -0.441911    1.093934
     16          1           0        4.592336   -1.274592   -1.417771
     17          1           0        3.171081   -2.094133   -0.780599
     18          1           0        4.417974   -2.616266    1.342914
     19          1           0        5.847304   -1.792069    0.702122
     20          1           0        5.263850   -3.278183   -0.066224
     21          6           0       -3.499526   -2.291091   -0.664491
     22          6           0       -3.842082   -1.056406   -1.225499
     23          6           0       -3.273035    0.125523   -0.741996
     24          6           0       -2.360869    0.035579    0.308315
     25          6           0       -1.999308   -1.179441    0.888220
     26          6           0       -2.580853   -2.348567    0.388721
     27          1           0       -3.946430   -3.204269   -1.046301
     28          1           0       -4.555247   -1.008747   -2.043527
     29          1           0       -3.520349    1.094723   -1.157817
     30          1           0       -1.285338   -1.195101    1.702726
     31          1           0       -2.312945   -3.306040    0.826346
     32          7           0       -1.751829    1.280058    0.828645
     33          8           0       -0.950786    1.173928    1.754768
     34          8           0       -2.087038    2.338046    0.300504
 ---------------------------------------------------------------------

 SCF Done:  E(RHF) =  -669.536141287     A.U. after   15 cycles
 E2 =    -0.2092538450D+01 EUMP2 =    -0.67162867973760D+03

 The electronic state is 1-A.
 Alpha  occ. eigenvalues --  -20.61025 -20.61014 -15.86026 -11.31341 -11.27901
 Alpha  occ. eigenvalues --  -11.27892 -11.27628 -11.26898 -11.26888 -11.21293
 Alpha  occ. eigenvalues --  -11.20862 -11.20849 -11.20662 -11.20338 -11.19815
 Alpha  occ. eigenvalues --   -1.60066  -1.39625  -1.19504  -1.08911  -1.07771
 Alpha  occ. eigenvalues --   -1.04896  -1.02793  -0.95757  -0.95264  -0.86300
 Alpha  occ. eigenvalues --   -0.86286  -0.82590  -0.78904  -0.77648  -0.77517
 Alpha  occ. eigenvalues --   -0.72252  -0.71405  -0.70610  -0.65159  -0.64897
 Alpha  occ. eigenvalues --   -0.64403  -0.62243  -0.60177  -0.58684  -0.56841
 Alpha  occ. eigenvalues --   -0.55400  -0.54576  -0.53222  -0.52986  -0.51935
 Alpha  occ. eigenvalues --   -0.51694  -0.49292  -0.49025  -0.48977  -0.47201
 Alpha  occ. eigenvalues --   -0.46087  -0.45302  -0.45076  -0.44482  -0.43044
 Alpha  occ. eigenvalues --   -0.37478  -0.36495
 Alpha virt. eigenvalues --    0.04834   0.11150   0.16286   0.21259   0.23368
 Alpha virt. eigenvalues --    0.24946   0.27050   0.27260   0.28026   0.28466
 Alpha virt. eigenvalues --    0.28640   0.30854   0.32042   0.32284   0.32572

 Mulliken charges:
               1
     1  C   -0.296055
     2  C   -0.310970
     3  C   -0.470268
     4  H    0.146287
     5  H    0.142599
     6  H    0.146839
     7  H    0.174414
     8  H    0.150208
     9  H    0.145865
    10  H    0.169317
    11  C   -0.297866
    12  C   -0.298584
    13  C   -0.475048
    14  H    0.149531
    15  H    0.150302
    16  H    0.151367
    17  H    0.147815
    18  H    0.153500
    19  H    0.155900
    20  H    0.157864
    21  C   -0.170437
    22  C   -0.218475
    23  C   -0.170928
    24  C    0.157788
    25  C   -0.170973
    26  C   -0.218510
    27  H    0.226276
    28  H    0.224137
    29  H    0.276278
    30  H    0.275560
    31  H    0.224064
    32  N    0.488203
    33  O   -0.459471
    34  O   -0.456529
 Sum of Mulliken charges =  -0.00000

 Dipole moment (field-independent basis, Debye):
    X=             -2.4110    Y=             -4.2813    Z=             -1.6854  Tot=              5.1945
 Quadrupole moment (field-independent basis, Debye-Ang):
   XX=            -84.0030   YY=            -94.2300   ZZ=            -94.4700
   XY=              9.8704   XZ=              5.5106   YZ=             -2.9700

 Normal termination of Gaussian 16 at Thu May  6 02:37:45 2021.
