 Gaussian 16, Revision A.03,
 Gaussian 16:  EM64L-G16RevA.03 25-Dec-2016

 -------------
 #p 6-31g* mp2
 -------------

 ------------------------------------------------------
 Input file generated by CHIRIPA (05-May-2021 14:57:21)
 ------------------------------------------------------
 Symbolic Z-matrix:
 Charge =  0 Multiplicity = 1

                         Standard orientation:
 ---------------------------------------------------------------------
 Center     Atomic      Atomic             Coordinates (Angstroms)
 Number     Number       Type             X           Y           Z
 ---------------------------------------------------------------------
      1          6           0       -4.918657   -2.154215    0.401197
      2          6           0       -4.951296   -1.529274   -0.849765
      3          6           0       -4.317794   -0.298425   -1.045295
      4          6           0       -3.657898    0.281781    0.036921
      5          6           0       -3.607651   -0.315954    1.295284
      6          6           0       -4.248121   -1.546632    1.467848
      7          1           0       -5.413483   -3.110302    0.544169
      8          1           0       -5.471287   -1.998806   -1.679942
      9          1           0       -4.327418    0.207362   -2.003159
     10          1           0       -3.081330    0.176604    2.103857
     11          1           0       -4.221134   -2.029665    2.440471
     12          7           0       -2.983550    1.584736   -0.157922
     13          8           0       -2.408909    2.075209    0.811542
     14          8           0       -3.042405    2.090846   -1.276414
     15          6           0        1.408134    0.798394   -0.276575
     16          6           0        1.748832   -0.443757   -0.822016
     17          6           0        3.053860   -0.933210   -0.712995
     18          6           0        3.997283   -0.150705   -0.048968
     19          6           0        3.688706    1.090742    0.504997
     20          6           0        2.377449    1.560335    0.384026
     21          1           0        0.391937    1.170900   -0.365906
     22          1           0        0.998116   -1.037652   -1.335589
     23          1           0        3.344857   -1.891435   -1.125966
     24          1           0        4.458821    1.659997    1.011248
     25          1           0        2.115712    2.525364    0.808597
     26          7           0        5.382155   -0.658355    0.072772
     27          8           0        6.194938    0.050255    0.662597
     28          8           0        5.628613   -1.755250   -0.423936
 ---------------------------------------------------------------------

 SCF Done:  E(RHF) =  -868.339638033     A.U. after   16 cycles
 E2 =    -0.2598543789D+01 EUMP2 =    -0.87093818182252D+03

 The electronic state is 1-A.
 Alpha  occ. eigenvalues --  -20.61967 -20.61953 -20.60373 -20.60365 -15.86985
 Alpha  occ. eigenvalues --  -15.85422 -11.32090 -11.30654 -11.28621 -11.28616
 Alpha  occ. eigenvalues --  -11.28293 -11.27560 -11.27547 -11.27254 -11.27193
 Alpha  occ. eigenvalues --  -11.26787 -11.26205 -11.26084  -1.61048  -1.59451
 Alpha  occ. eigenvalues --   -1.40597  -1.39008  -1.20237  -1.18806  -1.09677
 Alpha  occ. eigenvalues --   -1.08194  -1.05588  -1.04198  -0.96551  -0.95055
 Alpha  occ. eigenvalues --   -0.86996  -0.85582  -0.83382  -0.81904  -0.78468
 Alpha  occ. eigenvalues --   -0.76996  -0.73189  -0.72394  -0.71641  -0.71320
 Alpha  occ. eigenvalues --   -0.70775  -0.69815  -0.65879  -0.65572  -0.64443
 Alpha  occ. eigenvalues --   -0.64181  -0.62931  -0.61555  -0.56083  -0.54586
 Alpha  occ. eigenvalues --   -0.53942  -0.53664  -0.52529  -0.52274  -0.49971
 Alpha  occ. eigenvalues --   -0.49936  -0.48405  -0.48386  -0.46041  -0.44445
 Alpha  occ. eigenvalues --   -0.38203  -0.37183  -0.36735  -0.35820
 Alpha virt. eigenvalues --    0.04005   0.05547   0.10474   0.11848   0.15555
 Alpha virt. eigenvalues --    0.17089   0.20686   0.22053   0.26631   0.27502
 Alpha virt. eigenvalues --    0.27902   0.28719   0.30354   0.31504   0.31848

 Mulliken charges:
               1
     1  C   -0.169802
     2  C   -0.218792
     3  C   -0.171887
     4  C    0.154700
     5  C   -0.171338
     6  C   -0.218495
     7  H    0.229014
     8  H    0.226262
     9  H    0.276581
    10  H    0.276566
    11  H    0.226804
    12  N    0.485053
    13  O   -0.463659
    14  O   -0.457935
    15  C   -0.174013
    16  C   -0.220184
    17  C   -0.171819
    18  C    0.157395
    19  C   -0.171905
    20  C   -0.220522
    21  H    0.238696
    22  H    0.219559
    23  H    0.272610
    24  H    0.274227
    25  H    0.228936
    26  N    0.488225
    27  O   -0.461458
    28  O   -0.462817
 Sum of Mulliken charges =  -0.00000

 Dipole moment (field-independent basis, Debye):
    X=             -7.6772    Y=             -2.7835    Z=              0.3057  Tot=              8.1719
 Quadrupole moment (field-independent basis, Debye-Ang):
   XX=           -126.8721   YY=           -105.1273   ZZ=            -99.4796
   XY=             26.3247   XZ=             -1.7143   YZ=              2.2284

 Normal termination of Gaussian 16 at Thu May  6 16:09:48 2021.
