 Gaussian 16, Revision A.03,
 Gaussian 16:  EM64L-G16RevA.03 25-Dec-2016

 -------------
 #p 6-31g* mp2
 -------------

 ------------------------------------------------------
 Input file generated by CHIRIPA (05-May-2021 14:53:12)
 ------------------------------------------------------
 Symbolic Z-matrix:
 Charge =  0 Multiplicity = 1

                         Standard orientation:
 ---------------------------------------------------------------------
 Center     Atomic      Atomic             Coordinates (Angstroms)
 Number     Number       Type             X           Y           Z
 ---------------------------------------------------------------------
      1          6           0       -3.484718   -0.115507   -0.190951
      2          6           0       -2.603371   -1.330911    0.098888
      3          6           0       -1.116295   -1.047431   -0.115676
      4          1           0       -3.318036    0.211763   -1.226353
      5          1           0       -3.172445    0.717343    0.454217
      6          1           0       -2.918118   -2.161641   -0.545656
      7          1           0       -2.772313   -1.655442    1.133660
      8          1           0       -0.780560   -0.235971    0.538095
      9          1           0       -0.927194   -0.745046   -1.150763
     10          1           0       -0.504619   -1.929708    0.097163
     11          6           0       -4.973997   -0.383227    0.019053
     12          6           0       -5.855344    0.832176   -0.270786
     13          6           0       -7.342421    0.548696   -0.056223
     14          1           0       -5.286270   -1.216077   -0.626115
     15          1           0       -5.140679   -0.710497    1.054455
     16          1           0       -5.686402    1.156708   -1.305559
     17          1           0       -5.540598    1.662907    0.373757
     18          1           0       -7.531522    0.246312    0.978864
     19          1           0       -7.678155   -0.262764   -0.709993
     20          1           0       -7.954097    1.430973   -0.269061
     21          6           0        3.682366   -2.298144   -0.022545
     22          6           0        2.576827   -1.782008    0.661492
     23          6           0        2.357367   -0.402433    0.717721
     24          6           0        3.267625    0.435829    0.075819
     25          6           0        4.378433   -0.047939   -0.613647
     26          6           0        4.578061   -1.430991   -0.656813
     27          1           0        3.845145   -3.371181   -0.061151
     28          1           0        1.879566   -2.453072    1.154995
     29          1           0        1.509729    0.024030    1.240270
     30          1           0        5.056097    0.646062   -1.095885
     31          1           0        5.437502   -1.829011   -1.188780
     32          7           0        3.045790    1.898163    0.128431
     33          8           0        3.862417    2.615524   -0.445284
     34          8           0        2.059488    2.299290    0.742388
 ---------------------------------------------------------------------

 SCF Done:  E(RHF) =  -669.534726844     A.U. after   15 cycles
 E2 =    -0.2092051215D+01 EUMP2 =    -0.67162677805906D+03

 The electronic state is 1-A.
 Alpha  occ. eigenvalues --  -20.60725 -20.60720 -15.85777 -11.31108 -11.27698
 Alpha  occ. eigenvalues --  -11.27655 -11.27443 -11.26707 -11.26684 -11.21887
 Alpha  occ. eigenvalues --  -11.21582 -11.21538 -11.21479 -11.21413 -11.21055
 Alpha  occ. eigenvalues --   -1.59799  -1.39354  -1.19295  -1.08697  -1.08544
 Alpha  occ. eigenvalues --   -1.04703  -1.03692  -0.96166  -0.95530  -0.87194
 Alpha  occ. eigenvalues --   -0.86098  -0.82369  -0.79772  -0.78330  -0.77407
 Alpha  occ. eigenvalues --   -0.71998  -0.71120  -0.70417  -0.65180  -0.64950
 Alpha  occ. eigenvalues --   -0.64722  -0.62110  -0.61062  -0.59539  -0.57758
 Alpha  occ. eigenvalues --   -0.55482  -0.55171  -0.53223  -0.52946  -0.52668
 Alpha  occ. eigenvalues --   -0.52430  -0.50076  -0.48753  -0.48752  -0.48064
 Alpha  occ. eigenvalues --   -0.46772  -0.45878  -0.45783  -0.44764  -0.43946
 Alpha  occ. eigenvalues --   -0.37282  -0.36246
 Alpha virt. eigenvalues --    0.05102   0.11301   0.16533   0.20621   0.22878
 Alpha virt. eigenvalues --    0.24097   0.25963   0.26548   0.26887   0.27902
 Alpha virt. eigenvalues --    0.29065   0.29556   0.31465   0.31746   0.32481

 Mulliken charges:
               1
     1  C   -0.299525
     2  C   -0.300195
     3  C   -0.479964
     4  H    0.151537
     5  H    0.153807
     6  H    0.151893
     7  H    0.150436
     8  H    0.157049
     9  H    0.161541
    10  H    0.151616
    11  C   -0.298456
    12  C   -0.300052
    13  C   -0.475817
    14  H    0.148761
    15  H    0.149174
    16  H    0.152779
    17  H    0.153850
    18  H    0.154945
    19  H    0.154618
    20  H    0.161061
    21  C   -0.171331
    22  C   -0.219601
    23  C   -0.166762
    24  C    0.156544
    25  C   -0.170877
    26  C   -0.218856
    27  H    0.225219
    28  H    0.223346
    29  H    0.278745
    30  H    0.275286
    31  H    0.223049
    32  N    0.488110
    33  O   -0.460623
    34  O   -0.461305
 Sum of Mulliken charges =  -0.00000

 Dipole moment (field-independent basis, Debye):
    X=              0.6983    Y=             -5.0882    Z=             -0.2264  Tot=              5.1409
 Quadrupole moment (field-independent basis, Debye-Ang):
   XX=            -87.5932   YY=            -99.8990   ZZ=            -92.9806
   XY=            -16.2401   XZ=             -2.9252   YZ=             -0.5992

 Normal termination of Gaussian 16 at Thu May  6 15:18:29 2021.
