 Gaussian 16, Revision A.03,
 Gaussian 16:  EM64L-G16RevA.03 25-Dec-2016

 -------------
 #p 6-31g* mp2
 -------------

 ------------------------------------------------------
 Input file generated by CHIRIPA (05-May-2021 14:57:26)
 ------------------------------------------------------
 Symbolic Z-matrix:
 Charge =  0 Multiplicity = 1

                         Standard orientation:
 ---------------------------------------------------------------------
 Center     Atomic      Atomic             Coordinates (Angstroms)
 Number     Number       Type             X           Y           Z
 ---------------------------------------------------------------------
      1          6           0        3.566171   -2.395947   -0.033517
      2          6           0        2.441986   -1.564449    0.003084
      3          6           0        2.586853   -0.173937   -0.002908
      4          6           0        3.876488    0.353568   -0.046158
      5          6           0        5.016067   -0.448473   -0.083295
      6          6           0        4.847365   -1.836292   -0.076514
      7          1           0        3.444378   -3.475085   -0.028555
      8          1           0        1.445778   -1.996302    0.036515
      9          1           0        1.733775    0.493077    0.024836
     10          1           0        5.996322    0.011348   -0.116220
     11          1           0        5.722228   -2.479602   -0.105001
     12          7           0        4.042468    1.824216   -0.052920
     13          8           0        5.189457    2.264187   -0.091361
     14          8           0        3.022431    2.509092   -0.019650
     15          6           0       -5.558123    1.734597   -0.150792
     16          6           0       -4.245977    2.033135    0.230875
     17          6           0       -3.290746    1.018445    0.342628
     18          6           0       -3.683913   -0.289631    0.063977
     19          6           0       -4.983366   -0.618879   -0.318528
     20          6           0       -5.921988    0.411876   -0.423794
     21          1           0       -6.293718    2.529073   -0.235084
     22          1           0       -3.960561    3.059473    0.443507
     23          1           0       -2.267982    1.221496    0.636126
     24          1           0       -5.238022   -1.651519   -0.524007
     25          1           0       -6.940289    0.177086   -0.720409
     26          7           0       -2.681444   -1.372341    0.178851
     27          8           0       -3.053034   -2.516707   -0.072116
     28          8           0       -1.543102   -1.056102    0.517681
 ---------------------------------------------------------------------

 SCF Done:  E(RHF) =  -868.341025068     A.U. after   16 cycles
 E2 =    -0.2598159639D+01 EUMP2 =    -0.87093918470755D+03

 The electronic state is 1-A.
 Alpha  occ. eigenvalues --  -20.61581 -20.61554 -20.60218 -20.60208 -15.86589
 Alpha  occ. eigenvalues --  -15.85255 -11.31611 -11.30366 -11.28144 -11.28122
 Alpha  occ. eigenvalues --  -11.27815 -11.27087 -11.27047 -11.26938 -11.26785
 Alpha  occ. eigenvalues --  -11.26545 -11.25936 -11.25608  -1.60623  -1.59293
 Alpha  occ. eigenvalues --   -1.40188  -1.38854  -1.19750  -1.18491  -1.09209
 Alpha  occ. eigenvalues --   -1.07937  -1.05098  -1.03821  -0.96102  -0.94821
 Alpha  occ. eigenvalues --   -0.86514  -0.85239  -0.82950  -0.81638  -0.78029
 Alpha  occ. eigenvalues --   -0.76717  -0.72832  -0.71915  -0.71485  -0.70854
 Alpha  occ. eigenvalues --   -0.70609  -0.69606  -0.65407  -0.65095  -0.64127
 Alpha  occ. eigenvalues --   -0.63779  -0.62447  -0.61146  -0.55614  -0.54354
 Alpha  occ. eigenvalues --   -0.53448  -0.53183  -0.52211  -0.51876  -0.49587
 Alpha  occ. eigenvalues --   -0.49542  -0.48250  -0.48209  -0.45665  -0.44316
 Alpha  occ. eigenvalues --   -0.37711  -0.36684  -0.36482  -0.35424
 Alpha virt. eigenvalues --    0.04473   0.05756   0.10973   0.12217   0.16032
 Alpha virt. eigenvalues --    0.17325   0.21043   0.22453   0.26863   0.27494
 Alpha virt. eigenvalues --    0.28742   0.29183   0.30850   0.31986   0.32182

 Mulliken charges:
               1
     1  C   -0.172183
     2  C   -0.225830
     3  C   -0.173281
     4  C    0.158163
     5  C   -0.173383
     6  C   -0.218639
     7  H    0.225325
     8  H    0.247918
     9  H    0.275641
    10  H    0.272060
    11  H    0.220086
    12  N    0.488399
    13  O   -0.462900
    14  O   -0.464437
    15  C   -0.169714
    16  C   -0.218558
    17  C   -0.170280
    18  C    0.157553
    19  C   -0.170515
    20  C   -0.218642
    21  H    0.227860
    22  H    0.227653
    23  H    0.276238
    24  H    0.275492
    25  H    0.224751
    26  N    0.491191
    27  O   -0.458054
    28  O   -0.471913
 Sum of Mulliken charges =  -0.00000

 Dipole moment (field-independent basis, Debye):
    X=             -4.6488    Y=             -1.4202    Z=             -0.3799  Tot=              4.8757
 Quadrupole moment (field-independent basis, Debye-Ang):
   XX=            -76.6487   YY=           -109.1360   ZZ=           -106.2578
   XY=            -32.2431   XZ=              2.4265   YZ=              1.7185

 Normal termination of Gaussian 16 at Thu May  6 01:59:18 2021.
