 Gaussian 16, Revision A.03,
 Gaussian 16:  EM64L-G16RevA.03 25-Dec-2016

 -------------
 #p 6-31g* mp2
 -------------

 ------------------------------------------------------
 Input file generated by CHIRIPA (05-May-2021 14:51:08)
 ------------------------------------------------------
 Symbolic Z-matrix:
 Charge =  0 Multiplicity = 1

                         Standard orientation:
 ---------------------------------------------------------------------
 Center     Atomic      Atomic             Coordinates (Angstroms)
 Number     Number       Type             X           Y           Z
 ---------------------------------------------------------------------
      1          6           0       -2.278803    0.276390    0.130000
      2          6           0       -3.553583    1.111951    0.251493
      3          6           0       -3.268965    2.585377    0.544410
      4          1           0       -1.701872    0.361829    1.061019
      5          1           0       -1.649123    0.694735   -0.667423
      6          1           0       -4.181303    0.691325    1.047519
      7          1           0       -4.127641    1.024360   -0.679851
      8          1           0       -2.662855    3.026663   -0.253399
      9          1           0       -2.716823    2.691736    1.483786
     10          1           0       -4.194133    3.164220    0.627269
     11          6           0       -2.546961   -1.198778   -0.162741
     12          6           0       -1.272182   -2.034339   -0.284233
     13          6           0       -1.556800   -3.507765   -0.577150
     14          1           0       -3.176642   -1.617123    0.634683
     15          1           0       -3.123893   -1.284216   -1.093759
     16          1           0       -0.698124   -1.946748    0.647111
     17          1           0       -0.644462   -1.613713   -1.080260
     18          1           0       -2.108942   -3.614124   -1.516526
     19          1           0       -2.162910   -3.949051    0.220659
     20          1           0       -0.631632   -4.086608   -0.660009
     21          6           0        2.416564    1.188039    0.251135
     22          6           0        1.972642    2.176081   -0.828074
     23          6           0        1.985267    3.626118   -0.343278
     24          1           0        1.758861    1.289657    1.125232
     25          1           0        3.427946    1.454093    0.588355
     26          1           0        0.962943    1.907411   -1.164140
     27          1           0        2.631360    2.071965   -1.699775
     28          1           0        2.991843    3.917607   -0.026357
     29          1           0        1.313947    3.752118    0.512323
     30          1           0        1.664527    4.315447   -1.130560
     31          6           0        2.409200   -0.265651   -0.218395
     32          6           0        2.853123   -1.253693    0.860813
     33          6           0        2.840498   -2.703730    0.376019
     34          1           0        1.397819   -0.531706   -0.555615
     35          1           0        3.066903   -0.367269   -1.092491
     36          1           0        2.194405   -1.149577    1.732516
     37          1           0        3.862821   -0.985023    1.196880
     38          1           0        3.511818   -2.829731   -0.479582
     39          1           0        1.833922   -2.995220    0.059097
     40          1           0        3.161238   -3.393059    1.163300
 ---------------------------------------------------------------------

 SCF Done:  E(RHF) =  -470.732780708     A.U. after   11 cycles
 E2 =    -0.1584971171D+01 EUMP2 =    -0.47231775187889D+03

 The electronic state is 1-A.
 Alpha  occ. eigenvalues --  -11.21710 -11.21684 -11.21552 -11.21536 -11.21518
 Alpha  occ. eigenvalues --  -11.21457 -11.21304 -11.21204 -11.21161 -11.21133
 Alpha  occ. eigenvalues --  -11.21024 -11.21002  -1.08552  -1.08337  -1.03644
 Alpha  occ. eigenvalues --   -1.03453  -0.96076  -0.95906  -0.87097  -0.86920
 Alpha  occ. eigenvalues --   -0.79743  -0.79510  -0.78460  -0.78069  -0.65178
 Alpha  occ. eigenvalues --   -0.64980  -0.61032  -0.60917  -0.59451  -0.59242
 Alpha  occ. eigenvalues --   -0.57716  -0.57497  -0.55369  -0.55179  -0.52768
 Alpha  occ. eigenvalues --   -0.52615  -0.52558  -0.52290  -0.50028  -0.49841
 Alpha  occ. eigenvalues --   -0.48119  -0.47778  -0.46795  -0.46504  -0.46333
 Alpha  occ. eigenvalues --   -0.45854  -0.45655  -0.45060  -0.43880  -0.43706
 Alpha virt. eigenvalues --    0.20140   0.21666   0.23633   0.24082   0.25445
 Alpha virt. eigenvalues --    0.25895   0.26174   0.28251   0.29138   0.29750
 Alpha virt. eigenvalues --    0.30420   0.30984   0.31312   0.31734   0.32181

 Mulliken charges:
               1
     1  C   -0.302000
     2  C   -0.299618
     3  C   -0.475952
     4  H    0.149570
     5  H    0.151970
     6  H    0.152354
     7  H    0.152301
     8  H    0.155620
     9  H    0.155009
    10  H    0.160714
    11  C   -0.297975
    12  C   -0.306142
    13  C   -0.478176
    14  H    0.150040
    15  H    0.150064
    16  H    0.153966
    17  H    0.156188
    18  H    0.155773
    19  H    0.155777
    20  H    0.162651
    21  C   -0.297264
    22  C   -0.301926
    23  C   -0.475705
    24  H    0.149435
    25  H    0.148976
    26  H    0.153286
    27  H    0.151545
    28  H    0.155059
    29  H    0.155710
    30  H    0.159743
    31  C   -0.307408
    32  C   -0.298575
    33  C   -0.482110
    34  H    0.160138
    35  H    0.148343
    36  H    0.150734
    37  H    0.151660
    38  H    0.154843
    39  H    0.161669
    40  H    0.159713
 Sum of Mulliken charges =  -0.00000

 Dipole moment (field-independent basis, Debye):
    X=             -0.0890    Y=             -0.0249    Z=             -0.0138  Tot=              0.0934
 Quadrupole moment (field-independent basis, Debye-Ang):
   XX=            -83.9335   YY=            -87.1217   ZZ=            -83.7624
   XY=              0.1363   XZ=             -0.3421   YZ=             -0.6246

 Normal termination of Gaussian 16 at Wed May  5 15:04:14 2021.
