 Gaussian 16, Revision A.03,
 Gaussian 16:  EM64L-G16RevA.03 25-Dec-2016

 -------------
 #p 6-31g* mp2
 -------------

 ------------------------------------------------------
 Input file generated by CHIRIPA (05-May-2021 14:57:23)
 ------------------------------------------------------
 Symbolic Z-matrix:
 Charge =  0 Multiplicity = 1

                         Standard orientation:
 ---------------------------------------------------------------------
 Center     Atomic      Atomic             Coordinates (Angstroms)
 Number     Number       Type             X           Y           Z
 ---------------------------------------------------------------------
      1          6           0        1.706180    2.150677   -0.612864
      2          6           0        1.352843    0.800919   -0.712007
      3          6           0        2.292665   -0.200193   -0.449221
      4          6           0        3.582568    0.185943   -0.088195
      5          6           0        3.965132    1.522139    0.019124
      6          6           0        3.008899    2.506351   -0.248258
      7          1           0        0.969729    2.921801   -0.818787
      8          1           0        0.341876    0.521759   -0.994957
      9          1           0        2.046059   -1.252720   -0.518439
     10          1           0        4.980738    1.769458    0.303366
     11          1           0        3.286128    3.553795   -0.170472
     12          7           0        4.586202   -0.864944    0.192437
     13          8           0        5.716002   -0.498619    0.508657
     14          8           0        4.224047   -2.035057    0.090862
     15          6           0       -5.412968    1.183870    0.092346
     16          6           0       -4.475905    1.279516    1.126407
     17          6           0       -3.366256    0.429746    1.159866
     18          6           0       -3.224210   -0.508315    0.138517
     19          6           0       -4.140551   -0.628110   -0.905158
     20          6           0       -5.242601    0.232040   -0.918355
     21          1           0       -6.272019    1.848024    0.074224
     22          1           0       -4.605653    2.017770    1.912660
     23          1           0       -2.625566    0.482174    1.948566
     24          1           0       -3.984221   -1.374046   -1.674936
     25          1           0       -5.968739    0.155494   -1.722661
     26          7           0       -2.053497   -1.413423    0.163213
     27          8           0       -1.951139   -2.231405   -0.748415
     28          8           0       -1.260416   -1.287725    1.093729
 ---------------------------------------------------------------------

 SCF Done:  E(RHF) =  -868.338298582     A.U. after   16 cycles
 E2 =    -0.2599454488D+01 EUMP2 =    -0.87093775306945D+03

 The electronic state is 1-A.
 Alpha  occ. eigenvalues --  -20.61663 -20.61646 -20.60005 -20.59976 -15.86681
 Alpha  occ. eigenvalues --  -15.85044 -11.31940 -11.30368 -11.28483 -11.28478
 Alpha  occ. eigenvalues --  -11.28189 -11.27458 -11.27445 -11.27022 -11.26823
 Alpha  occ. eigenvalues --  -11.26793 -11.26071 -11.25938  -1.60748  -1.59070
 Alpha  occ. eigenvalues --   -1.40290  -1.38622  -1.20099  -1.18566  -1.09515
 Alpha  occ. eigenvalues --   -1.07997  -1.05470  -1.03946  -0.96362  -0.94821
 Alpha  occ. eigenvalues --   -0.86871  -0.85374  -0.83182  -0.81640  -0.78254
 Alpha  occ. eigenvalues --   -0.76673  -0.72880  -0.72099  -0.71267  -0.71181
 Alpha  occ. eigenvalues --   -0.70392  -0.69711  -0.65738  -0.65455  -0.64225
 Alpha  occ. eigenvalues --   -0.63977  -0.62807  -0.61278  -0.55961  -0.54539
 Alpha  occ. eigenvalues --   -0.53824  -0.53546  -0.52306  -0.52053  -0.49661
 Alpha  occ. eigenvalues --   -0.49649  -0.48035  -0.48010  -0.45701  -0.44034
 Alpha  occ. eigenvalues --   -0.38079  -0.37074  -0.36607  -0.35523
 Alpha virt. eigenvalues --    0.04231   0.05853   0.10578   0.12098   0.15750
 Alpha virt. eigenvalues --    0.17323   0.20789   0.21998   0.26724   0.27411
 Alpha virt. eigenvalues --    0.27869   0.29028   0.30409   0.31419   0.31908

 Mulliken charges:
               1
     1  C   -0.172989
     2  C   -0.213870
     3  C   -0.166106
     4  C    0.156654
     5  C   -0.171965
     6  C   -0.219402
     7  H    0.219689
     8  H    0.220644
     9  H    0.287036
    10  H    0.272930
    11  H    0.219148
    12  N    0.487942
    13  O   -0.464484
    14  O   -0.457096
    15  C   -0.170338
    16  C   -0.219057
    17  C   -0.172830
    18  C    0.153487
    19  C   -0.171575
    20  C   -0.218679
    21  H    0.227966
    22  H    0.225478
    23  H    0.277525
    24  H    0.277196
    25  H    0.225883
    26  N    0.484103
    27  O   -0.458994
    28  O   -0.458296
 Sum of Mulliken charges =  -0.00000

 Dipole moment (field-independent basis, Debye):
    X=             -7.9942    Y=              6.6779    Z=             -1.0369  Tot=             10.4679
 Quadrupole moment (field-independent basis, Debye-Ang):
   XX=           -101.5104   YY=           -104.4428   ZZ=           -101.9301
   XY=              7.1627   XZ=             -1.2197   YZ=              3.0247

 Normal termination of Gaussian 16 at Wed May  5 22:39:40 2021.
