 Gaussian 16, Revision A.03,
 Gaussian 16:  EM64L-G16RevA.03 25-Dec-2016

 -------------
 #p 6-31g* mp2
 -------------

 ------------------------------------------------------
 Input file generated by CHIRIPA (05-May-2021 14:57:24)
 ------------------------------------------------------
 Symbolic Z-matrix:
 Charge =  0 Multiplicity = 1

                         Standard orientation:
 ---------------------------------------------------------------------
 Center     Atomic      Atomic             Coordinates (Angstroms)
 Number     Number       Type             X           Y           Z
 ---------------------------------------------------------------------
      1          6           0       -5.922326    1.422682   -0.849163
      2          6           0       -6.229687    0.114861   -0.459734
      3          6           0       -5.219991   -0.757734   -0.043034
      4          6           0       -3.907855   -0.287242   -0.027971
      5          6           0       -3.569830    1.010095   -0.410001
      6          6           0       -4.595717    1.865344   -0.823100
      7          1           0       -6.712972    2.093797   -1.171467
      8          1           0       -7.259062   -0.231641   -0.478966
      9          1           0       -5.429885   -1.775215    0.263716
     10          1           0       -2.534344    1.326797   -0.380201
     11          1           0       -4.354076    2.880490   -1.124984
     12          7           0       -2.830364   -1.201838    0.411264
     13          8           0       -1.682268   -0.763096    0.415562
     14          8           0       -3.154325   -2.340121    0.742922
     15          6           0        2.211725    0.809925    1.650079
     16          6           0        3.274128    1.688395    1.413202
     17          6           0        4.317701    1.325820    0.556440
     18          6           0        4.266582    0.071402   -0.049459
     19          6           0        3.221825   -0.825899    0.166466
     20          6           0        2.189004   -0.442211    1.027054
     21          1           0        1.405228    1.099782    2.317119
     22          1           0        3.294406    2.661457    1.895679
     23          1           0        5.152302    1.986438    0.355336
     24          1           0        3.229367   -1.789186   -0.328953
     25          1           0        1.365199   -1.126483    1.209159
     26          7           0        5.365675   -0.323616   -0.958500
     27          8           0        5.297206   -1.434424   -1.480088
     28          8           0        6.274802    0.485056   -1.132205
 ---------------------------------------------------------------------

 SCF Done:  E(RHF) =  -868.339976858     A.U. after   16 cycles
 E2 =    -0.2598307189D+01 EUMP2 =    -0.87093828404720D+03

 The electronic state is 1-A.
 Alpha  occ. eigenvalues --  -20.61680 -20.61643 -20.60127 -20.60114 -15.86695
 Alpha  occ. eigenvalues --  -15.85166 -11.31827 -11.30372 -11.28378 -11.28352
 Alpha  occ. eigenvalues --  -11.28057 -11.27329 -11.27312 -11.26953 -11.26804
 Alpha  occ. eigenvalues --  -11.26557 -11.25974 -11.25647  -1.60727  -1.59202
 Alpha  occ. eigenvalues --   -1.40287  -1.38759  -1.19975  -1.18501  -1.09412
 Alpha  occ. eigenvalues --   -1.07921  -1.05343  -1.03857  -0.96288  -0.94793
 Alpha  occ. eigenvalues --   -0.86751  -0.85253  -0.83129  -0.81617  -0.78203
 Alpha  occ. eigenvalues --   -0.76690  -0.72934  -0.72029  -0.71388  -0.71078
 Alpha  occ. eigenvalues --   -0.70523  -0.69605  -0.65632  -0.65341  -0.64138
 Alpha  occ. eigenvalues --   -0.63807  -0.62693  -0.61185  -0.55847  -0.54357
 Alpha  occ. eigenvalues --   -0.53684  -0.53430  -0.52226  -0.51912  -0.49692
 Alpha  occ. eigenvalues --   -0.49652  -0.48154  -0.48127  -0.45743  -0.44201
 Alpha  occ. eigenvalues --   -0.37938  -0.36936  -0.36481  -0.35457
 Alpha virt. eigenvalues --    0.04318   0.05800   0.10723   0.12189   0.15862
 Alpha virt. eigenvalues --    0.17353   0.20881   0.22413   0.26813   0.27703
 Alpha virt. eigenvalues --    0.28454   0.29159   0.30502   0.31974   0.32018

 Mulliken charges:
               1
     1  C   -0.169890
     2  C   -0.218489
     3  C   -0.170294
     4  C    0.157829
     5  C   -0.171045
     6  C   -0.218434
     7  H    0.227803
     8  H    0.225530
     9  H    0.276653
    10  H    0.274327
    11  H    0.225026
    12  N    0.490760
    13  O   -0.470952
    14  O   -0.456994
    15  C   -0.173439
    16  C   -0.219474
    17  C   -0.173637
    18  C    0.158080
    19  C   -0.173820
    20  C   -0.219988
    21  H    0.225476
    22  H    0.218657
    23  H    0.271916
    24  H    0.275561
    25  H    0.245587
    26  N    0.488041
    27  O   -0.461155
    28  O   -0.463635
 Sum of Mulliken charges =  -0.00000

 Dipole moment (field-independent basis, Debye):
    X=             -8.2091    Y=              4.4844    Z=              1.6624  Tot=              9.5007
 Quadrupole moment (field-independent basis, Debye-Ang):
   XX=           -106.0553   YY=           -100.4163   ZZ=           -106.4520
   XY=             -1.4249   XZ=             20.1896   YZ=              0.4324

 Normal termination of Gaussian 16 at Wed May  5 16:21:35 2021.
