 Gaussian 16, Revision A.03,
 Gaussian 16:  EM64L-G16RevA.03 25-Dec-2016

 -------------
 #p 6-31g* mp2
 -------------

 ------------------------------------------------------
 Input file generated by CHIRIPA (05-May-2021 14:57:26)
 ------------------------------------------------------
 Symbolic Z-matrix:
 Charge =  0 Multiplicity = 1

                         Standard orientation:
 ---------------------------------------------------------------------
 Center     Atomic      Atomic             Coordinates (Angstroms)
 Number     Number       Type             X           Y           Z
 ---------------------------------------------------------------------
      1          6           0        5.652883    0.815502   -0.247657
      2          6           0        5.584378   -0.580607   -0.195640
      3          6           0        4.348452   -1.228005   -0.106689
      4          6           0        3.195822   -0.444734   -0.071748
      5          6           0        3.231319    0.947932   -0.121868
      6          6           0        4.478206    1.573979   -0.210671
      7          1           0        6.617237    1.310124   -0.316699
      8          1           0        6.495007   -1.172201   -0.224188
      9          1           0        4.266514   -2.307337   -0.064915
     10          1           0        2.306279    1.510782   -0.091550
     11          1           0        4.528378    2.658372   -0.250910
     12          7           0        1.881600   -1.118803    0.022342
     13          8           0        0.880720   -0.406047    0.051554
     14          8           0        1.877279   -2.347132    0.065095
     15          6           0       -1.549821    1.893738    0.767503
     16          6           0       -2.224514    2.094230   -0.441263
     17          6           0       -3.258118    1.236078   -0.828286
     18          6           0       -3.592491    0.182814    0.021491
     19          6           0       -2.939118   -0.043122    1.232007
     20          6           0       -1.908644    0.827581    1.598814
     21          1           0       -0.748108    2.565246    1.060299
     22          1           0       -1.947987    2.921390   -1.088861
     23          1           0       -3.797066    1.368191   -1.758608
     24          1           0       -3.237317   -0.876422    1.856590
     25          1           0       -1.386411    0.669455    2.538130
     26          7           0       -4.685064   -0.732316   -0.377532
     27          8           0       -4.960614   -1.652858    0.388830
     28          8           0       -5.245184   -0.511724   -1.449093
 ---------------------------------------------------------------------

 SCF Done:  E(RHF) =  -868.336966205     A.U. after   16 cycles
 E2 =    -0.2600604389D+01 EUMP2 =    -0.87093757059321D+03

 The electronic state is 1-A.
 Alpha  occ. eigenvalues --  -20.61303 -20.61275 -20.59829 -20.59814 -15.86329
 Alpha  occ. eigenvalues --  -15.84872 -11.31738 -11.30074 -11.28367 -11.28263
 Alpha  occ. eigenvalues --  -11.28020 -11.27344 -11.27278 -11.26686 -11.26586
 Alpha  occ. eigenvalues --  -11.26451 -11.25737 -11.25610  -1.60367  -1.58899
 Alpha  occ. eigenvalues --   -1.39923  -1.38459  -1.19906  -1.18231  -1.09288
 Alpha  occ. eigenvalues --   -1.07684  -1.05316  -1.03635  -0.96122  -0.94552
 Alpha  occ. eigenvalues --   -0.86709  -0.85073  -0.82954  -0.81404  -0.78010
 Alpha  occ. eigenvalues --   -0.76452  -0.72560  -0.71695  -0.71107  -0.71008
 Alpha  occ. eigenvalues --   -0.70210  -0.69451  -0.65557  -0.65314  -0.63932
 Alpha  occ. eigenvalues --   -0.63707  -0.62672  -0.61027  -0.55795  -0.54253
 Alpha  occ. eigenvalues --   -0.53637  -0.53406  -0.51906  -0.51791  -0.49320
 Alpha  occ. eigenvalues --   -0.49290  -0.47862  -0.47849  -0.45326  -0.43903
 Alpha  occ. eigenvalues --   -0.37874  -0.36921  -0.36155  -0.35155
 Alpha virt. eigenvalues --    0.04519   0.06091   0.10734   0.12470   0.16043
 Alpha virt. eigenvalues --    0.17562   0.20570   0.22158   0.26270   0.27346
 Alpha virt. eigenvalues --    0.28229   0.29047   0.30724   0.31374   0.33367

 Mulliken charges:
               1
     1  C   -0.170608
     2  C   -0.218139
     3  C   -0.170480
     4  C    0.158578
     5  C   -0.171296
     6  C   -0.218013
     7  H    0.227168
     8  H    0.225539
     9  H    0.277546
    10  H    0.268317
    11  H    0.222788
    12  N    0.491118
    13  O   -0.465303
    14  O   -0.456936
    15  C   -0.159486
    16  C   -0.217779
    17  C   -0.170867
    18  C    0.159596
    19  C   -0.166973
    20  C   -0.201060
    21  H    0.213752
    22  H    0.215595
    23  H    0.271425
    24  H    0.273683
    25  H    0.219402
    26  N    0.488296
    27  O   -0.461607
    28  O   -0.464255
 Sum of Mulliken charges =  -0.00000

 Dipole moment (field-independent basis, Debye):
    X=              8.7829    Y=              5.3814    Z=              1.1444  Tot=             10.3637
 Quadrupole moment (field-independent basis, Debye-Ang):
   XX=           -103.1843   YY=           -101.4576   ZZ=           -102.3848
   XY=             -7.9367   XZ=             -6.0516   YZ=             -2.2755

 Normal termination of Gaussian 16 at Thu May  6 08:20:41 2021.
