 Gaussian 16, Revision A.03,
 Gaussian 16:  EM64L-G16RevA.03 25-Dec-2016

 -------------
 #p 6-31g* mp2
 -------------

 ------------------------------------------------------
 Input file generated by CHIRIPA (05-May-2021 14:53:12)
 ------------------------------------------------------
 Symbolic Z-matrix:
 Charge =  0 Multiplicity = 1

                         Standard orientation:
 ---------------------------------------------------------------------
 Center     Atomic      Atomic             Coordinates (Angstroms)
 Number     Number       Type             X           Y           Z
 ---------------------------------------------------------------------
      1          6           0        3.874508    0.567335    0.383778
      2          6           0        3.325055    1.676743   -0.513607
      3          6           0        2.257000    2.523235    0.179577
      4          1           0        3.046223   -0.077816    0.707306
      5          1           0        4.295029    1.016297    1.294267
      6          1           0        2.906939    1.225928   -1.422760
      7          1           0        4.154771    2.319215   -0.835191
      8          1           0        2.665372    2.999688    1.076699
      9          1           0        1.410450    1.900189    0.485791
     10          1           0        1.878007    3.310217   -0.479880
     11          6           0        4.943167   -0.287519   -0.295132
     12          6           0        5.492621   -1.396927    0.602252
     13          6           0        6.560675   -2.243420   -0.090931
     14          1           0        4.522646   -0.736482   -1.205621
     15          1           0        5.771452    0.357631   -0.618660
     16          1           0        4.662904   -2.039399    0.923837
     17          1           0        5.910736   -0.946112    1.511406
     18          1           0        7.407226   -1.620373   -0.397145
     19          1           0        6.152303   -2.719872   -0.988053
     20          1           0        6.939668   -3.030402    0.568526
     21          6           0       -1.622053    1.631693   -0.152492
     22          6           0       -2.932698    2.010061    0.156650
     23          6           0       -3.950413    1.053937    0.224697
     24          6           0       -3.620582   -0.277616   -0.023232
     25          6           0       -2.324351   -0.685911   -0.333666
     26          6           0       -1.322591    0.287285   -0.396233
     27          1           0       -0.837664    2.381064   -0.203224
     28          1           0       -3.168175    3.053415    0.346414
     29          1           0       -4.973538    1.319224    0.461881
     30          1           0       -2.120283   -1.733690   -0.517877
     31          1           0       -0.305614   -0.009457   -0.636541
     32          7           0       -4.689547   -1.298858    0.045905
     33          8           0       -4.373073   -2.465446   -0.176703
     34          8           0       -5.823633   -0.913383    0.321394
 ---------------------------------------------------------------------

 SCF Done:  E(RHF) =  -669.535320717     A.U. after   15 cycles
 E2 =    -0.2091504587D+01 EUMP2 =    -0.67162682530398D+03

 The electronic state is 1-A.
 Alpha  occ. eigenvalues --  -20.60734 -20.60729 -15.85788 -11.31144 -11.27725
 Alpha  occ. eigenvalues --  -11.27714 -11.27384 -11.26724 -11.26702 -11.22672
 Alpha  occ. eigenvalues --  -11.22404 -11.22262 -11.22150 -11.22053 -11.21507
 Alpha  occ. eigenvalues --   -1.59810  -1.39364  -1.19316  -1.09250  -1.08705
 Alpha  occ. eigenvalues --   -1.04723  -1.04369  -0.96841  -0.95541  -0.87863
 Alpha  occ. eigenvalues --   -0.86116  -0.82380  -0.80446  -0.79005  -0.77434
 Alpha  occ. eigenvalues --   -0.72006  -0.71133  -0.70431  -0.65903  -0.64966
 Alpha  occ. eigenvalues --   -0.64732  -0.62110  -0.61724  -0.60236  -0.58409
 Alpha  occ. eigenvalues --   -0.56213  -0.55161  -0.53508  -0.53258  -0.53029
 Alpha  occ. eigenvalues --   -0.52809  -0.50757  -0.48769  -0.48762  -0.48737
 Alpha  occ. eigenvalues --   -0.47466  -0.46555  -0.46455  -0.44771  -0.44607
 Alpha  occ. eigenvalues --   -0.37277  -0.36330
 Alpha virt. eigenvalues --    0.05096   0.11265   0.16573   0.19247   0.22536
 Alpha virt. eigenvalues --    0.23796   0.25309   0.26120   0.26667   0.27806
 Alpha virt. eigenvalues --    0.29418   0.29587   0.31020   0.31153   0.31935

 Mulliken charges:
               1
     1  C   -0.299102
     2  C   -0.300390
     3  C   -0.484561
     4  H    0.147345
     5  H    0.152708
     6  H    0.150051
     7  H    0.157124
     8  H    0.162597
     9  H    0.151119
    10  H    0.158943
    11  C   -0.298870
    12  C   -0.300246
    13  C   -0.476178
    14  H    0.149369
    15  H    0.151594
    16  H    0.152376
    17  H    0.153218
    18  H    0.155976
    19  H    0.155775
    20  H    0.162345
    21  C   -0.174552
    22  C   -0.219653
    23  C   -0.170674
    24  C    0.158145
    25  C   -0.170838
    26  C   -0.222052
    27  H    0.233494
    28  H    0.223567
    29  H    0.275424
    30  H    0.275279
    31  H    0.223737
    32  N    0.488111
    33  O   -0.460672
    34  O   -0.460509
 Sum of Mulliken charges =  -0.00000

 Dipole moment (field-independent basis, Debye):
    X=              4.0216    Y=              3.6196    Z=             -0.2123  Tot=              5.4148
 Quadrupole moment (field-independent basis, Debye-Ang):
   XX=           -119.2085   YY=            -94.4462   ZZ=            -95.3588
   XY=            -15.8539   XZ=              0.5491   YZ=              0.9579

 Normal termination of Gaussian 16 at Thu May  6 04:07:51 2021.
