 Gaussian 16, Revision A.03,
 Gaussian 16:  EM64L-G16RevA.03 25-Dec-2016

 -------------
 #p 6-31g* mp2
 -------------

 ------------------------------------------------------
 Input file generated by CHIRIPA (05-May-2021 14:53:17)
 ------------------------------------------------------
 Symbolic Z-matrix:
 Charge =  0 Multiplicity = 1

                         Standard orientation:
 ---------------------------------------------------------------------
 Center     Atomic      Atomic             Coordinates (Angstroms)
 Number     Number       Type             X           Y           Z
 ---------------------------------------------------------------------
      1          6           0        4.020675   -0.328166   -0.455083
      2          6           0        4.531989   -1.606434    0.210180
      3          6           0        5.278544   -2.520731   -0.761679
      4          1           0        3.359047   -0.596378   -1.290101
      5          1           0        4.870388    0.214868   -0.891542
      6          1           0        3.681735   -2.146201    0.646455
      7          1           0        5.192325   -1.335146    1.043831
      8          1           0        6.144644   -2.004420   -1.188171
      9          1           0        4.625471   -2.820083   -1.587806
     10          1           0        5.635337   -3.428510   -0.265196
     11          6           0        3.272209    0.596097    0.503699
     12          6           0        2.760895    1.874365   -0.161564
     13          6           0        2.014340    2.788662    0.810295
     14          1           0        2.422496    0.053063    0.940158
     15          1           0        3.933837    0.864309    1.338717
     16          1           0        2.100559    1.603078   -0.995215
     17          1           0        3.611149    2.414132   -0.597839
     18          1           0        2.667413    3.088015    1.636422
     19          1           0        1.148240    2.272352    1.236788
     20          1           0        1.657547    3.696442    0.313812
     21          6           0       -3.666076   -2.437731    0.485725
     22          6           0       -2.880139   -1.754093    1.419247
     23          6           0       -2.421748   -0.461013    1.150229
     24          6           0       -2.769770    0.120892   -0.067785
     25          6           0       -3.551206   -0.534441   -1.018146
     26          6           0       -3.998515   -1.826801   -0.727852
     27          1           0       -4.017861   -3.441947    0.702968
     28          1           0       -2.620409   -2.226072    2.362549
     29          1           0       -1.811880    0.090995    1.855044
     30          1           0       -3.793741   -0.037849   -1.949806
     31          1           0       -4.608735   -2.355337   -1.454712
     32          7           0       -2.290358    1.489437   -0.363843
     33          8           0       -2.610792    1.980060   -1.444235
     34          8           0       -1.603238    2.045564    0.490104
 ---------------------------------------------------------------------

 SCF Done:  E(RHF) =  -669.535858926     A.U. after   15 cycles
 E2 =    -0.2091042095D+01 EUMP2 =    -0.67162690102136D+03

 The electronic state is 1-A.
 Alpha  occ. eigenvalues --  -20.60921 -20.60914 -15.85955 -11.31296 -11.27864
 Alpha  occ. eigenvalues --  -11.27856 -11.27598 -11.26872 -11.26862 -11.21394
 Alpha  occ. eigenvalues --  -11.21018 -11.20927 -11.20860 -11.20730 -11.19785
 Alpha  occ. eigenvalues --   -1.59983  -1.39539  -1.19466  -1.08866  -1.07944
 Alpha  occ. eigenvalues --   -1.04865  -1.02940  -0.95708  -0.95366  -0.86389
 Alpha  occ. eigenvalues --   -0.86263  -0.82539  -0.79043  -0.77733  -0.77583
 Alpha  occ. eigenvalues --   -0.72180  -0.71301  -0.70574  -0.65122  -0.64867
 Alpha  occ. eigenvalues --   -0.64581  -0.62213  -0.60331  -0.58803  -0.56973
 Alpha  occ. eigenvalues --   -0.55366  -0.54651  -0.53195  -0.52956  -0.52034
 Alpha  occ. eigenvalues --   -0.51804  -0.49350  -0.48938  -0.48903  -0.47341
 Alpha  occ. eigenvalues --   -0.46107  -0.45283  -0.45207  -0.44845  -0.43205
 Alpha  occ. eigenvalues --   -0.37444  -0.36468
 Alpha virt. eigenvalues --    0.04918   0.11184   0.16391   0.21224   0.23273
 Alpha virt. eigenvalues --    0.24835   0.26756   0.27322   0.27780   0.28126
 Alpha virt. eigenvalues --    0.28914   0.30686   0.31739   0.32186   0.32571

 Mulliken charges:
               1
     1  C   -0.297685
     2  C   -0.298713
     3  C   -0.475297
     4  H    0.148866
     5  H    0.149602
     6  H    0.148793
     7  H    0.151505
     8  H    0.155635
     9  H    0.154343
    10  H    0.158450
    11  C   -0.296845
    12  C   -0.299872
    13  C   -0.477098
    14  H    0.144872
    15  H    0.147887
    16  H    0.153613
    17  H    0.148523
    18  H    0.145854
    19  H    0.168840
    20  H    0.165743
    21  C   -0.170683
    22  C   -0.218504
    23  C   -0.171144
    24  C    0.158090
    25  C   -0.170920
    26  C   -0.218512
    27  H    0.226043
    28  H    0.223940
    29  H    0.275408
    30  H    0.275878
    31  H    0.223855
    32  N    0.490375
    33  O   -0.459282
    34  O   -0.461559
 Sum of Mulliken charges =  -0.00000

 Dipole moment (field-independent basis, Debye):
    X=             -1.9198    Y=             -4.7484    Z=              1.0148  Tot=              5.2213
 Quadrupole moment (field-independent basis, Debye-Ang):
   XX=            -85.1571   YY=            -96.8760   ZZ=            -91.4944
   XY=             14.3993   XZ=              0.0243   YZ=              0.1522

 Normal termination of Gaussian 16 at Thu May  6 12:16:34 2021.
