 Gaussian 16, Revision A.03,
 Gaussian 16:  EM64L-G16RevA.03 25-Dec-2016

 -------------
 #p 6-31g* mp2
 -------------

 ------------------------------------------------------
 Input file generated by CHIRIPA (05-May-2021 14:53:11)
 ------------------------------------------------------
 Symbolic Z-matrix:
 Charge =  0 Multiplicity = 1

                         Standard orientation:
 ---------------------------------------------------------------------
 Center     Atomic      Atomic             Coordinates (Angstroms)
 Number     Number       Type             X           Y           Z
 ---------------------------------------------------------------------
      1          6           0       -4.095850   -0.365421    0.048938
      2          6           0       -4.120452   -1.649695   -0.780532
      3          6           0       -5.006619   -2.733529   -0.165873
      4          1           0       -3.742992   -0.598115    1.062984
      5          1           0       -5.121522    0.014416    0.154369
      6          1           0       -3.094879   -2.026245   -0.885534
      7          1           0       -4.473111   -1.413884   -1.792778
      8          1           0       -6.039455   -2.381663   -0.076199
      9          1           0       -4.653392   -2.997504    0.836200
     10          1           0       -5.009668   -3.642830   -0.774990
     11          6           0       -3.214225    0.727526   -0.552670
     12          6           0       -3.189623    2.011799    0.276800
     13          6           0       -2.303457    3.095633   -0.337859
     14          1           0       -2.188553    0.347688   -0.658101
     15          1           0       -3.567084    0.960219   -1.566716
     16          1           0       -2.836965    1.775988    1.289046
     17          1           0       -4.215197    2.388349    0.381803
     18          1           0       -2.656683    3.359608   -1.339931
     19          1           0       -1.270621    2.743767   -0.427533
     20          1           0       -2.300407    4.004934    0.271258
     21          6           0        0.627696    0.334145    1.281497
     22          6           0        1.180611   -0.948791    1.351362
     23          6           0        2.414357   -1.223715    0.754006
     24          6           0        3.070873   -0.187426    0.091903
     25          6           0        2.545977    1.101072    0.005036
     26          6           0        1.310939    1.353186    0.609742
     27          1           0       -0.331209    0.538853    1.748393
     28          1           0        0.652235   -1.742134    1.872393
     29          1           0        2.865334   -2.207853    0.792863
     30          1           0        3.096288    1.871456   -0.521354
     31          1           0        0.883942    2.350481    0.553887
     32          7           0        4.377669   -0.466400   -0.544382
     33          8           0        4.936137    0.463846   -1.121784
     34          8           0        4.818724   -1.610025   -0.453652
 ---------------------------------------------------------------------

 SCF Done:  E(RHF) =  -669.535395880     A.U. after   15 cycles
 E2 =    -0.2092384254D+01 EUMP2 =    -0.67162778013403D+03

 The electronic state is 1-A.
 Alpha  occ. eigenvalues --  -20.60794 -20.60789 -15.85848 -11.31237 -11.27808
 Alpha  occ. eigenvalues --  -11.27797 -11.27553 -11.26828 -11.26799 -11.22654
 Alpha  occ. eigenvalues --  -11.22248 -11.22213 -11.22145 -11.22126 -11.21635
 Alpha  occ. eigenvalues --   -1.59869  -1.39422  -1.19412  -1.09272  -1.08801
 Alpha  occ. eigenvalues --   -1.04817  -1.04363  -0.96805  -0.95632  -0.87827
 Alpha  occ. eigenvalues --   -0.86213  -0.82462  -0.80430  -0.79048  -0.77508
 Alpha  occ. eigenvalues --   -0.72066  -0.71192  -0.70532  -0.65947  -0.65061
 Alpha  occ. eigenvalues --   -0.64824  -0.62236  -0.61699  -0.60172  -0.58396
 Alpha  occ. eigenvalues --   -0.56123  -0.55304  -0.53499  -0.53259  -0.53136
 Alpha  occ. eigenvalues --   -0.52871  -0.50734  -0.48831  -0.48820  -0.48721
 Alpha  occ. eigenvalues --   -0.47471  -0.46594  -0.46511  -0.44822  -0.44602
 Alpha  occ. eigenvalues --   -0.37374  -0.36410
 Alpha virt. eigenvalues --    0.05001   0.11100   0.16391   0.18734   0.22725
 Alpha virt. eigenvalues --    0.23807   0.24921   0.25798   0.26799   0.28195
 Alpha virt. eigenvalues --    0.29108   0.30214   0.30871   0.31494   0.32082

 Mulliken charges:
               1
     1  C   -0.297670
     2  C   -0.300386
     3  C   -0.475913
     4  H    0.143866
     5  H    0.152136
     6  H    0.152134
     7  H    0.154700
     8  H    0.156631
     9  H    0.153500
    10  H    0.162775
    11  C   -0.302997
    12  C   -0.300719
    13  C   -0.481797
    14  H    0.151823
    15  H    0.153987
    16  H    0.143329
    17  H    0.157401
    18  H    0.161926
    19  H    0.151073
    20  H    0.161680
    21  C   -0.173444
    22  C   -0.219836
    23  C   -0.170555
    24  C    0.158709
    25  C   -0.171244
    26  C   -0.222297
    27  H    0.229879
    28  H    0.223719
    29  H    0.275835
    30  H    0.276142
    31  H    0.227994
    32  N    0.488017
    33  O   -0.460117
    34  O   -0.460280
 Sum of Mulliken charges =  -0.00000

 Dipole moment (field-independent basis, Debye):
    X=             -4.7265    Y=              0.9673    Z=              2.1338  Tot=              5.2753
 Quadrupole moment (field-independent basis, Debye-Ang):
   XX=           -122.7580   YY=            -91.1306   ZZ=            -94.4197
   XY=              3.3459   XZ=              7.4007   YZ=             -2.0396

 Normal termination of Gaussian 16 at Wed May  5 23:19:13 2021.
