 Gaussian 16, Revision A.03,
 Gaussian 16:  EM64L-G16RevA.03 25-Dec-2016

 -------------
 #p 6-31g* mp2
 -------------

 ------------------------------------------------------
 Input file generated by CHIRIPA (05-May-2021 14:51:11)
 ------------------------------------------------------
 Symbolic Z-matrix:
 Charge =  0 Multiplicity = 1

                         Standard orientation:
 ---------------------------------------------------------------------
 Center     Atomic      Atomic             Coordinates (Angstroms)
 Number     Number       Type             X           Y           Z
 ---------------------------------------------------------------------
      1          6           0       -4.122086   -0.086675    0.343958
      2          6           0       -5.387161   -0.218915   -0.504619
      3          6           0       -6.633061    0.312346    0.204809
      4          1           0       -4.264965   -0.626090    1.290300
      5          1           0       -3.973455    0.970066    0.605880
      6          1           0       -5.532601   -1.274913   -0.766022
      7          1           0       -5.241183    0.320718   -1.449131
      8          1           0       -6.513407    1.372267    0.451491
      9          1           0       -6.806481   -0.232430    1.138482
     10          1           0       -7.525809    0.208042   -0.419678
     11          6           0       -2.868181   -0.613493   -0.351679
     12          6           0       -1.603106   -0.481254    0.496899
     13          6           0       -0.357205   -1.012514   -0.212529
     14          1           0       -3.016811   -1.670234   -0.613600
     15          1           0       -2.725302   -0.074078   -1.298020
     16          1           0       -1.749084   -1.020886    1.441411
     17          1           0       -1.457665    0.574744    0.758301
     18          1           0       -0.183785   -0.467739   -1.146203
     19          1           0       -0.476859   -2.072435   -0.459211
     20          1           0        0.535542   -0.908211    0.411957
     21          6           0        3.203570    0.959547    0.360199
     22          6           0        3.000294    2.161737   -0.562517
     23          6           0        2.416362    3.373205    0.164917
     24          1           0        2.241121    0.687324    0.814659
     25          1           0        3.868599    1.248226    1.185908
     26          1           0        2.336953    1.870483   -1.386996
     27          1           0        3.963303    2.431010   -1.014980
     28          1           0        3.078788    3.691433    0.976411
     29          1           0        1.443198    3.127720    0.602282
     30          1           0        2.279285    4.221119   -0.513400
     31          6           0        3.786697   -0.259379   -0.352479
     32          6           0        3.989972   -1.461568    0.570237
     33          6           0        4.573905   -2.673037   -0.157196
     34          1           0        3.121667   -0.548057   -1.178187
     35          1           0        4.749145    0.012844   -0.806938
     36          1           0        3.026964   -1.730842    1.022701
     37          1           0        4.653314   -1.170314    1.394716
     38          1           0        5.547069   -2.427552   -0.594561
     39          1           0        3.911479   -2.991264   -0.968691
     40          1           0        4.710982   -3.520950    0.521121
 ---------------------------------------------------------------------

 SCF Done:  E(RHF) =  -470.733047043     A.U. after   11 cycles
 E2 =    -0.1583378138D+01 EUMP2 =    -0.47231642518052D+03

 The electronic state is 1-A.
 Alpha  occ. eigenvalues --  -11.21685 -11.21631 -11.21576 -11.21568 -11.21454
 Alpha  occ. eigenvalues --  -11.21392 -11.21346 -11.21286 -11.21154 -11.21092
 Alpha  occ. eigenvalues --  -11.21064 -11.21032  -1.08487  -1.08388  -1.03588
 Alpha  occ. eigenvalues --   -1.03498  -0.96055  -0.95932  -0.87060  -0.86963
 Alpha  occ. eigenvalues --   -0.79653  -0.79562  -0.78292  -0.78210  -0.65153
 Alpha  occ. eigenvalues --   -0.65035  -0.61015  -0.60863  -0.59414  -0.59309
 Alpha  occ. eigenvalues --   -0.57687  -0.57529  -0.55366  -0.55196  -0.52757
 Alpha  occ. eigenvalues --   -0.52627  -0.52471  -0.52355  -0.49996  -0.49867
 Alpha  occ. eigenvalues --   -0.47987  -0.47883  -0.46683  -0.46597  -0.45850
 Alpha  occ. eigenvalues --   -0.45762  -0.45742  -0.45627  -0.43806  -0.43724
 Alpha virt. eigenvalues --    0.20340   0.22995   0.23825   0.24704   0.26029
 Alpha virt. eigenvalues --    0.26217   0.26689   0.27487   0.28066   0.29434
 Alpha virt. eigenvalues --    0.30531   0.31286   0.31721   0.32022   0.32098

 Mulliken charges:
               1
     1  C   -0.298320
     2  C   -0.299697
     3  C   -0.475745
     4  H    0.149764
     5  H    0.149672
     6  H    0.151980
     7  H    0.152014
     8  H    0.155277
     9  H    0.155232
    10  H    0.160361
    11  C   -0.298516
    12  C   -0.299948
    13  C   -0.483857
    14  H    0.149772
    15  H    0.149770
    16  H    0.152320
    17  H    0.151789
    18  H    0.155230
    19  H    0.155622
    20  H    0.167941
    21  C   -0.302113
    22  C   -0.299595
    23  C   -0.475767
    24  H    0.153481
    25  H    0.149206
    26  H    0.152040
    27  H    0.151866
    28  H    0.155237
    29  H    0.154836
    30  H    0.160027
    31  C   -0.299553
    32  C   -0.302083
    33  C   -0.475625
    34  H    0.151903
    35  H    0.149647
    36  H    0.153371
    37  H    0.151741
    38  H    0.155022
    39  H    0.155711
    40  H    0.159985
 Sum of Mulliken charges =  -0.00000

 Dipole moment (field-independent basis, Debye):
    X=             -0.0269    Y=             -0.0138    Z=             -0.0052  Tot=              0.0307
 Quadrupole moment (field-independent basis, Debye-Ang):
   XX=            -85.0392   YY=            -84.8804   ZZ=            -84.8855
   XY=              1.2000   XZ=              0.6360   YZ=             -0.8082

 Normal termination of Gaussian 16 at Thu May  6 05:26:09 2021.
