 Gaussian 16, Revision A.03,
 Gaussian 16:  EM64L-G16RevA.03 25-Dec-2016

 -------------
 #p 6-31g* mp2
 -------------

 ------------------------------------------------------
 Input file generated by CHIRIPA (05-May-2021 14:55:25)
 ------------------------------------------------------
 Symbolic Z-matrix:
 Charge =  0 Multiplicity = 1

                         Standard orientation:
 ---------------------------------------------------------------------
 Center     Atomic      Atomic             Coordinates (Angstroms)
 Number     Number       Type             X           Y           Z
 ---------------------------------------------------------------------
      1          6           0       -1.234514    1.105987   -0.087514
      2          6           0       -1.251720   -0.292016   -0.044927
      3          6           0       -2.464630   -0.986434   -0.010569
      4          6           0       -3.646805   -0.247743   -0.020012
      5          6           0       -3.662501    1.145552   -0.062096
      6          6           0       -2.437838    1.819052   -0.095948
      7          1           0       -0.287731    1.637303   -0.114008
      8          1           0       -0.318750   -0.848404   -0.038280
      9          1           0       -2.506927   -2.068341    0.022707
     10          1           0       -4.608833    1.672659   -0.067708
     11          1           0       -2.427512    2.904799   -0.128990
     12          7           0       -4.937079   -0.971820    0.016093
     13          8           0       -5.964814   -0.297792    0.006918
     14          8           0       -4.896231   -2.199670    0.052884
     15          6           0        4.153120    0.842986   -0.219845
     16          6           0        2.907175    1.350955    0.506498
     17          6           0        2.433980    2.709670   -0.010973
     18          1           0        4.960136    1.580228   -0.109650
     19          1           0        3.938891    0.772456   -1.295265
     20          1           0        3.123258    1.419189    1.580401
     21          1           0        2.103090    0.612328    0.394722
     22          1           0        2.191264    2.652647   -1.077011
     23          1           0        3.217227    3.464092    0.115405
     24          1           0        1.542216    3.053882    0.522069
     25          6           0        4.638309   -0.514264    0.286310
     26          6           0        5.884253   -1.022234   -0.440034
     27          6           0        6.357448   -2.380948    0.077437
     28          1           0        4.852538   -0.443735    1.361729
     29          1           0        3.831292   -1.251507    0.176114
     30          1           0        6.688338   -0.283608   -0.328258
     31          1           0        5.668171   -1.090467   -1.513937
     32          1           0        5.574201   -3.135371   -0.048941
     33          1           0        6.600164   -2.323926    1.143475
     34          1           0        7.249213   -2.725162   -0.455604
 ---------------------------------------------------------------------

 SCF Done:  E(RHF) =  -669.535192048     A.U. after   15 cycles
 E2 =    -0.2091799104D+01 EUMP2 =    -0.67162699115212D+03

 The electronic state is 1-A.
 Alpha  occ. eigenvalues --  -20.60708 -20.60703 -15.85762 -11.31109 -11.27686
 Alpha  occ. eigenvalues --  -11.27681 -11.27338 -11.26684 -11.26672 -11.22932
 Alpha  occ. eigenvalues --  -11.22499 -11.22391 -11.22276 -11.22203 -11.21618
 Alpha  occ. eigenvalues --   -1.59784  -1.39338  -1.19280  -1.09407  -1.08671
 Alpha  occ. eigenvalues --   -1.04687  -1.04524  -0.96972  -0.95507  -0.87983
 Alpha  occ. eigenvalues --   -0.86083  -0.82349  -0.80602  -0.79157  -0.77404
 Alpha  occ. eigenvalues --   -0.71980  -0.71108  -0.70426  -0.66045  -0.64929
 Alpha  occ. eigenvalues --   -0.64701  -0.62068  -0.61885  -0.60411  -0.58574
 Alpha  occ. eigenvalues --   -0.56304  -0.55077  -0.53643  -0.53341  -0.53010
 Alpha  occ. eigenvalues --   -0.52779  -0.50895  -0.48911  -0.48736  -0.48730
 Alpha  occ. eigenvalues --   -0.47639  -0.46707  -0.46594  -0.44757  -0.44748
 Alpha  occ. eigenvalues --   -0.37247  -0.36297
 Alpha virt. eigenvalues --    0.05132   0.11352   0.16607   0.18922   0.22532
 Alpha virt. eigenvalues --    0.23689   0.24438   0.26037   0.26488   0.28034
 Alpha virt. eigenvalues --    0.29392   0.30097   0.30709   0.31492   0.31775

 Mulliken charges:
               1
     1  C   -0.179491
     2  C   -0.223924
     3  C   -0.170499
     4  C    0.158016
     5  C   -0.170543
     6  C   -0.222092
     7  H    0.243238
     8  H    0.223760
     9  H    0.275229
    10  H    0.275288
    11  H    0.223388
    12  N    0.487970
    13  O   -0.460643
    14  O   -0.460718
    15  C   -0.298908
    16  C   -0.303074
    17  C   -0.485684
    18  H    0.153569
    19  H    0.150894
    20  H    0.158402
    21  H    0.143780
    22  H    0.156765
    23  H    0.165945
    24  H    0.154742
    25  C   -0.298316
    26  C   -0.300470
    27  C   -0.476219
    28  H    0.151786
    29  H    0.146965
    30  H    0.153583
    31  H    0.152870
    32  H    0.155477
    33  H    0.156319
    34  H    0.162596
 Sum of Mulliken charges =  -0.00000

 Dipole moment (field-independent basis, Debye):
    X=              4.8850    Y=              2.5950    Z=             -0.1176  Tot=              5.5327
 Quadrupole moment (field-independent basis, Debye-Ang):
   XX=           -125.8153   YY=            -92.8472   ZZ=            -95.2205
   XY=            -12.0604   XZ=              0.7847   YZ=              0.4754

 Normal termination of Gaussian 16 at Thu May  6 00:04:04 2021.
