 Gaussian 16, Revision A.03,
 Gaussian 16:  EM64L-G16RevA.03 25-Dec-2016

 -------------
 #p 6-31g* mp2
 -------------

 ------------------------------------------------------
 Input file generated by CHIRIPA (05-May-2021 14:57:27)
 ------------------------------------------------------
 Symbolic Z-matrix:
 Charge =  0 Multiplicity = 1

                         Standard orientation:
 ---------------------------------------------------------------------
 Center     Atomic      Atomic             Coordinates (Angstroms)
 Number     Number       Type             X           Y           Z
 ---------------------------------------------------------------------
      1          6           0       -1.128327    1.409205   -1.174574
      2          6           0       -2.068056    1.959002   -0.296421
      3          6           0       -3.097628    1.170752    0.226257
      4          6           0       -3.157751   -0.169561   -0.152210
      5          6           0       -2.236533   -0.746451   -1.025048
      6          6           0       -1.215411    0.060610   -1.535448
      7          1           0       -0.331813    2.028843   -1.575834
      8          1           0       -2.002890    3.006031   -0.014411
      9          1           0       -3.838422    1.570697    0.907936
     10          1           0       -2.327458   -1.793422   -1.287731
     11          1           0       -0.486998   -0.369062   -2.217240
     12          7           0       -4.243239   -1.014003    0.394627
     13          8           0       -4.274288   -2.192084    0.045631
     14          8           0       -5.042443   -0.481807    1.161881
     15          6           0        1.877826    2.262924    0.653976
     16          6           0        2.054184    1.363913    1.710952
     17          6           0        2.662965    0.124126    1.494474
     18          6           0        3.085292   -0.185447    0.202539
     19          6           0        2.923742    0.688904   -0.871100
     20          6           0        2.312402    1.923150   -0.631410
     21          1           0        1.403917    3.223867    0.831158
     22          1           0        1.717672    1.625107    2.710243
     23          1           0        2.811988   -0.590701    2.294618
     24          1           0        3.269575    0.400316   -1.856257
     25          1           0        2.176750    2.619359   -1.454172
     26          7           0        3.731136   -1.495021   -0.038924
     27          8           0        4.094443   -1.743933   -1.186394
     28          8           0        3.861811   -2.247754    0.923861
 ---------------------------------------------------------------------

 SCF Done:  E(RHF) =  -868.335192728     A.U. after   16 cycles
 E2 =    -0.2602856336D+01 EUMP2 =    -0.87093804906346D+03

 The electronic state is 1-A.
 Alpha  occ. eigenvalues --  -20.61441 -20.61421 -20.60963 -20.60949 -15.86494
 Alpha  occ. eigenvalues --  -15.86019 -11.32022 -11.31436 -11.28675 -11.28556
 Alpha  occ. eigenvalues --  -11.28428 -11.28094 -11.28012 -11.27824 -11.27762
 Alpha  occ. eigenvalues --  -11.27586 -11.27139 -11.27007  -1.60507  -1.60035
 Alpha  occ. eigenvalues --   -1.40056  -1.39587  -1.20227  -1.19646  -1.09614
 Alpha  occ. eigenvalues --   -1.09030  -1.05662  -1.05065  -0.96407  -0.95856
 Alpha  occ. eigenvalues --   -0.87070  -0.86470  -0.83233  -0.82691  -0.78247
 Alpha  occ. eigenvalues --   -0.77714  -0.72710  -0.72236  -0.71837  -0.71367
 Alpha  occ. eigenvalues --   -0.71361  -0.70826  -0.65885  -0.65690  -0.65306
 Alpha  occ. eigenvalues --   -0.65087  -0.62999  -0.62415  -0.56198  -0.55731
 Alpha  occ. eigenvalues --   -0.54075  -0.53739  -0.53187  -0.53154  -0.49481
 Alpha  occ. eigenvalues --   -0.49452  -0.49001  -0.48984  -0.45426  -0.44981
 Alpha  occ. eigenvalues --   -0.38555  -0.37508  -0.36995  -0.36638
 Alpha virt. eigenvalues --    0.04225   0.04871   0.10257   0.10947   0.15675
 Alpha virt. eigenvalues --    0.16350   0.19099   0.22070   0.25349   0.26004
 Alpha virt. eigenvalues --    0.28032   0.28941   0.29579   0.31157   0.32456

 Mulliken charges:
               1
     1  C   -0.159057
     2  C   -0.223046
     3  C   -0.170574
     4  C    0.157708
     5  C   -0.169745
     6  C   -0.220759
     7  H    0.216808
     8  H    0.216871
     9  H    0.275159
    10  H    0.278537
    11  H    0.224992
    12  N    0.488025
    13  O   -0.458361
    14  O   -0.461161
    15  C   -0.166432
    16  C   -0.215514
    17  C   -0.168032
    18  C    0.159778
    19  C   -0.173654
    20  C   -0.228203
    21  H    0.223315
    22  H    0.227422
    23  H    0.279764
    24  H    0.275822
    25  H    0.219388
    26  N    0.487717
    27  O   -0.460525
    28  O   -0.456242
 Sum of Mulliken charges =  -0.00000

 Dipole moment (field-independent basis, Debye):
    X=              1.6962    Y=              7.3448    Z=             -0.8878  Tot=              7.5902
 Quadrupole moment (field-independent basis, Debye-Ang):
   XX=           -143.6242   YY=           -105.4236   ZZ=            -98.3261
   XY=              3.2046   XZ=              6.5159   YZ=              1.9444

 Normal termination of Gaussian 16 at Wed May  5 19:40:32 2021.
