 Gaussian 16, Revision A.03,
 Gaussian 16:  EM64L-G16RevA.03 25-Dec-2016

 -------------
 #p 6-31g* mp2
 -------------

 ------------------------------------------------------
 Input file generated by CHIRIPA (05-May-2021 14:51:11)
 ------------------------------------------------------
 Symbolic Z-matrix:
 Charge =  0 Multiplicity = 1

                         Standard orientation:
 ---------------------------------------------------------------------
 Center     Atomic      Atomic             Coordinates (Angstroms)
 Number     Number       Type             X           Y           Z
 ---------------------------------------------------------------------
      1          6           0        4.717415    0.004341   -0.083094
      2          6           0        5.547179   -1.279460   -0.119592
      3          6           0        6.967490   -1.050822   -0.637507
      4          1           0        4.676103    0.435506   -1.092716
      5          1           0        5.225690    0.743248    0.551781
      6          1           0        5.036794   -2.016206   -0.753097
      7          1           0        5.586360   -1.707721    0.890197
      8          1           0        7.498872   -0.335306   -0.001683
      9          1           0        6.946183   -0.645545   -1.654314
     10          1           0        7.543029   -1.981574   -0.655259
     11          6           0        3.295141   -0.208037    0.432424
     12          6           0        2.465377    1.075765    0.468922
     13          6           0        1.045066    0.847126    0.986836
     14          1           0        2.786865   -0.946944   -0.202451
     15          1           0        3.336452   -0.639201    1.442046
     16          1           0        2.426196    1.504025   -0.540867
     17          1           0        2.975762    1.812511    1.102426
     18          1           0        1.066372    0.441849    2.003644
     19          1           0        0.513684    0.131611    0.351013
     20          1           0        0.469527    1.777878    1.004589
     21          6           0       -4.164004   -0.643557   -0.120573
     22          6           0       -5.658922   -0.939519    0.004373
     23          6           0       -5.958525   -2.435018    0.111681
     24          1           0       -3.766412   -1.162878   -1.003280
     25          1           0       -3.640485   -1.061770    0.750300
     26          1           0       -6.179648   -0.519667   -0.865791
     27          1           0       -6.053042   -0.419278    0.886776
     28          1           0       -5.465040   -2.864762    0.989401
     29          1           0       -5.592365   -2.965722   -0.773124
     30          1           0       -7.032942   -2.623882    0.200115
     31          6           0       -3.848551    0.847253   -0.228757
     32          6           0       -2.353633    1.143214   -0.353703
     33          6           0       -2.054030    2.638713   -0.461011
     34          1           0       -4.372071    1.265466   -1.099630
     35          1           0       -4.246144    1.366573    0.653950
     36          1           0       -1.959513    0.622973   -1.236106
     37          1           0       -1.832907    0.723362    0.516461
     38          1           0       -2.420190    3.169418    0.423795
     39          1           0       -2.547515    3.068458   -1.338730
     40          1           0       -0.979614    2.827578   -0.549445
 ---------------------------------------------------------------------

 SCF Done:  E(RHF) =  -470.731657616     A.U. after   11 cycles
 E2 =    -0.1583579336D+01 EUMP2 =    -0.47231523695178D+03

 The electronic state is 1-A.
 Alpha  occ. eigenvalues --  -11.21595 -11.21576 -11.21572 -11.21464 -11.21394
 Alpha  occ. eigenvalues --  -11.21354 -11.21334 -11.21286 -11.21067 -11.21050
 Alpha  occ. eigenvalues --  -11.21015 -11.20966  -1.08429  -1.08368  -1.03581
 Alpha  occ. eigenvalues --   -1.03424  -0.96064  -0.95851  -0.87011  -0.86945
 Alpha  occ. eigenvalues --   -0.79709  -0.79448  -0.78268  -0.78145  -0.65065
 Alpha  occ. eigenvalues --   -0.65002  -0.61012  -0.60853  -0.59695  -0.59041
 Alpha  occ. eigenvalues --   -0.57738  -0.57382  -0.55274  -0.55184  -0.52883
 Alpha  occ. eigenvalues --   -0.52501  -0.52489  -0.52118  -0.49963  -0.49841
 Alpha  occ. eigenvalues --   -0.48086  -0.47679  -0.46696  -0.46497  -0.45845
 Alpha  occ. eigenvalues --   -0.45731  -0.45686  -0.45508  -0.43768  -0.43683
 Alpha virt. eigenvalues --    0.22035   0.23006   0.23510   0.25110   0.26431
 Alpha virt. eigenvalues --    0.26585   0.26923   0.27213   0.27864   0.29178
 Alpha virt. eigenvalues --    0.30708   0.31150   0.31362   0.31659   0.32350

 Mulliken charges:
               1
     1  C   -0.298250
     2  C   -0.299620
     3  C   -0.475691
     4  H    0.149580
     5  H    0.149507
     6  H    0.151895
     7  H    0.151905
     8  H    0.155172
     9  H    0.155159
    10  H    0.160225
    11  C   -0.298481
    12  C   -0.300441
    13  C   -0.481879
    14  H    0.149586
    15  H    0.149602
    16  H    0.151533
    17  H    0.151567
    18  H    0.153899
    19  H    0.159059
    20  H    0.165777
    21  C   -0.298276
    22  C   -0.299543
    23  C   -0.475678
    24  H    0.149190
    25  H    0.149514
    26  H    0.151861
    27  H    0.151904
    28  H    0.155154
    29  H    0.155042
    30  H    0.160150
    31  C   -0.297664
    32  C   -0.303266
    33  C   -0.479056
    34  H    0.148824
    35  H    0.149274
    36  H    0.150098
    37  H    0.160430
    38  H    0.154537
    39  H    0.155270
    40  H    0.162130
 Sum of Mulliken charges =  -0.00000

 Dipole moment (field-independent basis, Debye):
    X=              0.0082    Y=             -0.0031    Z=              0.0163  Tot=              0.0185
 Quadrupole moment (field-independent basis, Debye-Ang):
   XX=            -86.2374   YY=            -85.9185   ZZ=            -82.9647
   XY=             -0.3208   XZ=              0.7191   YZ=              0.3552

 Normal termination of Gaussian 16 at Wed May  5 19:51:08 2021.
