 Gaussian 16, Revision A.03,
 Gaussian 16:  EM64L-G16RevA.03 25-Dec-2016

 -------------
 #p 6-31g* mp2
 -------------

 ------------------------------------------------------
 Input file generated by CHIRIPA (05-May-2021 14:55:19)
 ------------------------------------------------------
 Symbolic Z-matrix:
 Charge =  0 Multiplicity = 1

                         Standard orientation:
 ---------------------------------------------------------------------
 Center     Atomic      Atomic             Coordinates (Angstroms)
 Number     Number       Type             X           Y           Z
 ---------------------------------------------------------------------
      1          6           0        0.932519   -1.091637    1.134716
      2          6           0        2.168532   -1.432253    1.693977
      3          6           0        3.359333   -1.012871    1.093426
      4          6           0        3.276808   -0.250719   -0.070878
      5          6           0        2.060687    0.104801   -0.652210
      6          6           0        0.882629   -0.325548   -0.034531
      7          1           0        0.012426   -1.421683    1.607891
      8          1           0        2.210313   -2.027105    2.601970
      9          1           0        4.329758   -1.262309    1.505099
     10          1           0        2.051023    0.698873   -1.557971
     11          1           0       -0.075855   -0.059526   -0.471092
     12          7           0        4.530710    0.199067   -0.715721
     13          8           0        4.431002    0.869600   -1.740943
     14          8           0        5.589483   -0.127441   -0.183716
     15          6           0       -4.177513   -0.071714   -0.578594
     16          6           0       -5.105147   -1.154514   -0.026307
     17          6           0       -5.592396   -2.122167   -1.105209
     18          1           0       -4.704027    0.487554   -1.364054
     19          1           0       -3.313661   -0.549793   -1.060876
     20          1           0       -5.966300   -0.674506    0.456005
     21          1           0       -4.576429   -1.711144    0.758063
     22          1           0       -4.745410   -2.627574   -1.580371
     23          1           0       -6.143179   -1.585047   -1.884146
     24          1           0       -6.254095   -2.887925   -0.688522
     25          6           0       -3.682071    0.903329    0.487971
     26          6           0       -2.754435    1.986129   -0.064317
     27          6           0       -2.267187    2.953781    1.014586
     28          1           0       -4.545922    1.381408    0.970252
     29          1           0       -3.155556    0.344062    1.273430
     30          1           0       -3.283154    2.542759   -0.848687
     31          1           0       -1.893282    1.506122   -0.546628
     32          1           0       -1.716404    2.416662    1.793522
     33          1           0       -3.114172    3.459189    1.489748
     34          1           0       -1.605488    3.719540    0.597898
 ---------------------------------------------------------------------

 SCF Done:  E(RHF) =  -669.535426384     A.U. after   15 cycles
 E2 =    -0.2091406307D+01 EUMP2 =    -0.67162683269131D+03

 The electronic state is 1-A.
 Alpha  occ. eigenvalues --  -20.60762 -20.60757 -15.85816 -11.31190 -11.27762
 Alpha  occ. eigenvalues --  -11.27756 -11.27513 -11.26780 -11.26759 -11.22577
 Alpha  occ. eigenvalues --  -11.22377 -11.22339 -11.22256 -11.21809 -11.21707
 Alpha  occ. eigenvalues --   -1.59837  -1.39391  -1.19364  -1.09322  -1.08759
 Alpha  occ. eigenvalues --   -1.04770  -1.04339  -0.96763  -0.95592  -0.87775
 Alpha  occ. eigenvalues --   -0.86170  -0.82426  -0.80413  -0.79138  -0.77469
 Alpha  occ. eigenvalues --   -0.72034  -0.71160  -0.70477  -0.66030  -0.65017
 Alpha  occ. eigenvalues --   -0.64754  -0.62188  -0.61666  -0.60129  -0.58376
 Alpha  occ. eigenvalues --   -0.56055  -0.55276  -0.53433  -0.53180  -0.53093
 Alpha  occ. eigenvalues --   -0.52876  -0.50704  -0.48812  -0.48788  -0.48695
 Alpha  occ. eigenvalues --   -0.47459  -0.46654  -0.46611  -0.44794  -0.44608
 Alpha  occ. eigenvalues --   -0.37347  -0.36367
 Alpha virt. eigenvalues --    0.05065   0.11232   0.16532   0.18453   0.22929
 Alpha virt. eigenvalues --    0.23707   0.24673   0.25572   0.27126   0.28357
 Alpha virt. eigenvalues --    0.29438   0.30165   0.31004   0.31239   0.31837

 Mulliken charges:
               1
     1  C   -0.173011
     2  C   -0.218445
     3  C   -0.170967
     4  C    0.158804
     5  C   -0.172570
     6  C   -0.224103
     7  H    0.225555
     8  H    0.223419
     9  H    0.275657
    10  H    0.275878
    11  H    0.232289
    12  N    0.488083
    13  O   -0.460325
    14  O   -0.460474
    15  C   -0.298559
    16  C   -0.299531
    17  C   -0.476172
    18  H    0.153753
    19  H    0.143656
    20  H    0.154629
    21  H    0.149199
    22  H    0.155052
    23  H    0.157299
    24  H    0.162359
    25  C   -0.298548
    26  C   -0.303203
    27  C   -0.475840
    28  H    0.154462
    29  H    0.143534
    30  H    0.157252
    31  H    0.143777
    32  H    0.154485
    33  H    0.158339
    34  H    0.164267
 Sum of Mulliken charges =  -0.00000

 Dipole moment (field-independent basis, Debye):
    X=             -4.6063    Y=             -1.5021    Z=              2.2803  Tot=              5.3548
 Quadrupole moment (field-independent basis, Debye-Ang):
   XX=           -121.3273   YY=            -93.4278   ZZ=            -93.3050
   XY=             -6.5704   XZ=              9.9282   YZ=             -2.9663

 Normal termination of Gaussian 16 at Thu May  6 20:37:12 2021.
