 Gaussian 16, Revision A.03,
 Gaussian 16:  EM64L-G16RevA.03 25-Dec-2016

 -------------
 #p 6-31g* mp2
 -------------

 ------------------------------------------------------
 Input file generated by CHIRIPA (05-May-2021 14:53:18)
 ------------------------------------------------------
 Symbolic Z-matrix:
 Charge =  0 Multiplicity = 1

                         Standard orientation:
 ---------------------------------------------------------------------
 Center     Atomic      Atomic             Coordinates (Angstroms)
 Number     Number       Type             X           Y           Z
 ---------------------------------------------------------------------
      1          6           0       -5.140078   -0.060635    0.351413
      2          6           0       -6.253141   -1.048811    0.001293
      3          6           0       -7.388553   -1.047441    1.025320
      4          1           0       -4.740073   -0.305625    1.344852
      5          1           0       -5.566219    0.949401    0.426421
      6          1           0       -5.824779   -2.056479   -0.074393
      7          1           0       -6.650412   -0.801558   -0.991510
      8          1           0       -7.842805   -0.053798    1.095529
      9          1           0       -7.012481   -1.315849    2.017857
     10          1           0       -8.173376   -1.760967    0.755517
     11          6           0       -3.997837   -0.050440   -0.662939
     12          6           0       -2.884774    0.937736   -0.312819
     13          6           0       -1.749362    0.936366   -1.336846
     14          1           0       -3.571695   -1.060476   -0.737947
     15          1           0       -4.397841    0.194549   -1.656378
     16          1           0       -2.487503    0.690483    0.679984
     17          1           0       -3.313136    1.945403   -0.237133
     18          1           0       -2.125434    1.204774   -2.329383
     19          1           0       -1.295109   -0.057277   -1.407055
     20          1           0       -0.964539    1.649892   -1.067043
     21          6           0        1.759070    1.790853    0.307825
     22          6           0        2.577028    1.510472    1.407304
     23          6           0        3.583286    0.544254    1.315576
     24          6           0        3.744524   -0.125549    0.103695
     25          6           0        2.945683    0.131335   -1.009478
     26          6           0        1.945679    1.101604   -0.894936
     27          1           0        0.979814    2.543007    0.387942
     28          1           0        2.434387    2.044187    2.342637
     29          1           0        4.230736    0.307370    2.151107
     30          1           0        3.111932   -0.417181   -1.928668
     31          1           0        1.311933    1.317273   -1.750447
     32          7           0        4.806493   -1.150585   -0.005489
     33          8           0        4.928231   -1.726769   -1.084298
     34          8           0        5.497018   -1.358417    0.989809
 ---------------------------------------------------------------------

 SCF Done:  E(RHF) =  -669.534534855     A.U. after   15 cycles
 E2 =    -0.2091856087D+01 EUMP2 =    -0.67162639094222D+03

 The electronic state is 1-A.
 Alpha  occ. eigenvalues --  -20.60733 -20.60727 -15.85784 -11.31143 -11.27704
 Alpha  occ. eigenvalues --  -11.27682 -11.27440 -11.26734 -11.26662 -11.22423
 Alpha  occ. eigenvalues --  -11.22122 -11.22001 -11.21987 -11.21859 -11.21397
 Alpha  occ. eigenvalues --   -1.59808  -1.39362  -1.19310  -1.09023  -1.08711
 Alpha  occ. eigenvalues --   -1.04713  -1.04159  -0.96636  -0.95547  -0.87677
 Alpha  occ. eigenvalues --   -0.86101  -0.82377  -0.80244  -0.78797  -0.77423
 Alpha  occ. eigenvalues --   -0.72005  -0.71131  -0.70446  -0.65643  -0.64973
 Alpha  occ. eigenvalues --   -0.64760  -0.62106  -0.61536  -0.59999  -0.58223
 Alpha  occ. eigenvalues --   -0.55895  -0.55226  -0.53513  -0.53073  -0.52960
 Alpha  occ. eigenvalues --   -0.52679  -0.50540  -0.48760  -0.48759  -0.48549
 Alpha  occ. eigenvalues --   -0.47241  -0.46349  -0.46244  -0.44769  -0.44412
 Alpha  occ. eigenvalues --   -0.37272  -0.36295
 Alpha virt. eigenvalues --    0.05089   0.11299   0.16545   0.20474   0.22443
 Alpha virt. eigenvalues --    0.23876   0.26101   0.26191   0.26582   0.27536
 Alpha virt. eigenvalues --    0.28501   0.29998   0.30789   0.31541   0.31949

 Mulliken charges:
               1
     1  C   -0.298813
     2  C   -0.300184
     3  C   -0.476031
     4  H    0.150344
     5  H    0.149611
     6  H    0.153216
     7  H    0.152489
     8  H    0.155266
     9  H    0.155704
    10  H    0.161686
    11  C   -0.299422
    12  C   -0.300321
    13  C   -0.477781
    14  H    0.151973
    15  H    0.150792
    16  H    0.153129
    17  H    0.152014
    18  H    0.157550
    19  H    0.160484
    20  H    0.147999
    21  C   -0.172151
    22  C   -0.218856
    23  C   -0.171439
    24  C    0.158573
    25  C   -0.173114
    26  C   -0.216953
    27  H    0.225320
    28  H    0.223183
    29  H    0.275321
    30  H    0.275412
    31  H    0.228041
    32  N    0.488055
    33  O   -0.460501
    34  O   -0.460594
 Sum of Mulliken charges =  -0.00000

 Dipole moment (field-independent basis, Debye):
    X=             -3.9272    Y=              3.5414    Z=              0.3827  Tot=              5.3020
 Quadrupole moment (field-independent basis, Debye-Ang):
   XX=           -123.2445   YY=            -95.8719   ZZ=            -90.3464
   XY=             14.0263   XZ=              3.3227   YZ=              1.0183

 Normal termination of Gaussian 16 at Thu May  6 02:49:29 2021.
