 Gaussian 16, Revision A.03,
 Gaussian 16:  EM64L-G16RevA.03 25-Dec-2016

 -------------
 #p 6-31g* mp2
 -------------

 ------------------------------------------------------
 Input file generated by CHIRIPA (05-May-2021 14:55:19)
 ------------------------------------------------------
 Symbolic Z-matrix:
 Charge =  0 Multiplicity = 1

                         Standard orientation:
 ---------------------------------------------------------------------
 Center     Atomic      Atomic             Coordinates (Angstroms)
 Number     Number       Type             X           Y           Z
 ---------------------------------------------------------------------
      1          6           0       -4.466347    1.073639    0.608668
      2          6           0       -4.613693    0.139897   -0.422320
      3          6           0       -3.570336   -0.733369   -0.743819
      4          6           0       -2.388075   -0.644991   -0.010513
      5          6           0       -2.210776    0.274441    1.022202
      6          6           0       -3.267472    1.137818    1.326373
      7          1           0       -5.282034    1.748172    0.851685
      8          1           0       -5.543626    0.087795   -0.981386
      9          1           0       -3.657498   -1.465840   -1.537108
     10          1           0       -1.271875    0.302565    1.561732
     11          1           0       -3.150221    1.861968    2.127562
     12          7           0       -1.276459   -1.564244   -0.341697
     13          8           0       -0.244930   -1.466278    0.319354
     14          8           0       -1.457751   -2.365314   -1.256058
     15          6           0        3.185549    1.245426   -0.498627
     16          6           0        2.040695    2.142626   -0.027113
     17          6           0        1.841614    3.366328   -0.921939
     18          1           0        4.113540    1.832558   -0.531119
     19          1           0        2.985959    0.919025   -1.528687
     20          1           0        2.241710    2.466117    1.002238
     21          1           0        1.115359    1.553241    0.004444
     22          1           0        1.616363    3.060235   -1.948666
     23          1           0        2.749112    3.978297   -0.945203
     24          1           0        1.018289    3.993823   -0.566628
     25          6           0        3.396935    0.017901    0.385807
     26          6           0        4.541790   -0.879298   -0.085708
     27          6           0        4.740871   -2.103000    0.809118
     28          1           0        3.596526    0.344302    1.415866
     29          1           0        2.468945   -0.569231    0.418298
     30          1           0        5.467125   -0.289913   -0.117264
     31          1           0        4.340775   -1.202789   -1.115059
     32          1           0        3.833373   -2.714970    0.832382
     33          1           0        4.966122   -1.796907    1.835845
     34          1           0        5.564196   -2.730495    0.453807
 ---------------------------------------------------------------------

 SCF Done:  E(RHF) =  -669.536604314     A.U. after   15 cycles
 E2 =    -0.2091727716D+01 EUMP2 =    -0.67162833202961D+03

 The electronic state is 1-A.
 Alpha  occ. eigenvalues --  -20.61041 -20.61031 -15.86061 -11.31331 -11.27887
 Alpha  occ. eigenvalues --  -11.27878 -11.27616 -11.26887 -11.26875 -11.21126
 Alpha  occ. eigenvalues --  -11.20777 -11.20633 -11.20627 -11.20210 -11.20094
 Alpha  occ. eigenvalues --   -1.60091  -1.39649  -1.19494  -1.08909  -1.07602
 Alpha  occ. eigenvalues --   -1.04882  -1.02802  -0.95759  -0.95238  -0.86290
 Alpha  occ. eigenvalues --   -0.86258  -0.82595  -0.78899  -0.77680  -0.77339
 Alpha  occ. eigenvalues --   -0.72289  -0.71399  -0.70602  -0.65155  -0.64885
 Alpha  occ. eigenvalues --   -0.64208  -0.62230  -0.60193  -0.58653  -0.56851
 Alpha  occ. eigenvalues --   -0.55389  -0.54509  -0.53215  -0.52973  -0.51999
 Alpha  occ. eigenvalues --   -0.51667  -0.49213  -0.49047  -0.49000  -0.47213
 Alpha  occ. eigenvalues --   -0.45935  -0.45259  -0.44923  -0.44532  -0.43011
 Alpha  occ. eigenvalues --   -0.37470  -0.36477
 Alpha virt. eigenvalues --    0.04830   0.11118   0.16325   0.21122   0.23608
 Alpha virt. eigenvalues --    0.24945   0.26347   0.27448   0.27736   0.28666
 Alpha virt. eigenvalues --    0.29111   0.31027   0.31735   0.32251   0.32319

 Mulliken charges:
               1
     1  C   -0.170428
     2  C   -0.218487
     3  C   -0.170600
     4  C    0.157296
     5  C   -0.171484
     6  C   -0.218591
     7  H    0.226206
     8  H    0.223963
     9  H    0.275820
    10  H    0.277670
    11  H    0.224328
    12  N    0.493056
    13  O   -0.465459
    14  O   -0.458212
    15  C   -0.296225
    16  C   -0.302129
    17  C   -0.474747
    18  H    0.145601
    19  H    0.150682
    20  H    0.147433
    21  H    0.153670
    22  H    0.155706
    23  H    0.154677
    24  H    0.154365
    25  C   -0.312315
    26  C   -0.298056
    27  C   -0.477019
    28  H    0.142250
    29  H    0.180106
    30  H    0.146320
    31  H    0.153116
    32  H    0.164014
    33  H    0.151033
    34  H    0.156442
 Sum of Mulliken charges =  -0.00000

 Dipole moment (field-independent basis, Debye):
    X=             -4.1864    Y=              3.0354    Z=              1.1377  Tot=              5.2947
 Quadrupole moment (field-independent basis, Debye-Ang):
   XX=            -75.4114   YY=            -99.7194   ZZ=            -92.6130
   XY=             -3.8058   XZ=             -0.3979   YZ=              1.9008

 Normal termination of Gaussian 16 at Wed May  5 17:21:30 2021.
