 Gaussian 16, Revision A.03,
 Gaussian 16:  EM64L-G16RevA.03 25-Dec-2016

 -------------
 #p 6-31g* mp2
 -------------

 ------------------------------------------------------
 Input file generated by CHIRIPA (05-May-2021 14:53:13)
 ------------------------------------------------------
 Symbolic Z-matrix:
 Charge =  0 Multiplicity = 1

                         Standard orientation:
 ---------------------------------------------------------------------
 Center     Atomic      Atomic             Coordinates (Angstroms)
 Number     Number       Type             X           Y           Z
 ---------------------------------------------------------------------
      1          6           0        3.124858    0.039754    0.050274
      2          6           0        2.795546   -1.446993   -0.087999
      3          6           0        3.969959   -2.350229    0.289774
      4          1           0        3.990586    0.277468   -0.582933
      5          1           0        3.428979    0.246040    1.085818
      6          1           0        2.490805   -1.650149   -1.122638
      7          1           0        1.930381   -1.681155    0.545464
      8          1           0        4.271099   -2.176598    1.327930
      9          1           0        4.834707   -2.145415   -0.349650
     10          1           0        3.712682   -3.408723    0.183662
     11          6           0        1.960697    0.955455   -0.323822
     12          6           0        2.290009    2.442203   -0.185549
     13          6           0        1.115595    3.345439   -0.563322
     14          1           0        1.656575    0.749170   -1.359366
     15          1           0        1.094968    0.717742    0.309385
     16          1           0        3.155173    2.676365   -0.819012
     17          1           0        2.594749    2.645358    0.849090
     18          1           0        0.250847    3.140625    0.076102
     19          1           0        0.814455    3.171808   -1.601478
     20          1           0        1.372872    4.403933   -0.457210
     21          6           0       -2.262697    2.063960    0.630168
     22          6           0       -2.576992    1.580382   -0.644152
     23          6           0       -2.427854    0.223321   -0.945301
     24          6           0       -1.959847   -0.625873    0.056263
     25          6           0       -1.638286   -0.174382    1.335341
     26          6           0       -1.795171    1.186582    1.614113
     27          1           0       -2.381560    3.119674    0.855416
     28          1           0       -2.940283    2.259457   -1.410260
     29          1           0       -2.663741   -0.177794   -1.923505
     30          1           0       -1.278282   -0.875642    2.078342
     31          1           0       -1.550306    1.559332    2.604640
     32          7           0       -1.797860   -2.064599   -0.250705
     33          8           0       -1.383737   -2.792203    0.649146
     34          8           0       -2.088086   -2.437425   -1.385345
 ---------------------------------------------------------------------

 SCF Done:  E(RHF) =  -669.534749155     A.U. after   15 cycles
 E2 =    -0.2095068113D+01 EUMP2 =    -0.67162981726827D+03

 The electronic state is 1-A.
 Alpha  occ. eigenvalues --  -20.60867 -20.60861 -15.85910 -11.31293 -11.27878
 Alpha  occ. eigenvalues --  -11.27858 -11.27599 -11.26892 -11.26862 -11.21747
 Alpha  occ. eigenvalues --  -11.21323 -11.21295 -11.21241 -11.21185 -11.20688
 Alpha  occ. eigenvalues --   -1.59930  -1.39485  -1.19483  -1.08876  -1.08337
 Alpha  occ. eigenvalues --   -1.04885  -1.03439  -0.95933  -0.95682  -0.86938
 Alpha  occ. eigenvalues --   -0.86278  -0.82531  -0.79526  -0.78126  -0.77569
 Alpha  occ. eigenvalues --   -0.72130  -0.71243  -0.70596  -0.65133  -0.64995
 Alpha  occ. eigenvalues --   -0.64878  -0.62226  -0.60866  -0.59297  -0.57507
 Alpha  occ. eigenvalues --   -0.55440  -0.55181  -0.53320  -0.52970  -0.52604
 Alpha  occ. eigenvalues --   -0.52338  -0.49892  -0.48890  -0.48886  -0.47792
 Alpha  occ. eigenvalues --   -0.46543  -0.45634  -0.45579  -0.44841  -0.43684
 Alpha  occ. eigenvalues --   -0.37355  -0.36446
 Alpha virt. eigenvalues --    0.04920   0.11088   0.16351   0.21060   0.23005
 Alpha virt. eigenvalues --    0.24353   0.26463   0.27236   0.27431   0.27519
 Alpha virt. eigenvalues --    0.28612   0.30817   0.31445   0.31741   0.32266

 Mulliken charges:
               1
     1  C   -0.297938
     2  C   -0.302056
     3  C   -0.475800
     4  H    0.148896
     5  H    0.146564
     6  H    0.154461
     7  H    0.156142
     8  H    0.152773
     9  H    0.153259
    10  H    0.165152
    11  C   -0.304053
    12  C   -0.298082
    13  C   -0.479476
    14  H    0.149276
    15  H    0.153873
    16  H    0.152688
    17  H    0.149116
    18  H    0.154466
    19  H    0.153549
    20  H    0.156931
    21  C   -0.172287
    22  C   -0.214653
    23  C   -0.170808
    24  C    0.163103
    25  C   -0.174329
    26  C   -0.217557
    27  H    0.227679
    28  H    0.224577
    29  H    0.276021
    30  H    0.275943
    31  H    0.224352
    32  N    0.488497
    33  O   -0.460639
    34  O   -0.459640
 Sum of Mulliken charges =  -0.00000

 Dipole moment (field-independent basis, Debye):
    X=             -0.7463    Y=              4.9224    Z=              1.0595  Tot=              5.0902
 Quadrupole moment (field-independent basis, Debye-Ang):
   XX=            -93.2981   YY=           -102.5087   ZZ=            -89.4717
   XY=             -9.8335   XZ=             -0.9631   YZ=             -1.0065

 Normal termination of Gaussian 16 at Wed May  5 15:32:20 2021.
