 Gaussian 16, Revision A.03,
 Gaussian 16:  EM64L-G16RevA.03 25-Dec-2016

 -------------
 #p 6-31g* mp2
 -------------

 ------------------------------------------------------
 Input file generated by CHIRIPA (05-May-2021 14:57:21)
 ------------------------------------------------------
 Symbolic Z-matrix:
 Charge =  0 Multiplicity = 1

                         Standard orientation:
 ---------------------------------------------------------------------
 Center     Atomic      Atomic             Coordinates (Angstroms)
 Number     Number       Type             X           Y           Z
 ---------------------------------------------------------------------
      1          6           0        2.505294    1.855111    0.853318
      2          6           0        2.387119    1.344264   -0.443444
      3          6           0        3.257538    0.348349   -0.896291
      4          6           0        4.238998   -0.115820   -0.021892
      5          6           0        4.382114    0.373066    1.275720
      6          6           0        3.500660    1.368739    1.707256
      7          1           0        1.824846    2.628667    1.196822
      8          1           0        1.615052    1.720099   -1.108806
      9          1           0        3.188441   -0.064851   -1.895245
     10          1           0        5.161736   -0.021480    1.915987
     11          1           0        3.594784    1.763611    2.714857
     12          7           0        5.166313   -1.170023   -0.490020
     13          8           0        6.022548   -1.562159    0.299744
     14          8           0        5.019349   -1.584209   -1.637839
     15          6           0       -1.891137    1.048489   -0.624139
     16          6           0       -1.955284    0.113226    0.413979
     17          6           0       -3.166117   -0.506047    0.737909
     18          6           0       -4.298373   -0.164889   -0.000264
     19          6           0       -4.266593    0.763006   -1.040115
     20          6           0       -3.044962    1.369828   -1.346599
     21          1           0       -0.946338    1.524719   -0.868999
     22          1           0       -1.060810   -0.138273    0.976750
     23          1           0       -3.244130   -1.233566    1.536689
     24          1           0       -5.175138    0.993246   -1.583213
     25          1           0       -2.998117    2.095801   -2.153329
     26          7           0       -5.585943   -0.813895    0.333431
     27          8           0       -6.569202   -0.496054   -0.332013
     28          8           0       -5.587502   -1.628137    1.254107
 ---------------------------------------------------------------------

 SCF Done:  E(RHF) =  -868.336715302     A.U. after   16 cycles
 E2 =    -0.2599851717D+01 EUMP2 =    -0.87093656701916D+03

 The electronic state is 1-A.
 Alpha  occ. eigenvalues --  -20.61431 -20.61424 -20.61141 -20.61136 -15.86493
 Alpha  occ. eigenvalues --  -15.86197 -11.32046 -11.31684 -11.28692 -11.28618
 Alpha  occ. eigenvalues --  -11.28486 -11.28249 -11.28240 -11.28141 -11.27837
 Alpha  occ. eigenvalues --  -11.27653 -11.27345 -11.27318  -1.60503  -1.60213
 Alpha  occ. eigenvalues --   -1.40050  -1.39763  -1.20261  -1.19873  -1.09631
 Alpha  occ. eigenvalues --   -1.09272  -1.05695  -1.05283  -0.96421  -0.96086
 Alpha  occ. eigenvalues --   -0.87096  -0.86687  -0.83251  -0.82902  -0.78259
 Alpha  occ. eigenvalues --   -0.77905  -0.72707  -0.72414  -0.71830  -0.71537
 Alpha  occ. eigenvalues --   -0.71373  -0.71070  -0.65917  -0.65739  -0.65531
 Alpha  occ. eigenvalues --   -0.65278  -0.63036  -0.62616  -0.56228  -0.55884
 Alpha  occ. eigenvalues --   -0.54011  -0.53774  -0.53616  -0.53377  -0.49482
 Alpha  occ. eigenvalues --   -0.49448  -0.49183  -0.49161  -0.45414  -0.45141
 Alpha  occ. eigenvalues --   -0.38273  -0.37904  -0.37298  -0.36874
 Alpha virt. eigenvalues --    0.04291   0.04614   0.10219   0.10768   0.15705
 Alpha virt. eigenvalues --    0.16064   0.18130   0.21856   0.24648   0.26711
 Alpha virt. eigenvalues --    0.27378   0.28897   0.29657   0.31166   0.32072

 Mulliken charges:
               1
     1  C   -0.174098
     2  C   -0.224892
     3  C   -0.169424
     4  C    0.158983
     5  C   -0.169398
     6  C   -0.218706
     7  H    0.225868
     8  H    0.218116
     9  H    0.278189
    10  H    0.278899
    11  H    0.226822
    12  N    0.487955
    13  O   -0.457757
    14  O   -0.458445
    15  C   -0.172909
    16  C   -0.220438
    17  C   -0.170223
    18  C    0.159392
    19  C   -0.170287
    20  C   -0.218825
    21  H    0.217139
    22  H    0.225533
    23  H    0.277528
    24  H    0.277233
    25  H    0.223781
    26  N    0.487882
    27  O   -0.459079
    28  O   -0.458841
 Sum of Mulliken charges =  -0.00000

 Dipole moment (field-independent basis, Debye):
    X=              1.3862    Y=              5.8611    Z=              0.5662  Tot=              6.0493
 Quadrupole moment (field-independent basis, Debye-Ang):
   XX=           -168.7294   YY=           -106.5121   ZZ=            -98.6194
   XY=              4.2194   XZ=             16.6288   YZ=             -2.1080

 Normal termination of Gaussian 16 at Thu May  6 08:05:19 2021.
