 Gaussian 16, Revision A.03,
 Gaussian 16:  EM64L-G16RevA.03 25-Dec-2016

 -------------
 #p 6-31g* mp2
 -------------

 ------------------------------------------------------
 Input file generated by CHIRIPA (05-May-2021 14:53:15)
 ------------------------------------------------------
 Symbolic Z-matrix:
 Charge =  0 Multiplicity = 1

                         Standard orientation:
 ---------------------------------------------------------------------
 Center     Atomic      Atomic             Coordinates (Angstroms)
 Number     Number       Type             X           Y           Z
 ---------------------------------------------------------------------
      1          6           0       -4.717666   -0.213395    0.038207
      2          6           0       -5.586157    1.013537    0.318108
      3          6           0       -7.023646    0.648026    0.689349
      4          1           0       -5.170534   -0.797603   -0.774539
      5          1           0       -4.714673   -0.861930    0.925218
      6          1           0       -5.586392    1.660244   -0.568677
      7          1           0       -5.131067    1.594994    1.130153
      8          1           0       -7.042299    0.021779    1.587162
      9          1           0       -7.500212    0.087400   -0.121320
     10          1           0       -7.626863    1.539989    0.885284
     11          6           0       -3.277854    0.135775   -0.334285
     12          6           0       -2.409363   -1.091158   -0.614185
     13          6           0       -0.971874   -0.725646   -0.985427
     14          1           0       -3.280847    0.784310   -1.221296
     15          1           0       -2.824986    0.719983    0.478461
     16          1           0       -2.864453   -1.672614   -1.426230
     17          1           0       -2.409128   -1.737864    0.272599
     18          1           0       -0.495308   -0.165020   -0.174758
     19          1           0       -0.953220   -0.099399   -1.883240
     20          1           0       -0.368657   -1.617609   -1.181362
     21          6           0        3.716328    2.465352   -0.175557
     22          6           0        3.318824    1.704762   -1.280100
     23          6           0        2.987900    0.354705   -1.130489
     24          6           0        3.065913   -0.205089    0.143809
     25          6           0        3.458438    0.526424    1.263675
     26          6           0        3.784746    1.874797    1.090574
     27          1           0        3.971605    3.513454   -0.300902
     28          1           0        3.264780    2.160750   -2.264579
     29          1           0        2.677063   -0.257307   -1.968486
     30          1           0        3.502717    0.044010    2.232558
     31          1           0        4.093126    2.463050    1.950168
     32          7           0        2.718023   -1.633443    0.314629
     33          8           0        2.794854   -2.103098    1.447836
     34          8           0        2.375102   -2.256284   -0.687923
 ---------------------------------------------------------------------

 SCF Done:  E(RHF) =  -669.536246810     A.U. after   15 cycles
 E2 =    -0.2091617178D+01 EUMP2 =    -0.67162786398833D+03

 The electronic state is 1-A.
 Alpha  occ. eigenvalues --  -20.60854 -20.60848 -15.85878 -11.31202 -11.27773
 Alpha  occ. eigenvalues --  -11.27758 -11.27511 -11.26779 -11.26764 -11.21437
 Alpha  occ. eigenvalues --  -11.21152 -11.21128 -11.21055 -11.20926 -11.20481
 Alpha  occ. eigenvalues --   -1.59907  -1.39465  -1.19372  -1.08776  -1.08137
 Alpha  occ. eigenvalues --   -1.04768  -1.03206  -0.95672  -0.95604  -0.86682
 Alpha  occ. eigenvalues --   -0.86167  -0.82455  -0.79287  -0.77954  -0.77502
 Alpha  occ. eigenvalues --   -0.72110  -0.71218  -0.70482  -0.65030  -0.64777
 Alpha  occ. eigenvalues --   -0.64771  -0.62117  -0.60614  -0.59006  -0.57250
 Alpha  occ. eigenvalues --   -0.55278  -0.54969  -0.53113  -0.52865  -0.52317
 Alpha  occ. eigenvalues --   -0.52070  -0.49630  -0.48865  -0.48863  -0.47594
 Alpha  occ. eigenvalues --   -0.46333  -0.45495  -0.45423  -0.44900  -0.43366
 Alpha  occ. eigenvalues --   -0.37343  -0.36362
 Alpha virt. eigenvalues --    0.04993   0.11257   0.16467   0.21369   0.23134
 Alpha virt. eigenvalues --    0.24611   0.26871   0.27166   0.27732   0.27881
 Alpha virt. eigenvalues --    0.28621   0.30836   0.31537   0.31951   0.32240

 Mulliken charges:
               1
     1  C   -0.298123
     2  C   -0.299193
     3  C   -0.475539
     4  H    0.149594
     5  H    0.150437
     6  H    0.150647
     7  H    0.150937
     8  H    0.155551
     9  H    0.155194
    10  H    0.159141
    11  C   -0.297526
    12  C   -0.299630
    13  C   -0.486382
    14  H    0.146764
    15  H    0.147911
    16  H    0.151584
    17  H    0.155302
    18  H    0.148704
    19  H    0.146678
    20  H    0.182954
    21  C   -0.170571
    22  C   -0.218845
    23  C   -0.168380
    24  C    0.158734
    25  C   -0.171526
    26  C   -0.218714
    27  H    0.225647
    28  H    0.223574
    29  H    0.276420
    30  H    0.275462
    31  H    0.223395
    32  N    0.489145
    33  O   -0.459603
    34  O   -0.459739
 Sum of Mulliken charges =  -0.00000

 Dipole moment (field-independent basis, Debye):
    X=              1.3632    Y=              4.9223    Z=             -0.5981  Tot=              5.1425
 Quadrupole moment (field-independent basis, Debye-Ang):
   XX=            -89.2746   YY=            -97.2914   ZZ=            -89.2823
   XY=             15.5634   XZ=             -0.1012   YZ=              1.2863

 Normal termination of Gaussian 16 at Thu May  6 15:28:00 2021.
