 Gaussian 16, Revision A.03,
 Gaussian 16:  EM64L-G16RevA.03 25-Dec-2016

 -------------
 #p 6-31g* mp2
 -------------

 ------------------------------------------------------
 Input file generated by CHIRIPA (05-May-2021 14:57:24)
 ------------------------------------------------------
 Symbolic Z-matrix:
 Charge =  0 Multiplicity = 1

                         Standard orientation:
 ---------------------------------------------------------------------
 Center     Atomic      Atomic             Coordinates (Angstroms)
 Number     Number       Type             X           Y           Z
 ---------------------------------------------------------------------
      1          6           0       -0.817799   -2.351084    0.011399
      2          6           0       -1.077455   -1.744954    1.244974
      3          6           0       -2.042695   -0.739350    1.352771
      4          6           0       -2.732665   -0.362758    0.201506
      5          6           0       -2.496690   -0.947633   -1.041686
      6          6           0       -1.526995   -1.951194   -1.125989
      7          1           0       -0.066248   -3.131467   -0.063215
      8          1           0       -0.528221   -2.053495    2.129954
      9          1           0       -2.263764   -0.253317    2.295277
     10          1           0       -3.060390   -0.618791   -1.906280
     11          1           0       -1.327445   -2.420162   -2.085308
     12          7           0       -3.756879    0.700748    0.303190
     13          8           0       -4.351069    1.014566   -0.725932
     14          8           0       -3.946074    1.200369    1.410087
     15          6           0        0.658868    2.054503   -0.845999
     16          6           0        1.671422    2.528390   -0.005353
     17          6           0        2.731747    1.697003    0.367548
     18          6           0        2.748030    0.391430   -0.120820
     19          6           0        1.754084   -0.109954   -0.959854
     20          6           0        0.703352    0.739162   -1.319731
     21          1           0       -0.161093    2.707230   -1.130619
     22          1           0        1.639468    3.549444    0.364069
     23          1           0        3.528770    2.038072    1.017045
     24          1           0        1.813264   -1.132599   -1.312150
     25          1           0       -0.081634    0.368431   -1.972725
     26          7           0        3.865470   -0.498106    0.267060
     27          8           0        3.856746   -1.644258   -0.176670
     28          8           0        4.728888   -0.032328    1.007464
 ---------------------------------------------------------------------

 SCF Done:  E(RHF) =  -868.336195817     A.U. after   16 cycles
 E2 =    -0.2604691456D+01 EUMP2 =    -0.87094088727334D+03

 The electronic state is 1-A.
 Alpha  occ. eigenvalues --  -20.61524 -20.61504 -20.61201 -20.61166 -15.86568
 Alpha  occ. eigenvalues --  -15.86230 -11.31940 -11.31423 -11.28531 -11.28445
 Alpha  occ. eigenvalues --  -11.28132 -11.27991 -11.27917 -11.27570 -11.27495
 Alpha  occ. eigenvalues --  -11.27378 -11.26889 -11.26820  -1.60598  -1.60265
 Alpha  occ. eigenvalues --   -1.40149  -1.39825  -1.20116  -1.19550  -1.09483
 Alpha  occ. eigenvalues --   -1.08972  -1.05521  -1.04922  -0.96323  -0.95840
 Alpha  occ. eigenvalues --   -0.86886  -0.86345  -0.83147  -0.82689  -0.78212
 Alpha  occ. eigenvalues --   -0.77785  -0.72777  -0.72451  -0.71936  -0.71592
 Alpha  occ. eigenvalues --   -0.71176  -0.70634  -0.65744  -0.65471  -0.65201
 Alpha  occ. eigenvalues --   -0.64955  -0.62837  -0.62360  -0.55931  -0.55427
 Alpha  occ. eigenvalues --   -0.54299  -0.53561  -0.53114  -0.52646  -0.49543
 Alpha  occ. eigenvalues --   -0.49534  -0.49223  -0.49183  -0.45552  -0.45269
 Alpha  occ. eigenvalues --   -0.38325  -0.37474  -0.37032  -0.36253
 Alpha virt. eigenvalues --    0.04186   0.04817   0.10410   0.11138   0.15702
 Alpha virt. eigenvalues --    0.16310   0.20085   0.21891   0.26116   0.26591
 Alpha virt. eigenvalues --    0.28055   0.28974   0.30182   0.31488   0.31719

 Mulliken charges:
               1
     1  C   -0.170889
     2  C   -0.214986
     3  C   -0.168595
     4  C    0.161315
     5  C   -0.180824
     6  C   -0.228817
     7  H    0.234979
     8  H    0.230291
     9  H    0.277987
    10  H    0.275239
    11  H    0.224743
    12  N    0.486812
    13  O   -0.461771
    14  O   -0.457861
    15  C   -0.174713
    16  C   -0.218301
    17  C   -0.172941
    18  C    0.156219
    19  C   -0.170884
    20  C   -0.208913
    21  H    0.230821
    22  H    0.225744
    23  H    0.275331
    24  H    0.264790
    25  H    0.222010
    26  N    0.488035
    27  O   -0.466227
    28  O   -0.458592
 Sum of Mulliken charges =  -0.00000

 Dipole moment (field-independent basis, Debye):
    X=             -0.4737    Y=             -0.6106    Z=             -1.4881  Tot=              1.6768
 Quadrupole moment (field-independent basis, Debye-Ang):
   XX=           -147.1850   YY=            -97.3823   ZZ=            -98.9078
   XY=             18.0348   XZ=              0.5203   YZ=              0.9563

 Normal termination of Gaussian 16 at Thu May  6 06:41:29 2021.
