 Gaussian 16, Revision A.03,
 Gaussian 16:  EM64L-G16RevA.03 25-Dec-2016

 -------------
 #p 6-31g* mp2
 -------------

 ------------------------------------------------------
 Input file generated by CHIRIPA (05-May-2021 14:55:24)
 ------------------------------------------------------
 Symbolic Z-matrix:
 Charge =  0 Multiplicity = 1

                         Standard orientation:
 ---------------------------------------------------------------------
 Center     Atomic      Atomic             Coordinates (Angstroms)
 Number     Number       Type             X           Y           Z
 ---------------------------------------------------------------------
      1          6           0        5.294787   -0.725315   -0.569147
      2          6           0        4.232271   -1.487340   -1.066036
      3          6           0        2.919417   -1.220841   -0.666110
      4          6           0        2.704299   -0.180197    0.236150
      5          6           0        3.741827    0.596852    0.749004
      6          6           0        5.046612    0.312519    0.335193
      7          1           0        6.311510   -0.939265   -0.885213
      8          1           0        4.422034   -2.293948   -1.768474
      9          1           0        2.078249   -1.795047   -1.035087
     10          1           0        3.521334    1.394463    1.448016
     11          1           0        5.869826    0.905966    0.722729
     12          7           0        1.318710    0.111373    0.666884
     13          8           0        1.155640    1.033632    1.462800
     14          8           0        0.421993   -0.587875    0.200421
     15          6           0       -4.447933   -0.017525   -0.286986
     16          6           0       -4.600197   -1.350721    0.446083
     17          6           0       -5.994269   -1.957812    0.285471
     18          1           0       -5.202061    0.687975    0.087854
     19          1           0       -4.662989   -0.167164   -1.354110
     20          1           0       -4.383568   -1.198892    1.511275
     21          1           0       -3.845494   -2.053069    0.069589
     22          1           0       -6.216658   -2.137797   -0.771293
     23          1           0       -6.757788   -1.278767    0.678585
     24          1           0       -6.081063   -2.910353    0.817443
     25          6           0       -3.059677    0.601849   -0.135824
     26          6           0       -2.907414    1.935045   -0.868892
     27          6           0       -1.513341    2.542136   -0.708281
     28          1           0       -2.844621    0.751488    0.931301
     29          1           0       -2.305549   -0.103651   -0.510664
     30          1           0       -3.662116    2.637393   -0.492399
     31          1           0       -3.124043    1.783217   -1.934086
     32          1           0       -0.749823    1.863091   -1.101395
     33          1           0       -1.290953    2.722121    0.348483
     34          1           0       -1.426548    3.494677   -1.240253
 ---------------------------------------------------------------------

 SCF Done:  E(RHF) =  -669.535989444     A.U. after   15 cycles
 E2 =    -0.2092398523D+01 EUMP2 =    -0.67162838796713D+03

 The electronic state is 1-A.
 Alpha  occ. eigenvalues --  -20.61017 -20.61002 -15.86019 -11.31331 -11.27894
 Alpha  occ. eigenvalues --  -11.27885 -11.27624 -11.26893 -11.26883 -11.20485
 Alpha  occ. eigenvalues --  -11.20211 -11.20149 -11.20095 -11.19545 -11.19448
 Alpha  occ. eigenvalues --   -1.60053  -1.39613  -1.19496  -1.08903  -1.07023
 Alpha  occ. eigenvalues --   -1.04890  -1.02219  -0.95748  -0.94654  -0.86291
 Alpha  occ. eigenvalues --   -0.85671  -0.82588  -0.78314  -0.77641  -0.76748
 Alpha  occ. eigenvalues --   -0.72248  -0.71365  -0.70605  -0.65154  -0.64892
 Alpha  occ. eigenvalues --   -0.63668  -0.62237  -0.59635  -0.58055  -0.56252
 Alpha  occ. eigenvalues --   -0.55393  -0.53945  -0.53222  -0.52982  -0.51427
 Alpha  occ. eigenvalues --   -0.51050  -0.49089  -0.49001  -0.48574  -0.46569
 Alpha  occ. eigenvalues --   -0.45430  -0.45009  -0.44258  -0.44081  -0.42437
 Alpha  occ. eigenvalues --   -0.37470  -0.36489
 Alpha virt. eigenvalues --    0.04861   0.11166   0.16346   0.21291   0.24182
 Alpha virt. eigenvalues --    0.25648   0.27221   0.27949   0.28220   0.29002
 Alpha virt. eigenvalues --    0.29208   0.30903   0.32319   0.32711   0.32851

 Mulliken charges:
               1
     1  C   -0.170492
     2  C   -0.218525
     3  C   -0.170842
     4  C    0.158174
     5  C   -0.170334
     6  C   -0.218587
     7  H    0.226143
     8  H    0.223912
     9  H    0.275423
    10  H    0.276052
    11  H    0.223994
    12  N    0.490298
    13  O   -0.457525
    14  O   -0.460950
    15  C   -0.297982
    16  C   -0.297997
    17  C   -0.474806
    18  H    0.144580
    19  H    0.143933
    20  H    0.152502
    21  H    0.152847
    22  H    0.152425
    23  H    0.153137
    24  H    0.156900
    25  C   -0.301270
    26  C   -0.299503
    27  C   -0.474116
    28  H    0.153877
    29  H    0.169090
    30  H    0.145474
    31  H    0.144169
    32  H    0.154252
    33  H    0.167522
    34  H    0.148225
 Sum of Mulliken charges =  -0.00000

 Dipole moment (field-independent basis, Debye):
    X=              5.3175    Y=             -1.1242    Z=             -1.3518  Tot=              5.6006
 Quadrupole moment (field-independent basis, Debye-Ang):
   XX=            -70.7978   YY=            -92.7358   ZZ=            -93.8686
   XY=             -2.8533   XZ=             -2.5854   YZ=              3.4613

 Normal termination of Gaussian 16 at Wed May  5 17:37:07 2021.
