 Gaussian 16, Revision A.03,
 Gaussian 16:  EM64L-G16RevA.03 25-Dec-2016

 -------------
 #p 6-31g* mp2
 -------------

 ------------------------------------------------------
 Input file generated by CHIRIPA (05-May-2021 14:55:24)
 ------------------------------------------------------
 Symbolic Z-matrix:
 Charge =  0 Multiplicity = 1

                         Standard orientation:
 ---------------------------------------------------------------------
 Center     Atomic      Atomic             Coordinates (Angstroms)
 Number     Number       Type             X           Y           Z
 ---------------------------------------------------------------------
      1          6           0       -0.939054   -0.140564    1.679455
      2          6           0       -1.181453    0.930085    0.812578
      3          6           0       -2.309729    0.933815   -0.012968
      4          6           0       -3.178559   -0.154249    0.054426
      5          6           0       -2.964463   -1.235695    0.907613
      6          6           0       -1.829762   -1.218137    1.724126
      7          1           0       -0.060087   -0.135193    2.317251
      8          1           0       -0.491438    1.768279    0.775769
      9          1           0       -2.521573    1.749676   -0.693343
     10          1           0       -3.670436   -2.057165    0.922001
     11          1           0       -1.644048   -2.050980    2.396382
     12          7           0       -4.376415   -0.161569   -0.814762
     13          8           0       -5.126548   -1.132044   -0.736557
     14          8           0       -4.542480    0.803308   -1.557778
     15          6           0        3.368874    0.769794   -0.486004
     16          6           0        3.431899    1.995905    0.425405
     17          6           0        2.532294    3.135577   -0.053817
     18          1           0        3.657268    1.062890   -1.504762
     19          1           0        2.329532    0.418003   -0.544366
     20          1           0        4.471035    2.344448    0.483132
     21          1           0        3.143507    1.699816    1.442153
     22          1           0        1.487557    2.810774   -0.094165
     23          1           0        2.822627    3.459069   -1.058635
     24          1           0        2.592738    4.001954    0.612213
     25          6           0        4.262840   -0.378005   -0.020053
     26          6           0        4.199814   -1.604117   -0.931461
     27          6           0        5.099419   -2.743788   -0.452240
     28          1           0        5.302181   -0.026214    0.038309
     29          1           0        3.974446   -0.671101    0.998705
     30          1           0        4.488206   -1.308027   -1.948210
     31          1           0        3.160679   -1.952659   -0.989189
     32          1           0        4.809086   -3.067280    0.552578
     33          1           0        6.144157   -2.418985   -0.411891
     34          1           0        5.038974   -3.610166   -1.118270
 ---------------------------------------------------------------------

 SCF Done:  E(RHF) =  -669.535563535     A.U. after   15 cycles
 E2 =    -0.2091320610D+01 EUMP2 =    -0.67162688414499D+03

 The electronic state is 1-A.
 Alpha  occ. eigenvalues --  -20.60777 -20.60772 -15.85831 -11.31212 -11.27787
 Alpha  occ. eigenvalues --  -11.27780 -11.27540 -11.26802 -11.26786 -11.22506
 Alpha  occ. eigenvalues --  -11.22140 -11.22122 -11.22089 -11.22028 -11.21540
 Alpha  occ. eigenvalues --   -1.59852  -1.39405  -1.19388  -1.09156  -1.08781
 Alpha  occ. eigenvalues --   -1.04794  -1.04258  -0.96709  -0.95612  -0.87727
 Alpha  occ. eigenvalues --   -0.86192  -0.82444  -0.80320  -0.78938  -0.77489
 Alpha  occ. eigenvalues --   -0.72049  -0.71175  -0.70497  -0.65827  -0.65040
 Alpha  occ. eigenvalues --   -0.64803  -0.62205  -0.61606  -0.60074  -0.58300
 Alpha  occ. eigenvalues --   -0.56036  -0.55286  -0.53396  -0.53177  -0.53120
 Alpha  occ. eigenvalues --   -0.52840  -0.50651  -0.48816  -0.48803  -0.48618
 Alpha  occ. eigenvalues --   -0.47358  -0.46483  -0.46400  -0.44807  -0.44496
 Alpha  occ. eigenvalues --   -0.37369  -0.36392
 Alpha virt. eigenvalues --    0.05046   0.11164   0.16513   0.19113   0.22696
 Alpha virt. eigenvalues --    0.23722   0.25408   0.25750   0.27033   0.28382
 Alpha virt. eigenvalues --    0.28720   0.30173   0.30958   0.31440   0.31912

 Mulliken charges:
               1
     1  C   -0.173140
     2  C   -0.225426
     3  C   -0.172610
     4  C    0.158763
     5  C   -0.170872
     6  C   -0.218585
     7  H    0.225976
     8  H    0.233688
     9  H    0.276204
    10  H    0.275755
    11  H    0.223479
    12  N    0.488082
    13  O   -0.460440
    14  O   -0.460174
    15  C   -0.300515
    16  C   -0.299887
    17  C   -0.479524
    18  H    0.153324
    19  H    0.148762
    20  H    0.156566
    21  H    0.146097
    22  H    0.147035
    23  H    0.161645
    24  H    0.163229
    25  C   -0.297809
    26  C   -0.300433
    27  C   -0.475891
    28  H    0.151576
    29  H    0.145806
    30  H    0.154174
    31  H    0.152666
    32  H    0.153812
    33  H    0.156244
    34  H    0.162419
 Sum of Mulliken charges =  -0.00000

 Dipole moment (field-independent basis, Debye):
    X=              4.3691    Y=              0.0204    Z=              2.9823  Tot=              5.2899
 Quadrupole moment (field-independent basis, Debye-Ang):
   XX=           -121.0049   YY=            -91.4590   ZZ=            -94.0920
   XY=              1.6304   XZ=            -10.9863   YZ=             -2.5304

 Normal termination of Gaussian 16 at Thu May  6 07:56:25 2021.
