 Gaussian 16, Revision A.03,
 Gaussian 16:  EM64L-G16RevA.03 25-Dec-2016

 -------------
 #p 6-31g* mp2
 -------------

 ------------------------------------------------------
 Input file generated by CHIRIPA (05-May-2021 14:51:08)
 ------------------------------------------------------
 Symbolic Z-matrix:
 Charge =  0 Multiplicity = 1

                         Standard orientation:
 ---------------------------------------------------------------------
 Center     Atomic      Atomic             Coordinates (Angstroms)
 Number     Number       Type             X           Y           Z
 ---------------------------------------------------------------------
      1          6           0        3.018278    0.057545    0.327471
      2          6           0        3.910513    0.689629   -0.741346
      3          6           0        4.609541    1.958740   -0.252972
      4          1           0        2.266548    0.791214    0.649305
      5          1           0        3.626723   -0.175240    1.212345
      6          1           0        3.300838    0.919884   -1.624463
      7          1           0        4.660086   -0.045694   -1.060810
      8          1           0        5.241258    1.741162    0.614319
      9          1           0        3.874287    2.712226    0.047464
     10          1           0        5.242164    2.394058   -1.032810
     11          6           0        2.312625   -1.212042   -0.145741
     12          6           0        1.420390   -1.844127    0.923077
     13          6           0        0.721362   -3.113238    0.434702
     14          1           0        1.704181   -0.979258   -1.030615
     15          1           0        3.064355   -1.945712   -0.467574
     16          1           0        0.670817   -1.108804    1.242541
     17          1           0        2.030065   -2.074382    1.806193
     18          1           0        1.456616   -3.866724    0.134266
     19          1           0        0.089645   -2.895660   -0.432589
     20          1           0        0.088740   -3.548556    1.214540
     21          6           0       -2.696640   -0.029141   -0.554277
     22          6           0       -3.011488   -1.334991    0.176209
     23          6           0       -3.070504   -2.539061   -0.764283
     24          1           0       -3.458229    0.144225   -1.326851
     25          1           0       -1.736907   -0.132962   -1.079185
     26          1           0       -3.969673   -1.228265    0.700715
     27          1           0       -2.249167   -1.505170    0.947263
     28          1           0       -2.113230   -2.673778   -1.278170
     29          1           0       -3.843512   -2.395298   -1.526119
     30          1           0       -3.296857   -3.461945   -0.221227
     31          6           0       -2.634263    1.183639    0.372547
     32          6           0       -2.319416    2.489489   -0.357940
     33          6           0       -2.260400    3.693559    0.582554
     34          1           0       -3.593997    1.287460    0.897454
     35          1           0       -1.872674    1.010273    1.145121
     36          1           0       -3.081736    2.659668   -1.128993
     37          1           0       -1.361230    2.382763   -0.882445
     38          1           0       -1.487393    3.549796    1.344389
     39          1           0       -3.217673    3.828275    1.096440
     40          1           0       -2.034047    4.616443    0.039497
 ---------------------------------------------------------------------

 SCF Done:  E(RHF) =  -470.733055628     A.U. after   11 cycles
 E2 =    -0.1583786079D+01 EUMP2 =    -0.47231684170694D+03

 The electronic state is 1-A.
 Alpha  occ. eigenvalues --  -11.21665 -11.21649 -11.21642 -11.21596 -11.21466
 Alpha  occ. eigenvalues --  -11.21450 -11.21406 -11.21390 -11.21109 -11.21101
 Alpha  occ. eigenvalues --  -11.21082 -11.21042  -1.08502  -1.08448  -1.03614
 Alpha  occ. eigenvalues --   -1.03514  -0.96068  -0.95958  -0.87079  -0.86978
 Alpha  occ. eigenvalues --   -0.79667  -0.79587  -0.78321  -0.78256  -0.65321
 Alpha  occ. eigenvalues --   -0.64924  -0.61271  -0.60668  -0.59434  -0.59324
 Alpha  occ. eigenvalues --   -0.57693  -0.57559  -0.55585  -0.55031  -0.52728
 Alpha  occ. eigenvalues --   -0.52667  -0.52507  -0.52373  -0.50169  -0.49728
 Alpha  occ. eigenvalues --   -0.48016  -0.47866  -0.46808  -0.46515  -0.45922
 Alpha  occ. eigenvalues --   -0.45873  -0.45722  -0.45595  -0.43833  -0.43808
 Alpha virt. eigenvalues --    0.18978   0.22930   0.23683   0.24935   0.25547
 Alpha virt. eigenvalues --    0.25863   0.26853   0.28299   0.28855   0.29227
 Alpha virt. eigenvalues --    0.29898   0.31172   0.31683   0.32123   0.32299

 Mulliken charges:
               1
     1  C   -0.298256
     2  C   -0.299704
     3  C   -0.475766
     4  H    0.149160
     5  H    0.149827
     6  H    0.151887
     7  H    0.152130
     8  H    0.155275
     9  H    0.155258
    10  H    0.160445
    11  C   -0.298558
    12  C   -0.302281
    13  C   -0.479650
    14  H    0.149062
    15  H    0.150171
    16  H    0.152843
    17  H    0.152328
    18  H    0.155235
    19  H    0.160048
    20  H    0.160607
    21  C   -0.298548
    22  C   -0.303287
    23  C   -0.477177
    24  H    0.150012
    25  H    0.148661
    26  H    0.152029
    27  H    0.155942
    28  H    0.157372
    29  H    0.154745
    30  H    0.160553
    31  C   -0.299131
    32  C   -0.299582
    33  C   -0.475739
    34  H    0.149979
    35  H    0.149616
    36  H    0.152239
    37  H    0.151366
    38  H    0.155057
    39  H    0.155426
    40  H    0.160406
 Sum of Mulliken charges =  -0.00000

 Dipole moment (field-independent basis, Debye):
    X=              0.0013    Y=             -0.0174    Z=              0.0053  Tot=              0.0182
 Quadrupole moment (field-independent basis, Debye-Ang):
   XX=            -83.3968   YY=            -86.1590   ZZ=            -85.0257
   XY=             -1.2345   XZ=              0.2232   YZ=             -0.9410

 Normal termination of Gaussian 16 at Thu May  6 03:41:24 2021.
