 Gaussian 16, Revision A.03,
 Gaussian 16:  EM64L-G16RevA.03 25-Dec-2016

 -------------
 #p 6-31g* mp2
 -------------

 ------------------------------------------------------
 Input file generated by CHIRIPA (05-May-2021 14:53:15)
 ------------------------------------------------------
 Symbolic Z-matrix:
 Charge =  0 Multiplicity = 1

                         Standard orientation:
 ---------------------------------------------------------------------
 Center     Atomic      Atomic             Coordinates (Angstroms)
 Number     Number       Type             X           Y           Z
 ---------------------------------------------------------------------
      1          6           0        5.632942   -0.477373    0.093746
      2          6           0        6.900949    0.144600   -0.492169
      3          6           0        8.134145   -0.739641   -0.304722
      4          1           0        5.787894   -0.670868    1.164023
      5          1           0        5.460047   -1.454265   -0.378678
      6          1           0        7.070637    1.120646   -0.019775
      7          1           0        6.742893    0.336814   -1.561135
      8          1           0        7.990150   -1.709743   -0.791311
      9          1           0        8.319757   -0.921457    0.758807
     10          1           0        9.029220   -0.275870   -0.730887
     11          6           0        4.391637    0.394776   -0.085827
     12          6           0        3.123631   -0.227197    0.500087
     13          6           0        1.890434    0.657044    0.312640
     14          1           0        4.564532    1.371668    0.386596
     15          1           0        4.236685    0.588271   -1.156105
     16          1           0        3.281687   -0.419411    1.569053
     17          1           0        2.953942   -1.203243    0.027693
     18          1           0        1.704822    0.838860   -0.750889
     19          1           0        2.034429    1.627146    0.799229
     20          1           0        0.995359    0.193273    0.738806
     21          6           0       -2.810072    2.294653    0.154293
     22          6           0       -4.093529    2.179148   -0.389690
     23          6           0       -4.715902    0.930667   -0.481853
     24          6           0       -4.022754   -0.186455   -0.018309
     25          6           0       -2.743206   -0.103822    0.528699
     26          6           0       -2.140187    1.154809    0.610946
     27          1           0       -2.334114    3.268446    0.222037
     28          1           0       -4.616149    3.062651   -0.745124
     29          1           0       -5.708799    0.812616   -0.898554
     30          1           0       -2.247303   -1.002604    0.874661
     31          1           0       -1.143362    1.241511    1.033875
     32          7           0       -4.671388   -1.513539   -0.110629
     33          8           0       -4.039556   -2.482476    0.304805
     34          8           0       -5.799338   -1.559641   -0.596675
 ---------------------------------------------------------------------

 SCF Done:  E(RHF) =  -669.535456969     A.U. after   15 cycles
 E2 =    -0.2090807976D+01 EUMP2 =    -0.67162626494443D+03

 The electronic state is 1-A.
 Alpha  occ. eigenvalues --  -20.60718 -20.60713 -15.85771 -11.31124 -11.27690
 Alpha  occ. eigenvalues --  -11.27679 -11.27417 -11.26707 -11.26643 -11.22250
 Alpha  occ. eigenvalues --  -11.22052 -11.21916 -11.21893 -11.21746 -11.21315
 Alpha  occ. eigenvalues --   -1.59794  -1.39348  -1.19290  -1.08908  -1.08686
 Alpha  occ. eigenvalues --   -1.04693  -1.04052  -0.96530  -0.95526  -0.87562
 Alpha  occ. eigenvalues --   -0.86084  -0.82360  -0.80123  -0.78686  -0.77409
 Alpha  occ. eigenvalues --   -0.71989  -0.71117  -0.70400  -0.65529  -0.64942
 Alpha  occ. eigenvalues --   -0.64714  -0.62087  -0.61438  -0.59903  -0.58116
 Alpha  occ. eigenvalues --   -0.55803  -0.55196  -0.53406  -0.53011  -0.52958
 Alpha  occ. eigenvalues --   -0.52608  -0.50453  -0.48746  -0.48745  -0.48435
 Alpha  occ. eigenvalues --   -0.47126  -0.46240  -0.46137  -0.44757  -0.44298
 Alpha  occ. eigenvalues --   -0.37269  -0.36287
 Alpha virt. eigenvalues --    0.05118   0.11347   0.16588   0.20500   0.22509
 Alpha virt. eigenvalues --    0.23802   0.25858   0.26219   0.26988   0.28111
 Alpha virt. eigenvalues --    0.28479   0.30417   0.30872   0.31326   0.32289

 Mulliken charges:
               1
     1  C   -0.298891
     2  C   -0.299976
     3  C   -0.476007
     4  H    0.150390
     5  H    0.151238
     6  H    0.151790
     7  H    0.152435
     8  H    0.156135
     9  H    0.155608
    10  H    0.161063
    11  C   -0.299266
    12  C   -0.299633
    13  C   -0.479394
    14  H    0.149241
    15  H    0.150726
    16  H    0.153566
    17  H    0.156017
    18  H    0.159971
    19  H    0.153525
    20  H    0.152560
    21  C   -0.172093
    22  C   -0.218454
    23  C   -0.171341
    24  C    0.158573
    25  C   -0.172795
    26  C   -0.222160
    27  H    0.225725
    28  H    0.223060
    29  H    0.275313
    30  H    0.274696
    31  H    0.231574
    32  N    0.488110
    33  O   -0.460627
    34  O   -0.460680
 Sum of Mulliken charges =  -0.00000

 Dipole moment (field-independent basis, Debye):
    X=              2.4941    Y=              4.6664    Z=              0.2861  Tot=              5.2988
 Quadrupole moment (field-independent basis, Debye-Ang):
   XX=           -110.4725   YY=            -96.2152   ZZ=            -93.8789
   XY=            -20.9042   XZ=              0.6504   YZ=             -0.7404

 Normal termination of Gaussian 16 at Wed May  5 20:17:59 2021.
