 Gaussian 16, Revision A.03,
 Gaussian 16:  EM64L-G16RevA.03 25-Dec-2016

 -------------
 #p 6-31g* mp2
 -------------

 ------------------------------------------------------
 Input file generated by CHIRIPA (05-May-2021 14:57:27)
 ------------------------------------------------------
 Symbolic Z-matrix:
 Charge =  0 Multiplicity = 1

                         Standard orientation:
 ---------------------------------------------------------------------
 Center     Atomic      Atomic             Coordinates (Angstroms)
 Number     Number       Type             X           Y           Z
 ---------------------------------------------------------------------
      1          6           0        3.236845   -1.998306   -1.510601
      2          6           0        2.255611   -2.030541   -0.514277
      3          6           0        2.120751   -0.967852    0.384084
      4          6           0        2.987933    0.116150    0.256715
      5          6           0        3.975478    0.177695   -0.725251
      6          6           0        4.092139   -0.896234   -1.612728
      7          1           0        3.334539   -2.828194   -2.204242
      8          1           0        1.589988   -2.885128   -0.432595
      9          1           0        1.369863   -0.966842    1.164842
     10          1           0        4.624355    1.043252   -0.781710
     11          1           0        4.855096   -0.868478   -2.385497
     12          7           0        2.854796    1.247121    1.202008
     13          8           0        3.631152    2.190594    1.068717
     14          8           0        1.976609    1.168688    2.058321
     15          6           0       -2.740589    2.290541   -1.268696
     16          6           0       -1.614964    1.604950   -0.800237
     17          6           0       -1.752278    0.374028   -0.151756
     18          6           0       -3.035909   -0.144402    0.011978
     19          6           0       -4.176737    0.514598   -0.443566
     20          6           0       -4.015635    1.744140   -1.089182
     21          1           0       -2.624680    3.246214   -1.771339
     22          1           0       -0.623520    2.026890   -0.938251
     23          1           0       -0.897922   -0.177972    0.220788
     24          1           0       -5.152125    0.068686   -0.291252
     25          1           0       -4.891598    2.274353   -1.451960
     26          7           0       -3.193869   -1.446794    0.696979
     27          8           0       -4.335670   -1.882172    0.828788
     28          8           0       -2.172886   -2.007569    1.089102
 ---------------------------------------------------------------------

 SCF Done:  E(RHF) =  -868.339063458     A.U. after   16 cycles
 E2 =    -0.2600038300D+01 EUMP2 =    -0.87093910175711D+03

 The electronic state is 1-A.
 Alpha  occ. eigenvalues --  -20.61200 -20.61195 -20.60956 -20.60922 -15.86242
 Alpha  occ. eigenvalues --  -15.85986 -11.31547 -11.31154 -11.28074 -11.28015
 Alpha  occ. eigenvalues --  -11.27730 -11.27704 -11.27700 -11.27394 -11.27077
 Alpha  occ. eigenvalues --  -11.26970 -11.26686 -11.26637  -1.60284  -1.60008
 Alpha  occ. eigenvalues --   -1.39835  -1.39573  -1.19683  -1.19306  -1.09082
 Alpha  occ. eigenvalues --   -1.08735  -1.05048  -1.04676  -0.95932  -0.95606
 Alpha  occ. eigenvalues --   -0.86449  -0.86090  -0.82741  -0.82448  -0.77835
 Alpha  occ. eigenvalues --   -0.77510  -0.72447  -0.72218  -0.71627  -0.71318
 Alpha  occ. eigenvalues --   -0.70780  -0.70403  -0.65309  -0.65027  -0.64962
 Alpha  occ. eigenvalues --   -0.64669  -0.62442  -0.61965  -0.55527  -0.55189
 Alpha  occ. eigenvalues --   -0.53417  -0.53124  -0.53012  -0.52724  -0.49218
 Alpha  occ. eigenvalues --   -0.49204  -0.48982  -0.48940  -0.45249  -0.45020
 Alpha  occ. eigenvalues --   -0.37655  -0.37273  -0.36660  -0.36254
 Alpha virt. eigenvalues --    0.04620   0.05007   0.10878   0.11384   0.16186
 Alpha virt. eigenvalues --    0.16552   0.20528   0.21891   0.25706   0.27565
 Alpha virt. eigenvalues --    0.27869   0.29164   0.30949   0.31115   0.31732

 Mulliken charges:
               1
     1  C   -0.171209
     2  C   -0.219586
     3  C   -0.185079
     4  C    0.156968
     5  C   -0.172902
     6  C   -0.217765
     7  H    0.228100
     8  H    0.235183
     9  H    0.283400
    10  H    0.275371
    11  H    0.224440
    12  N    0.486373
    13  O   -0.459977
    14  O   -0.460190
    15  C   -0.170303
    16  C   -0.218650
    17  C   -0.169012
    18  C    0.157361
    19  C   -0.170408
    20  C   -0.218889
    21  H    0.226738
    22  H    0.226326
    23  H    0.273668
    24  H    0.274984
    25  H    0.223392
    26  N    0.488673
    27  O   -0.458550
    28  O   -0.468458
 Sum of Mulliken charges =  -0.00000

 Dipole moment (field-independent basis, Debye):
    X=              1.0845    Y=              0.5623    Z=             -5.8032  Tot=              5.9304
 Quadrupole moment (field-independent basis, Debye-Ang):
   XX=            -97.5876   YY=           -106.6747   ZZ=           -106.8086
   XY=            -24.9467   XZ=             -3.9519   YZ=             -2.2113

 Normal termination of Gaussian 16 at Wed May  5 21:15:48 2021.
