 Gaussian 16, Revision A.03,
 Gaussian 16:  EM64L-G16RevA.03 25-Dec-2016

 -------------
 #p 6-31g* mp2
 -------------

 ------------------------------------------------------
 Input file generated by CHIRIPA (05-May-2021 14:55:21)
 ------------------------------------------------------
 Symbolic Z-matrix:
 Charge =  0 Multiplicity = 1

                         Standard orientation:
 ---------------------------------------------------------------------
 Center     Atomic      Atomic             Coordinates (Angstroms)
 Number     Number       Type             X           Y           Z
 ---------------------------------------------------------------------
      1          6           0       -5.018764    1.889600   -0.338704
      2          6           0       -4.371820    1.764190    0.895093
      3          6           0       -3.486026    0.707981    1.128205
      4          6           0       -3.269562   -0.208859    0.100665
      5          6           0       -3.898935   -0.110976   -1.139334
      6          6           0       -4.780677    0.953268   -1.350197
      7          1           0       -5.705296    2.713210   -0.511149
      8          1           0       -4.554803    2.489873    1.682460
      9          1           0       -2.971777    0.587009    2.073896
     10          1           0       -3.696308   -0.850016   -1.904958
     11          1           0       -5.281697    1.048161   -2.309373
     12          7           0       -2.333956   -1.331273    0.335673
     13          8           0       -2.160322   -2.125804   -0.585852
     14          8           0       -1.791979   -1.395238    1.436948
     15          6           0        5.048414    0.152169   -0.432949
     16          6           0        6.074203    0.877558    0.438574
     17          6           0        7.401441    1.113589   -0.282902
     18          1           0        5.467366   -0.810277   -0.757175
     19          1           0        4.871786    0.739263   -1.344826
     20          1           0        6.247811    0.289956    1.349178
     21          1           0        5.652688    1.838304    0.760919
     22          1           0        7.248764    1.719278   -1.182029
     23          1           0        7.847269    0.162134   -0.590427
     24          1           0        8.120064    1.633429    0.358353
     25          6           0        3.716414   -0.091058    0.274400
     26          6           0        2.690624   -0.816446   -0.597122
     27          6           0        1.363386   -1.052477    0.124352
     28          1           0        3.893042   -0.678152    1.186276
     29          1           0        3.297461    0.871388    0.598625
     30          1           0        3.112140   -1.777193   -0.919468
     31          1           0        2.517016   -0.228845   -1.507727
     32          1           0        0.917558   -0.101021    0.431878
     33          1           0        1.516064   -1.658167    1.023479
     34          1           0        0.644763   -1.572317   -0.516901
 ---------------------------------------------------------------------

 SCF Done:  E(RHF) =  -669.536128462     A.U. after   15 cycles
 E2 =    -0.2091913207D+01 EUMP2 =    -0.67162804166866D+03

 The electronic state is 1-A.
 Alpha  occ. eigenvalues --  -20.60936 -20.60905 -15.85916 -11.31269 -11.27831
 Alpha  occ. eigenvalues --  -11.27828 -11.27573 -11.26842 -11.26833 -11.21137
 Alpha  occ. eigenvalues --  -11.20788 -11.20698 -11.20609 -11.20532 -11.19518
 Alpha  occ. eigenvalues --   -1.59956  -1.39515  -1.19436  -1.08836  -1.07712
 Alpha  occ. eigenvalues --   -1.04835  -1.02718  -0.95681  -0.95131  -0.86234
 Alpha  occ. eigenvalues --   -0.86145  -0.82512  -0.78813  -0.77564  -0.77500
 Alpha  occ. eigenvalues --   -0.72148  -0.71261  -0.70546  -0.65091  -0.64838
 Alpha  occ. eigenvalues --   -0.64358  -0.62182  -0.60131  -0.58560  -0.56739
 Alpha  occ. eigenvalues --   -0.55340  -0.54442  -0.53174  -0.52927  -0.51793
 Alpha  occ. eigenvalues --   -0.51565  -0.49114  -0.48910  -0.48862  -0.47130
 Alpha  occ. eigenvalues --   -0.45882  -0.45151  -0.44962  -0.44735  -0.42929
 Alpha  occ. eigenvalues --   -0.37411  -0.36436
 Alpha virt. eigenvalues --    0.04928   0.11217   0.16412   0.21350   0.23515
 Alpha virt. eigenvalues --    0.25168   0.27255   0.27319   0.28126   0.28200
 Alpha virt. eigenvalues --    0.28944   0.30912   0.32111   0.32368   0.32510

 Mulliken charges:
               1
     1  C   -0.170632
     2  C   -0.218619
     3  C   -0.171034
     4  C    0.159967
     5  C   -0.170876
     6  C   -0.218595
     7  H    0.225884
     8  H    0.223739
     9  H    0.275945
    10  H    0.275725
    11  H    0.223722
    12  N    0.488640
    13  O   -0.460489
    14  O   -0.456204
    15  C   -0.297321
    16  C   -0.298941
    17  C   -0.475239
    18  H    0.149204
    19  H    0.147416
    20  H    0.151766
    21  H    0.150303
    22  H    0.154032
    23  H    0.154963
    24  H    0.158617
    25  C   -0.296862
    26  C   -0.301567
    27  C   -0.477115
    28  H    0.149578
    29  H    0.146365
    30  H    0.150492
    31  H    0.145921
    32  H    0.144746
    33  H    0.160423
    34  H    0.176043
 Sum of Mulliken charges =  -0.00000

 Dipole moment (field-independent basis, Debye):
    X=             -3.6108    Y=              3.8343    Z=             -0.7647  Tot=              5.3221
 Quadrupole moment (field-independent basis, Debye-Ang):
   XX=            -75.6284   YY=            -95.5981   ZZ=            -90.7849
   XY=            -13.0290   XZ=              3.9821   YZ=              2.0921

 Normal termination of Gaussian 16 at Wed May  5 20:36:32 2021.
