 Gaussian 16, Revision A.03,
 Gaussian 16:  EM64L-G16RevA.03 25-Dec-2016

 -------------
 #p 6-31g* mp2
 -------------

 ------------------------------------------------------
 Input file generated by CHIRIPA (05-May-2021 14:51:07)
 ------------------------------------------------------
 Symbolic Z-matrix:
 Charge =  0 Multiplicity = 1

                         Standard orientation:
 ---------------------------------------------------------------------
 Center     Atomic      Atomic             Coordinates (Angstroms)
 Number     Number       Type             X           Y           Z
 ---------------------------------------------------------------------
      1          6           0        3.618242    0.220205   -0.302552
      2          6           0        5.010612    0.774650    0.000570
      3          6           0        5.757777    1.216690   -1.258056
      4          1           0        3.711123   -0.629320   -0.992932
      5          1           0        3.032152    0.987100   -0.827686
      6          1           0        5.593440    0.007423    0.526203
      7          1           0        4.914421    1.622834    0.690459
      8          1           0        5.200263    1.999829   -1.781957
      9          1           0        5.883140    0.375240   -1.947147
     10          1           0        6.750717    1.609681   -1.018292
     11          6           0        2.858866   -0.225910    0.945669
     12          6           0        1.466496   -0.780354    0.642547
     13          6           0        0.719331   -1.222394    1.901173
     14          1           0        3.444956   -0.992805    1.470803
     15          1           0        2.765985    0.623616    1.636049
     16          1           0        1.562687   -1.628538   -0.047342
     17          1           0        0.883668   -0.013127    0.116914
     18          1           0        0.593968   -0.380944    2.590264
     19          1           0        1.276845   -2.005533    2.425075
     20          1           0       -0.273609   -1.615386    1.661409
     21          6           0       -2.667171   -0.461281   -0.525355
     22          6           0       -3.063449   -1.937939   -0.546061
     23          6           0       -1.909760   -2.853927   -0.955645
     24          1           0       -2.302969   -0.171949   -1.520639
     25          1           0       -1.825366   -0.324420    0.167487
     26          1           0       -3.905155   -2.071746   -1.237613
     27          1           0       -3.426929   -2.223739    0.449336
     28          1           0       -1.069964   -2.749850   -0.261014
     29          1           0       -1.550907   -2.596993   -1.957549
     30          1           0       -2.215046   -3.904924   -0.963795
     31          6           0       -3.809938    0.466985   -0.117762
     32          6           0       -3.413658    1.943643   -0.097056
     33          6           0       -4.567347    2.859632    0.312528
     34          1           0       -4.651741    0.330124   -0.810604
     35          1           0       -4.174139    0.177654    0.877522
     36          1           0       -3.050178    2.229443   -1.092454
     37          1           0       -2.571953    2.077451    0.594495
     38          1           0       -4.926201    2.602698    1.314432
     39          1           0       -5.407143    2.755554   -0.382104
     40          1           0       -4.262062    3.910629    0.320677
 ---------------------------------------------------------------------

 SCF Done:  E(RHF) =  -470.732595770     A.U. after   11 cycles
 E2 =    -0.1583921420D+01 EUMP2 =    -0.47231651719021D+03

 The electronic state is 1-A.
 Alpha  occ. eigenvalues --  -11.21612 -11.21606 -11.21604 -11.21591 -11.21416
 Alpha  occ. eigenvalues --  -11.21380 -11.21355 -11.21313 -11.21123 -11.21074
 Alpha  occ. eigenvalues --  -11.21072 -11.21021  -1.08465  -1.08402  -1.03596
 Alpha  occ. eigenvalues --   -1.03487  -0.96023  -0.95959  -0.87030  -0.86983
 Alpha  occ. eigenvalues --   -0.79631  -0.79570  -0.78322  -0.78168  -0.65128
 Alpha  occ. eigenvalues --   -0.65039  -0.61029  -0.60958  -0.59505  -0.59186
 Alpha  occ. eigenvalues --   -0.57679  -0.57503  -0.55391  -0.55163  -0.52734
 Alpha  occ. eigenvalues --   -0.52655  -0.52463  -0.52361  -0.49949  -0.49906
 Alpha  occ. eigenvalues --   -0.47940  -0.47883  -0.46649  -0.46593  -0.45895
 Alpha  occ. eigenvalues --   -0.45746  -0.45716  -0.45540  -0.43800  -0.43769
 Alpha virt. eigenvalues --    0.20734   0.23118   0.23574   0.24805   0.26093
 Alpha virt. eigenvalues --    0.26578   0.26883   0.27625   0.27804   0.29500
 Alpha virt. eigenvalues --    0.30607   0.31341   0.31418   0.31706   0.31957

 Mulliken charges:
               1
     1  C   -0.298380
     2  C   -0.299679
     3  C   -0.475724
     4  H    0.149864
     5  H    0.149737
     6  H    0.151937
     7  H    0.151913
     8  H    0.155207
     9  H    0.155228
    10  H    0.160258
    11  C   -0.298174
    12  C   -0.303098
    13  C   -0.482068
    14  H    0.149584
    15  H    0.149575
    16  H    0.153450
    17  H    0.154757
    18  H    0.155185
    19  H    0.155973
    20  H    0.164026
    21  C   -0.306701
    22  C   -0.299591
    23  C   -0.482601
    24  H    0.149444
    25  H    0.158709
    26  H    0.152122
    27  H    0.151326
    28  H    0.162475
    29  H    0.155317
    30  H    0.159986
    31  C   -0.297727
    32  C   -0.299675
    33  C   -0.475668
    34  H    0.149494
    35  H    0.149568
    36  H    0.151779
    37  H    0.151533
    38  H    0.155267
    39  H    0.155260
    40  H    0.160114
 Sum of Mulliken charges =  -0.00000

 Dipole moment (field-independent basis, Debye):
    X=              0.0253    Y=              0.0021    Z=             -0.0008  Tot=              0.0254
 Quadrupole moment (field-independent basis, Debye-Ang):
   XX=            -85.6159   YY=            -84.6877   ZZ=            -84.5817
   XY=             -0.1057   XZ=              0.9408   YZ=              0.0640

 Normal termination of Gaussian 16 at Wed May  5 21:15:44 2021.
