 Gaussian 16, Revision A.03,
 Gaussian 16:  EM64L-G16RevA.03 25-Dec-2016

 -------------
 #p 6-31g* mp2
 -------------

 ------------------------------------------------------
 Input file generated by CHIRIPA (05-May-2021 14:53:13)
 ------------------------------------------------------
 Symbolic Z-matrix:
 Charge =  0 Multiplicity = 1

                         Standard orientation:
 ---------------------------------------------------------------------
 Center     Atomic      Atomic             Coordinates (Angstroms)
 Number     Number       Type             X           Y           Z
 ---------------------------------------------------------------------
      1          6           0       -4.474197   -0.574203    0.046702
      2          6           0       -5.923786   -0.166056    0.311452
      3          6           0       -6.776163   -1.320735    0.838673
      4          1           0       -4.459102   -1.402312   -0.675068
      5          1           0       -4.034075   -0.961515    0.976044
      6          1           0       -6.360618    0.221660   -0.617779
      7          1           0       -5.935422    0.661306    1.032530
      8          1           0       -6.366731   -1.703726    1.779036
      9          1           0       -6.794343   -2.145869    0.119351
     10          1           0       -7.808671   -1.006864    1.021079
     11          6           0       -3.609512    0.569410   -0.480741
     12          6           0       -2.159923    0.161263   -0.745491
     13          6           0       -1.307545    1.315943   -1.272712
     14          1           0       -4.049634    0.956722   -1.410084
     15          1           0       -3.624606    1.397520    0.241029
     16          1           0       -2.148287   -0.666099   -1.466570
     17          1           0       -1.723091   -0.226453    0.183740
     18          1           0       -1.289366    2.141077   -0.553390
     19          1           0       -1.716978    1.698933   -2.213076
     20          1           0       -0.275037    1.002071   -1.455118
     21          6           0        2.162846    2.249335    0.739726
     22          6           0        2.633795    1.413682    1.757770
     23          6           0        3.186960    0.166295    1.453497
     24          6           0        3.253878   -0.215404    0.114424
     25          6           0        2.793219    0.594736   -0.922281
     26          6           0        2.243917    1.837920   -0.594698
     27          1           0        1.734634    3.216701    0.985146
     28          1           0        2.572115    1.730584    2.794984
     29          1           0        3.559107   -0.500440    2.221865
     30          1           0        2.868210    0.251347   -1.946917
     31          1           0        1.878964    2.484822   -1.387396
     32          7           0        3.837444   -1.533732   -0.220035
     33          8           0        3.884996   -1.846804   -1.407622
     34          8           0        4.236240   -2.229003    0.711736
 ---------------------------------------------------------------------

 SCF Done:  E(RHF) =  -669.534543543     A.U. after   15 cycles
 E2 =    -0.2092308574D+01 EUMP2 =    -0.67162685211709D+03

 The electronic state is 1-A.
 Alpha  occ. eigenvalues --  -20.60788 -20.60783 -15.85842 -11.31228 -11.27770
 Alpha  occ. eigenvalues --  -11.27765 -11.27503 -11.26815 -11.26781 -11.21887
 Alpha  occ. eigenvalues --  -11.21779 -11.21655 -11.21555 -11.21478 -11.21202
 Alpha  occ. eigenvalues --   -1.59863  -1.39416  -1.19396  -1.08787  -1.08665
 Alpha  occ. eigenvalues --   -1.04811  -1.03781  -0.96252  -0.95615  -0.87290
 Alpha  occ. eigenvalues --   -0.86184  -0.82453  -0.79855  -0.78472  -0.77496
 Alpha  occ. eigenvalues --   -0.72059  -0.71186  -0.70488  -0.65300  -0.65045
 Alpha  occ. eigenvalues --   -0.64808  -0.62162  -0.61183  -0.59642  -0.57866
 Alpha  occ. eigenvalues --   -0.55553  -0.55288  -0.53487  -0.52929  -0.52720
 Alpha  occ. eigenvalues --   -0.52482  -0.50192  -0.48819  -0.48813  -0.48166
 Alpha  occ. eigenvalues --   -0.46877  -0.46019  -0.45936  -0.44818  -0.44054
 Alpha  occ. eigenvalues --   -0.37346  -0.36317
 Alpha virt. eigenvalues --    0.05001   0.11238   0.16416   0.21084   0.22665
 Alpha virt. eigenvalues --    0.24145   0.26373   0.26643   0.27184   0.27943
 Alpha virt. eigenvalues --    0.28443   0.30570   0.31241   0.31631   0.32284

 Mulliken charges:
               1
     1  C   -0.298589
     2  C   -0.299692
     3  C   -0.475840
     4  H    0.151276
     5  H    0.149937
     6  H    0.152019
     7  H    0.151024
     8  H    0.155455
     9  H    0.156133
    10  H    0.160440
    11  C   -0.298434
    12  C   -0.299025
    13  C   -0.479540
    14  H    0.149578
    15  H    0.147566
    16  H    0.154855
    17  H    0.153656
    18  H    0.147961
    19  H    0.153524
    20  H    0.163364
    21  C   -0.171106
    22  C   -0.218523
    23  C   -0.171530
    24  C    0.159473
    25  C   -0.173317
    26  C   -0.215383
    27  H    0.225749
    28  H    0.223518
    29  H    0.275612
    30  H    0.275851
    31  H    0.226463
    32  N    0.488082
    33  O   -0.460273
    34  O   -0.460281
 Sum of Mulliken charges =  -0.00000

 Dipole moment (field-independent basis, Debye):
    X=             -2.0480    Y=              4.6102    Z=              1.2003  Tot=              5.1855
 Quadrupole moment (field-independent basis, Debye-Ang):
   XX=           -109.2828   YY=            -97.7964   ZZ=            -89.0398
   XY=             15.2891   XZ=              5.0449   YZ=             -0.0731

 Normal termination of Gaussian 16 at Thu May  6 12:04:16 2021.
