 Gaussian 16, Revision A.03,
 Gaussian 16:  EM64L-G16RevA.03 25-Dec-2016

 -------------
 #p 6-31g* mp2
 -------------

 ------------------------------------------------------
 Input file generated by CHIRIPA (05-May-2021 14:55:21)
 ------------------------------------------------------
 Symbolic Z-matrix:
 Charge =  0 Multiplicity = 1

                         Standard orientation:
 ---------------------------------------------------------------------
 Center     Atomic      Atomic             Coordinates (Angstroms)
 Number     Number       Type             X           Y           Z
 ---------------------------------------------------------------------
      1          6           0       -2.299919    2.213668   -0.488888
      2          6           0       -3.553223    2.206028    0.132152
      3          6           0       -4.244544    1.005690    0.321393
      4          6           0       -3.650338   -0.173804   -0.124704
      5          6           0       -2.403129   -0.198822   -0.746904
      6          6           0       -1.729877    1.013335   -0.925664
      7          1           0       -1.769902    3.150710   -0.631824
      8          1           0       -3.998354    3.136704    0.472368
      9          1           0       -5.216124    0.970985    0.799143
     10          1           0       -1.984991   -1.142574   -1.075401
     11          1           0       -0.756682    1.016251   -1.408290
     12          7           0       -4.372645   -1.450805    0.070089
     13          8           0       -3.827544   -2.476424   -0.331913
     14          8           0       -5.470212   -1.401917    0.621082
     15          6           0        5.090615   -0.532157    0.050897
     16          6           0        6.450112    0.154155   -0.085963
     17          6           0        7.581497   -0.829696   -0.385630
     18          1           0        5.145506   -1.284381    0.849703
     19          1           0        4.867748   -1.077127   -0.876860
     20          1           0        6.669720    0.698806    0.841260
     21          1           0        6.391923    0.904966   -0.884407
     22          1           0        7.389018   -1.364772   -1.321177
     23          1           0        7.668393   -1.572103    0.414295
     24          1           0        8.544321   -0.317816   -0.479473
     25          6           0        3.949496    0.438305    0.350532
     26          6           0        2.590000   -0.248006    0.487391
     27          6           0        1.458615    0.735845    0.787060
     28          1           0        4.172363    0.983275    1.278288
     29          1           0        3.894605    1.190529   -0.448274
     30          1           0        2.648189   -0.998818    1.285835
     31          1           0        2.370391   -0.792658   -0.439832
     32          1           0        1.371718    1.478252   -0.012867
     33          1           0        1.651093    1.270920    1.722606
     34          1           0        0.495790    0.223964    0.880901
 ---------------------------------------------------------------------

 SCF Done:  E(RHF) =  -669.534747862     A.U. after   15 cycles
 E2 =    -0.2091851595D+01 EUMP2 =    -0.67162659945784D+03

 The electronic state is 1-A.
 Alpha  occ. eigenvalues --  -20.60753 -20.60748 -15.85805 -11.31174 -11.27717
 Alpha  occ. eigenvalues --  -11.27711 -11.27446 -11.26754 -11.26705 -11.22171
 Alpha  occ. eigenvalues --  -11.21926 -11.21875 -11.21746 -11.21742 -11.21327
 Alpha  occ. eigenvalues --   -1.59828  -1.39381  -1.19337  -1.08882  -1.08728
 Alpha  occ. eigenvalues --   -1.04746  -1.03991  -0.96453  -0.95565  -0.87484
 Alpha  occ. eigenvalues --   -0.86123  -0.82399  -0.80062  -0.78676  -0.77447
 Alpha  occ. eigenvalues --   -0.72023  -0.71151  -0.70434  -0.65533  -0.64986
 Alpha  occ. eigenvalues --   -0.64748  -0.62137  -0.61362  -0.59818  -0.58052
 Alpha  occ. eigenvalues --   -0.55775  -0.55217  -0.53446  -0.52953  -0.52813
 Alpha  occ. eigenvalues --   -0.52673  -0.50380  -0.48780  -0.48778  -0.48373
 Alpha  occ. eigenvalues --   -0.47094  -0.46221  -0.46138  -0.44787  -0.44238
 Alpha  occ. eigenvalues --   -0.37297  -0.36286
 Alpha virt. eigenvalues --    0.05061   0.11295   0.16515   0.20412   0.22641
 Alpha virt. eigenvalues --    0.23929   0.25937   0.26675   0.27030   0.28091
 Alpha virt. eigenvalues --    0.28816   0.30261   0.31150   0.31402   0.31781

 Mulliken charges:
               1
     1  C   -0.172335
     2  C   -0.218178
     3  C   -0.171567
     4  C    0.159073
     5  C   -0.174817
     6  C   -0.213949
     7  H    0.225534
     8  H    0.223386
     9  H    0.275424
    10  H    0.275464
    11  H    0.227389
    12  N    0.488048
    13  O   -0.460489
    14  O   -0.460417
    15  C   -0.298640
    16  C   -0.299867
    17  C   -0.475958
    18  H    0.151472
    19  H    0.149749
    20  H    0.152377
    21  H    0.151331
    22  H    0.155584
    23  H    0.156175
    24  H    0.160972
    25  C   -0.298226
    26  C   -0.300305
    27  C   -0.480051
    28  H    0.150777
    29  H    0.147383
    30  H    0.156620
    31  H    0.149169
    32  H    0.143300
    33  H    0.158449
    34  H    0.167126
 Sum of Mulliken charges =  -0.00000

 Dipole moment (field-independent basis, Debye):
    X=              2.6302    Y=              4.4841    Z=             -0.6292  Tot=              5.2365
 Quadrupole moment (field-independent basis, Debye-Ang):
   XX=           -111.3520   YY=            -95.9680   ZZ=            -93.3053
   XY=            -18.8255   XZ=              0.7940   YZ=              0.5391

 Normal termination of Gaussian 16 at Thu May  6 07:44:17 2021.
