 Gaussian 16, Revision A.03,
 Gaussian 16:  EM64L-G16RevA.03 25-Dec-2016

 -------------
 #p 6-31g* mp2
 -------------

 ------------------------------------------------------
 Input file generated by CHIRIPA (05-May-2021 14:55:23)
 ------------------------------------------------------
 Symbolic Z-matrix:
 Charge =  0 Multiplicity = 1

                         Standard orientation:
 ---------------------------------------------------------------------
 Center     Atomic      Atomic             Coordinates (Angstroms)
 Number     Number       Type             X           Y           Z
 ---------------------------------------------------------------------
      1          6           0        4.411903    0.702871    1.230079
      2          6           0        3.092431    0.877164    1.660353
      3          6           0        2.031569    0.317827    0.941839
      4          6           0        2.327724   -0.413156   -0.207616
      5          6           0        3.631696   -0.604477   -0.661865
      6          6           0        4.676858   -0.036090    0.072385
      7          1           0        5.229908    1.140892    1.794350
      8          1           0        2.883688    1.450564    2.559065
      9          1           0        1.000680    0.437168    1.252392
     10          1           0        3.808426   -1.181199   -1.561629
     11          1           0        5.700592   -0.173083   -0.264135
     12          7           0        1.212947   -1.010091   -0.976604
     13          8           0        1.500332   -1.649757   -1.985997
     14          8           0        0.072909   -0.826999   -0.555383
     15          6           0       -3.480123   -0.295544   -0.054976
     16          6           0       -3.686770   -1.162130    1.187726
     17          6           0       -4.218178   -2.556502    0.854373
     18          1           0       -4.432739   -0.207013   -0.595005
     19          1           0       -2.781349   -0.802396   -0.734838
     20          1           0       -4.383874   -0.653150    1.865666
     21          1           0       -2.733595   -1.248450    1.724961
     22          1           0       -3.521810   -3.087179    0.197065
     23          1           0       -5.181466   -2.488498    0.338569
     24          1           0       -4.358562   -3.159060    1.757190
     25          6           0       -2.949194    1.101364    0.262025
     26          6           0       -2.742548    1.967950   -0.980679
     27          6           0       -2.211138    3.362323   -0.647326
     28          1           0       -3.647968    1.608217    0.941885
     29          1           0       -1.996578    1.012833    0.802053
     30          1           0       -3.695723    2.054270   -1.517914
     31          1           0       -2.045443    1.458971   -1.658618
     32          1           0       -1.247852    3.294318   -0.131521
     33          1           0       -2.907507    3.892999    0.009982
     34          1           0       -2.070755    3.964880   -1.550143
 ---------------------------------------------------------------------

 SCF Done:  E(RHF) =  -669.536461877     A.U. after   15 cycles
 E2 =    -0.2092249673D+01 EUMP2 =    -0.67162871154973D+03

 The electronic state is 1-A.
 Alpha  occ. eigenvalues --  -20.61089 -20.61083 -15.86112 -11.31373 -11.27932
 Alpha  occ. eigenvalues --  -11.27924 -11.27653 -11.26922 -11.26913 -11.20669
 Alpha  occ. eigenvalues --  -11.20569 -11.20525 -11.20391 -11.20113 -11.20010
 Alpha  occ. eigenvalues --   -1.60143  -1.39702  -1.19535  -1.08951  -1.07355
 Alpha  occ. eigenvalues --   -1.04923  -1.02604  -0.95806  -0.95060  -0.86326
 Alpha  occ. eigenvalues --   -0.86088  -0.82641  -0.78670  -0.77702  -0.77164
 Alpha  occ. eigenvalues --   -0.72360  -0.71449  -0.70645  -0.65209  -0.64925
 Alpha  occ. eigenvalues --   -0.63898  -0.62272  -0.59991  -0.58453  -0.56686
 Alpha  occ. eigenvalues --   -0.55429  -0.54332  -0.53256  -0.53015  -0.51816
 Alpha  occ. eigenvalues --   -0.51512  -0.49213  -0.49081  -0.48906  -0.47008
 Alpha  occ. eigenvalues --   -0.45675  -0.45128  -0.44744  -0.44486  -0.42807
 Alpha  occ. eigenvalues --   -0.37509  -0.36520
 Alpha virt. eigenvalues --    0.04807   0.11128   0.16308   0.20421   0.23187
 Alpha virt. eigenvalues --    0.25053   0.25878   0.27478   0.28374   0.28829
 Alpha virt. eigenvalues --    0.29259   0.31227   0.31912   0.32461   0.32830

 Mulliken charges:
               1
     1  C   -0.170185
     2  C   -0.219226
     3  C   -0.172070
     4  C    0.156992
     5  C   -0.170095
     6  C   -0.218691
     7  H    0.226400
     8  H    0.224591
     9  H    0.278122
    10  H    0.275972
    11  H    0.224119
    12  N    0.493756
    13  O   -0.457986
    14  O   -0.466868
    15  C   -0.304766
    16  C   -0.297712
    17  C   -0.476327
    18  H    0.142728
    19  H    0.176720
    20  H    0.145024
    21  H    0.151118
    22  H    0.161402
    23  H    0.152245
    24  H    0.154946
    25  C   -0.294439
    26  C   -0.302114
    27  C   -0.474072
    28  H    0.141749
    29  H    0.147813
    30  H    0.149022
    31  H    0.163401
    32  H    0.148136
    33  H    0.152161
    34  H    0.158135
 Sum of Mulliken charges =  -0.00000

 Dipole moment (field-independent basis, Debye):
    X=              4.2536    Y=              1.9198    Z=              2.5325  Tot=              5.3096
 Quadrupole moment (field-independent basis, Debye-Ang):
   XX=            -74.7708   YY=            -98.1229   ZZ=            -94.2470
   XY=              1.5233   XZ=              3.6352   YZ=              0.1003

 Normal termination of Gaussian 16 at Thu May  6 03:06:28 2021.
