 Gaussian 16, Revision A.03,
 Gaussian 16:  EM64L-G16RevA.03 25-Dec-2016

 -------------
 #p 6-31g* mp2
 -------------

 ------------------------------------------------------
 Input file generated by CHIRIPA (05-May-2021 14:51:12)
 ------------------------------------------------------
 Symbolic Z-matrix:
 Charge =  0 Multiplicity = 1

                         Standard orientation:
 ---------------------------------------------------------------------
 Center     Atomic      Atomic             Coordinates (Angstroms)
 Number     Number       Type             X           Y           Z
 ---------------------------------------------------------------------
      1          6           0       -2.435538    0.309205   -0.448476
      2          6           0       -3.335002    1.496535   -0.103225
      3          6           0       -3.128854    2.686613   -1.040781
      4          1           0       -1.385411    0.629784   -0.410940
      5          1           0       -2.630873   -0.000798   -1.484399
      6          1           0       -3.139016    1.803326    0.932190
      7          1           0       -4.383101    1.173044   -0.141399
      8          1           0       -3.343712    2.403077   -2.076177
      9          1           0       -2.092558    3.036940   -0.996487
     10          1           0       -3.781726    3.524152   -0.775928
     11          6           0       -2.630043   -0.888272    0.479933
     12          6           0       -1.730579   -2.075602    0.134681
     13          6           0       -1.936728   -3.265680    1.072237
     14          1           0       -2.434708   -0.578269    1.515856
     15          1           0       -3.680170   -1.208851    0.442397
     16          1           0       -0.682480   -1.752111    0.172856
     17          1           0       -1.926566   -2.382393   -0.900734
     18          1           0       -2.973024   -3.616007    1.027944
     19          1           0       -1.721869   -2.982144    2.107633
     20          1           0       -1.283856   -4.103219    0.807385
     21          6           0        2.113325    0.877356    0.233159
     22          6           0        2.917030    2.167061    0.402585
     23          6           0        2.064048    3.333981    0.901095
     24          1           0        1.288153    1.056700   -0.469602
     25          1           0        1.652768    0.611560    1.194738
     26          1           0        3.377064    2.429595   -0.558694
     27          1           0        3.740498    1.984573    1.104877
     28          1           0        1.616555    3.096976    1.871754
     29          1           0        1.251056    3.544527    0.198730
     30          1           0        2.658518    4.245824    1.015151
     31          6           0        2.952257   -0.298289   -0.264615
     32          6           0        2.148552   -1.587993   -0.434042
     33          6           0        3.001533   -2.754914   -0.932552
     34          1           0        3.412814   -0.032493   -1.226195
     35          1           0        3.777428   -0.477633    0.438146
     36          1           0        1.325083   -1.405506   -1.136334
     37          1           0        1.688517   -1.850528    0.527238
     38          1           0        3.814525   -2.965460   -0.230186
     39          1           0        3.449026   -2.517910   -1.903211
     40          1           0        2.407063   -3.666757   -1.046607
 ---------------------------------------------------------------------

 SCF Done:  E(RHF) =  -470.732453787     A.U. after   11 cycles
 E2 =    -0.1584545602D+01 EUMP2 =    -0.47231699938929D+03

 The electronic state is 1-A.
 Alpha  occ. eigenvalues --  -11.21682 -11.21642 -11.21558 -11.21498 -11.21428
 Alpha  occ. eigenvalues --  -11.21390 -11.21323 -11.21259 -11.21149 -11.21114
 Alpha  occ. eigenvalues --  -11.21057 -11.20999  -1.08528  -1.08341  -1.03619
 Alpha  occ. eigenvalues --   -1.03442  -0.96053  -0.95914  -0.87075  -0.86927
 Alpha  occ. eigenvalues --   -0.79811  -0.79424  -0.78496  -0.78008  -0.65151
 Alpha  occ. eigenvalues --   -0.64980  -0.60998  -0.60886  -0.59487  -0.59219
 Alpha  occ. eigenvalues --   -0.57731  -0.57458  -0.55345  -0.55201  -0.52752
 Alpha  occ. eigenvalues --   -0.52603  -0.52515  -0.52310  -0.50005  -0.49859
 Alpha  occ. eigenvalues --   -0.48318  -0.47638  -0.46708  -0.46578  -0.46372
 Alpha  occ. eigenvalues --   -0.45760  -0.45656  -0.44969  -0.43850  -0.43697
 Alpha virt. eigenvalues --    0.20747   0.22600   0.23559   0.24588   0.25103
 Alpha virt. eigenvalues --    0.26367   0.26675   0.27210   0.28659   0.29994
 Alpha virt. eigenvalues --    0.30873   0.31442   0.31587   0.31744   0.32142

 Mulliken charges:
               1
     1  C   -0.304190
     2  C   -0.299163
     3  C   -0.475799
     4  H    0.154887
     5  H    0.148692
     6  H    0.152093
     7  H    0.151894
     8  H    0.154935
     9  H    0.154503
    10  H    0.160351
    11  C   -0.296807
    12  C   -0.310778
    13  C   -0.475270
    14  H    0.148657
    15  H    0.148893
    16  H    0.166133
    17  H    0.149954
    18  H    0.154839
    19  H    0.154128
    20  H    0.159421
    21  C   -0.303738
    22  C   -0.299325
    23  C   -0.476076
    24  H    0.153852
    25  H    0.149100
    26  H    0.152378
    27  H    0.152394
    28  H    0.155191
    29  H    0.154919
    30  H    0.160881
    31  C   -0.297337
    32  C   -0.305598
    33  C   -0.475065
    34  H    0.149787
    35  H    0.149811
    36  H    0.156420
    37  H    0.153887
    38  H    0.155191
    39  H    0.155335
    40  H    0.160622
 Sum of Mulliken charges =  -0.00000

 Dipole moment (field-independent basis, Debye):
    X=              0.0942    Y=              0.0110    Z=             -0.0112  Tot=              0.0955
 Quadrupole moment (field-independent basis, Debye-Ang):
   XX=            -84.5329   YY=            -86.4319   ZZ=            -83.9412
   XY=              0.5532   XZ=              0.8450   YZ=              0.2632

 Normal termination of Gaussian 16 at Thu May  6 05:30:44 2021.
