 Gaussian 16, Revision A.03,
 Gaussian 16:  EM64L-G16RevA.03 25-Dec-2016

 -------------
 #p 6-31g* mp2
 -------------

 ------------------------------------------------------
 Input file generated by CHIRIPA (05-May-2021 14:51:09)
 ------------------------------------------------------
 Symbolic Z-matrix:
 Charge =  0 Multiplicity = 1

                         Standard orientation:
 ---------------------------------------------------------------------
 Center     Atomic      Atomic             Coordinates (Angstroms)
 Number     Number       Type             X           Y           Z
 ---------------------------------------------------------------------
      1          6           0        2.985345   -0.213667   -0.293193
      2          6           0        4.324721   -0.652417   -0.886113
      3          6           0        4.466275   -2.172747   -0.965820
      4          1           0        2.876544   -0.646610    0.710633
      5          1           0        2.169596   -0.627378   -0.902121
      6          1           0        5.137720   -0.236857   -0.277050
      7          1           0        4.430430   -0.218224   -1.888569
      8          1           0        3.675579   -2.601058   -1.590280
      9          1           0        4.386887   -2.619797    0.030396
     10          1           0        5.431008   -2.464299   -1.392608
     11          6           0        2.828897    1.303508   -0.206987
     12          6           0        1.489521    1.742258    0.385933
     13          6           0        1.347967    3.262588    0.465639
     14          1           0        3.644646    1.717219    0.401941
     15          1           0        2.937698    1.736451   -1.210814
     16          1           0        1.383811    1.308064    1.388388
     17          1           0        0.676522    1.326698   -0.223131
     18          1           0        1.427355    3.709637   -0.530576
     19          1           0        2.138663    3.690898    1.090100
     20          1           0        0.383234    3.554139    0.892428
     21          6           0       -3.610063   -0.254447    0.179871
     22          6           0       -4.114844   -0.230381   -1.263251
     23          6           0       -5.522495    0.353467   -1.387488
     24          1           0       -4.306871   -0.839461    0.795632
     25          1           0       -3.620657    0.768176    0.581772
     26          1           0       -4.101992   -1.252555   -1.662764
     27          1           0       -3.416652    0.354484   -1.875686
     28          1           0       -5.547010    1.382552   -1.014682
     29          1           0       -6.236243   -0.233618   -0.800550
     30          1           0       -5.863596    0.361150   -2.427417
     31          6           0       -2.204180   -0.835394    0.320309
     32          6           0       -1.699397   -0.859460    1.763431
     33          6           0       -0.291747   -1.443308    1.887669
     34          1           0       -2.193584   -1.858017   -0.081592
     35          1           0       -1.507371   -0.250380   -0.295451
     36          1           0       -2.397590   -1.444325    2.375865
     37          1           0       -1.712250    0.162715    2.162944
     38          1           0        0.422002   -0.856223    1.300731
     39          1           0       -0.267231   -2.472392    1.514863
     40          1           0        0.049354   -1.450990    2.927598
 ---------------------------------------------------------------------

 SCF Done:  E(RHF) =  -470.732095833     A.U. after   11 cycles
 E2 =    -0.1584614391D+01 EUMP2 =    -0.47231671022376D+03

 The electronic state is 1-A.
 Alpha  occ. eigenvalues --  -11.21675 -11.21617 -11.21592 -11.21515 -11.21452
 Alpha  occ. eigenvalues --  -11.21381 -11.21370 -11.21309 -11.21141 -11.21066
 Alpha  occ. eigenvalues --  -11.21063 -11.20837  -1.08506  -1.08372  -1.03592
 Alpha  occ. eigenvalues --   -1.03455  -0.96027  -0.95915  -0.87041  -0.86940
 Alpha  occ. eigenvalues --   -0.79691  -0.79541  -0.78399  -0.78110  -0.65122
 Alpha  occ. eigenvalues --   -0.65021  -0.60987  -0.60892  -0.59391  -0.59274
 Alpha  occ. eigenvalues --   -0.57692  -0.57489  -0.55306  -0.55230  -0.52747
 Alpha  occ. eigenvalues --   -0.52612  -0.52464  -0.52312  -0.50000  -0.49876
 Alpha  occ. eigenvalues --   -0.48051  -0.47852  -0.46729  -0.46676  -0.46033
 Alpha  occ. eigenvalues --   -0.45730  -0.45654  -0.45172  -0.43824  -0.43730
 Alpha virt. eigenvalues --    0.20934   0.23127   0.23857   0.24641   0.25035
 Alpha virt. eigenvalues --    0.25987   0.26896   0.27852   0.28353   0.29685
 Alpha virt. eigenvalues --    0.30938   0.31129   0.31753   0.31801   0.32240

 Mulliken charges:
               1
     1  C   -0.302837
     2  C   -0.299239
     3  C   -0.475738
     4  H    0.153143
     5  H    0.150191
     6  H    0.151939
     7  H    0.151863
     8  H    0.155369
     9  H    0.155650
    10  H    0.160188
    11  C   -0.297055
    12  C   -0.308984
    13  C   -0.474831
    14  H    0.149745
    15  H    0.149654
    16  H    0.156290
    17  H    0.155163
    18  H    0.155253
    19  H    0.155615
    20  H    0.160009
    21  C   -0.298051
    22  C   -0.299568
    23  C   -0.475668
    24  H    0.149722
    25  H    0.149375
    26  H    0.151877
    27  H    0.151449
    28  H    0.155174
    29  H    0.155223
    30  H    0.160139
    31  C   -0.302111
    32  C   -0.298766
    33  C   -0.487094
    34  H    0.149384
    35  H    0.152242
    36  H    0.151438
    37  H    0.151379
    38  H    0.170961
    39  H    0.153859
    40  H    0.157649
 Sum of Mulliken charges =  -0.00000

 Dipole moment (field-independent basis, Debye):
    X=              0.0668    Y=              0.0258    Z=             -0.0144  Tot=              0.0731
 Quadrupole moment (field-independent basis, Debye-Ang):
   XX=            -85.5188   YY=            -85.2855   ZZ=            -84.0650
   XY=              1.0197   XZ=              0.1851   YZ=             -0.0714

 Normal termination of Gaussian 16 at Wed May  5 22:59:45 2021.
