 Gaussian 16, Revision A.03,
 Gaussian 16:  EM64L-G16RevA.03 25-Dec-2016

 -------------
 #p 6-31g* mp2
 -------------

 ------------------------------------------------------
 Input file generated by CHIRIPA (05-May-2021 14:55:19)
 ------------------------------------------------------
 Symbolic Z-matrix:
 Charge =  0 Multiplicity = 1

                         Standard orientation:
 ---------------------------------------------------------------------
 Center     Atomic      Atomic             Coordinates (Angstroms)
 Number     Number       Type             X           Y           Z
 ---------------------------------------------------------------------
      1          6           0        0.513215   -0.766237    0.601753
      2          6           0        1.313227   -0.188829    1.593268
      3          6           0        2.631797    0.182938    1.314502
      4          6           0        3.120249   -0.038128    0.027710
      5          6           0        2.348053   -0.611275   -0.981501
      6          6           0        1.032267   -0.975249   -0.680207
      7          1           0       -0.510000   -1.052007    0.827055
      8          1           0        0.912779   -0.025321    2.589737
      9          1           0        3.273089    0.631835    2.063271
     10          1           0        2.775202   -0.761772   -1.965530
     11          1           0        0.413268   -1.423474   -1.452204
     12          7           0        4.514686    0.351319   -0.279332
     13          8           0        4.921404    0.146010   -1.420851
     14          8           0        5.174524    0.854503    0.627342
     15          6           0       -3.687658   -0.519825    0.299462
     16          6           0       -3.586930   -1.768294   -0.577558
     17          6           0       -3.563801   -3.062320    0.236543
     18          1           0       -2.839534   -0.500440    0.997497
     19          1           0       -4.596548   -0.584022    0.913622
     20          1           0       -2.679222   -1.701112   -1.190885
     21          1           0       -4.435288   -1.784610   -1.273715
     22          1           0       -4.474627   -3.156215    0.836694
     23          1           0       -2.708583   -3.072244    0.919995
     24          1           0       -3.491455   -3.942278   -0.410217
     25          6           0       -3.711839    0.781748   -0.499945
     26          6           0       -3.812567    2.030219    0.377074
     27          6           0       -3.835695    3.324243   -0.437026
     28          1           0       -2.802949    0.845946   -1.114105
     29          1           0       -4.559963    0.762365   -1.197980
     30          1           0       -2.964208    2.046533    1.073232
     31          1           0       -4.720274    1.963037    0.990402
     32          1           0       -4.690913    3.334167   -1.120477
     33          1           0       -2.924870    3.418138   -1.037177
     34          1           0       -3.908042    4.204201    0.209734
 ---------------------------------------------------------------------

 SCF Done:  E(RHF) =  -669.535408056     A.U. after   15 cycles
 E2 =    -0.2091954947D+01 EUMP2 =    -0.67162736300282D+03

 The electronic state is 1-A.
 Alpha  occ. eigenvalues --  -20.60765 -20.60760 -15.85820 -11.31192 -11.27762
 Alpha  occ. eigenvalues --  -11.27758 -11.27479 -11.26779 -11.26769 -11.22801
 Alpha  occ. eigenvalues --  -11.22563 -11.22352 -11.22266 -11.22188 -11.21633
 Alpha  occ. eigenvalues --   -1.59841  -1.39394  -1.19364  -1.09449  -1.08755
 Alpha  occ. eigenvalues --   -1.04769  -1.04464  -0.96899  -0.95592  -0.87910
 Alpha  occ. eigenvalues --   -0.86165  -0.82427  -0.80543  -0.79235  -0.77471
 Alpha  occ. eigenvalues --   -0.72037  -0.71164  -0.70521  -0.66100  -0.65014
 Alpha  occ. eigenvalues --   -0.64758  -0.62125  -0.61858  -0.60279  -0.58501
 Alpha  occ. eigenvalues --   -0.56222  -0.55252  -0.53564  -0.53307  -0.53093
 Alpha  occ. eigenvalues --   -0.52861  -0.50846  -0.48841  -0.48799  -0.48791
 Alpha  occ. eigenvalues --   -0.47608  -0.46759  -0.46683  -0.44798  -0.44727
 Alpha  occ. eigenvalues --   -0.37340  -0.36375
 Alpha virt. eigenvalues --    0.05049   0.11260   0.16472   0.17852   0.22958
 Alpha virt. eigenvalues --    0.23683   0.24256   0.25393   0.27114   0.28009
 Alpha virt. eigenvalues --    0.29473   0.29752   0.30909   0.31348   0.31725

 Mulliken charges:
               1
     1  C   -0.177812
     2  C   -0.220966
     3  C   -0.170612
     4  C    0.158468
     5  C   -0.170685
     6  C   -0.222475
     7  H    0.236939
     8  H    0.223585
     9  H    0.275638
    10  H    0.275668
    11  H    0.224560
    12  N    0.487981
    13  O   -0.460391
    14  O   -0.460386
    15  C   -0.301203
    16  C   -0.302518
    17  C   -0.476405
    18  H    0.140018
    19  H    0.155357
    20  H    0.144893
    21  H    0.158768
    22  H    0.160256
    23  H    0.149357
    24  H    0.164515
    25  C   -0.298923
    26  C   -0.299767
    27  C   -0.476503
    28  H    0.149313
    29  H    0.153279
    30  H    0.150280
    31  H    0.153441
    32  H    0.156518
    33  H    0.157194
    34  H    0.162620
 Sum of Mulliken charges =  -0.00000

 Dipole moment (field-independent basis, Debye):
    X=             -5.1491    Y=             -1.3256    Z=              1.0380  Tot=              5.4174
 Quadrupole moment (field-independent basis, Debye-Ang):
   XX=           -123.8726   YY=            -95.5173   ZZ=            -90.5702
   XY=             -3.7602   XZ=              4.0725   YZ=              2.1715

 Normal termination of Gaussian 16 at Thu May  6 01:17:24 2021.
