 Gaussian 16, Revision A.03,
 Gaussian 16:  EM64L-G16RevA.03 25-Dec-2016

 -------------
 #p 6-31g* mp2
 -------------

 ------------------------------------------------------
 Input file generated by CHIRIPA (05-May-2021 14:51:09)
 ------------------------------------------------------
 Symbolic Z-matrix:
 Charge =  0 Multiplicity = 1

                         Standard orientation:
 ---------------------------------------------------------------------
 Center     Atomic      Atomic             Coordinates (Angstroms)
 Number     Number       Type             X           Y           Z
 ---------------------------------------------------------------------
      1          6           0       -5.194690   -0.140268    0.319251
      2          6           0       -6.269464   -0.218224   -0.765539
      3          6           0       -7.669051    0.093134   -0.234497
      4          1           0       -5.446335   -0.841275    1.126845
      5          1           0       -5.204152    0.864717    0.763446
      6          1           0       -6.257046   -1.222335   -1.208508
      7          1           0       -6.015130    0.482912   -1.570734
      8          1           0       -7.704512    1.101724    0.189872
      9          1           0       -7.947803   -0.613212    0.554157
     10          1           0       -8.421842    0.031677   -1.026575
     11          6           0       -3.790161   -0.449017   -0.196210
     12          6           0       -2.715387   -0.371061    0.888579
     13          6           0       -1.315799   -0.682418    0.357537
     14          1           0       -3.780698   -1.454002   -0.640406
     15          1           0       -3.538515    0.251991   -1.003804
     16          1           0       -2.969721   -1.072197    1.693774
     17          1           0       -2.727804    0.633051    1.331548
     18          1           0       -1.037047    0.023927   -0.431116
     19          1           0       -1.280339   -1.691009   -0.066832
     20          1           0       -0.563008   -0.620962    1.149616
     21          6           0        3.897690    0.559871    0.337700
     22          6           0        2.850340    1.260851   -0.528133
     23          6           0        1.666668    1.785972    0.284864
     24          1           0        3.422479   -0.272000    0.875389
     25          1           0        4.259322    1.260664    1.102884
     26          1           0        2.491798    0.559371   -1.292326
     27          1           0        3.328143    2.091032   -1.063970
     28          1           0        2.005052    2.506007    1.036959
     29          1           0        1.163955    0.965645    0.807306
     30          1           0        0.930093    2.283389   -0.353800
     31          6           0        5.087160    0.029414   -0.460740
     32          6           0        6.134511   -0.671567    0.405092
     33          6           0        7.318182   -1.196687   -0.407905
     34          1           0        4.725528   -0.671380   -1.225923
     35          1           0        5.562373    0.861285   -0.998429
     36          1           0        5.656708   -1.501747    0.940929
     37          1           0        6.493052    0.029913    1.169285
     38          1           0        7.820895   -0.376361   -0.930346
     39          1           0        6.979798   -1.916722   -1.159999
     40          1           0        8.054758   -1.694104    0.230761
 ---------------------------------------------------------------------

 SCF Done:  E(RHF) =  -470.732650441     A.U. after   11 cycles
 E2 =    -0.1582618887D+01 EUMP2 =    -0.47231526932735D+03

 The electronic state is 1-A.
 Alpha  occ. eigenvalues --  -11.21602 -11.21598 -11.21575 -11.21533 -11.21406
 Alpha  occ. eigenvalues --  -11.21365 -11.21347 -11.21305 -11.21071 -11.21058
 Alpha  occ. eigenvalues --  -11.21050 -11.20926  -1.08432  -1.08383  -1.03549
 Alpha  occ. eigenvalues --   -1.03461  -0.96036  -0.95879  -0.87085  -0.86868
 Alpha  occ. eigenvalues --   -0.79649  -0.79492  -0.78244  -0.78197  -0.65080
 Alpha  occ. eigenvalues --   -0.65001  -0.61043  -0.60799  -0.59382  -0.59289
 Alpha  occ. eigenvalues --   -0.57665  -0.57475  -0.55465  -0.55048  -0.52780
 Alpha  occ. eigenvalues --   -0.52619  -0.52421  -0.52250  -0.50078  -0.49660
 Alpha  occ. eigenvalues --   -0.47950  -0.47818  -0.46690  -0.46485  -0.45786
 Alpha  occ. eigenvalues --   -0.45742  -0.45705  -0.45658  -0.43751  -0.43734
 Alpha virt. eigenvalues --    0.21988   0.23016   0.23591   0.24943   0.26330
 Alpha virt. eigenvalues --    0.26598   0.27095   0.27427   0.27688   0.29245
 Alpha virt. eigenvalues --    0.29432   0.31299   0.31754   0.32028   0.32191

 Mulliken charges:
               1
     1  C   -0.298319
     2  C   -0.299651
     3  C   -0.475707
     4  H    0.149650
     5  H    0.149649
     6  H    0.151889
     7  H    0.151941
     8  H    0.155221
     9  H    0.155174
    10  H    0.160246
    11  C   -0.298631
    12  C   -0.299729
    13  C   -0.478673
    14  H    0.149452
    15  H    0.149701
    16  H    0.151747
    17  H    0.152656
    18  H    0.158940
    19  H    0.154455
    20  H    0.161070
    21  C   -0.298277
    22  C   -0.299726
    23  C   -0.480169
    24  H    0.149454
    25  H    0.149334
    26  H    0.152113
    27  H    0.151407
    28  H    0.153724
    29  H    0.162931
    30  H    0.158400
    31  C   -0.298269
    32  C   -0.299632
    33  C   -0.475681
    34  H    0.149591
    35  H    0.149546
    36  H    0.151903
    37  H    0.151830
    38  H    0.155125
    39  H    0.155168
    40  H    0.160145
 Sum of Mulliken charges =  -0.00000

 Dipole moment (field-independent basis, Debye):
    X=             -0.0317    Y=             -0.0143    Z=              0.0037  Tot=              0.0350
 Quadrupole moment (field-independent basis, Debye-Ang):
   XX=            -86.6785   YY=            -83.3095   ZZ=            -85.0047
   XY=              1.1242   XZ=              0.6937   YZ=             -0.3380

 Normal termination of Gaussian 16 at Wed May  5 16:38:20 2021.
