 Gaussian 16, Revision A.03,
 Gaussian 16:  EM64L-G16RevA.03 25-Dec-2016

 -------------
 #p 6-31g* mp2
 -------------

 ------------------------------------------------------
 Input file generated by CHIRIPA (05-May-2021 14:53:13)
 ------------------------------------------------------
 Symbolic Z-matrix:
 Charge =  0 Multiplicity = 1

                         Standard orientation:
 ---------------------------------------------------------------------
 Center     Atomic      Atomic             Coordinates (Angstroms)
 Number     Number       Type             X           Y           Z
 ---------------------------------------------------------------------
      1          6           0        3.985865   -0.706382   -0.087671
      2          6           0        2.987789   -1.675179    0.547358
      3          6           0        3.273427   -3.134818    0.192874
      4          1           0        3.964593   -0.831091   -1.178973
      5          1           0        5.001377   -0.971683    0.237514
      6          1           0        1.974332   -1.407274    0.222170
      7          1           0        3.011301   -1.548014    1.637263
      8          1           0        4.272998   -3.425163    0.532225
      9          1           0        3.230137   -3.283623   -0.890908
     10          1           0        2.548034   -3.810092    0.657277
     11          6           0        3.713457    0.756633    0.257454
     12          6           0        4.711533    1.725430   -0.377575
     13          6           0        4.425895    3.185069   -0.023092
     14          1           0        2.697945    1.021934   -0.067731
     15          1           0        3.734729    0.881342    1.348756
     16          1           0        4.688021    1.598265   -1.467480
     17          1           0        5.724990    1.457525   -0.052387
     18          1           0        4.469186    3.333874    1.060691
     19          1           0        3.426325    3.475414   -0.362442
     20          1           0        5.151289    3.860343   -0.487494
     21          6           0       -4.481411    2.005279    0.239293
     22          6           0       -3.106057    2.164198    0.040126
     23          6           0       -2.279835    1.049368   -0.130344
     24          6           0       -2.865060   -0.215390   -0.095867
     25          6           0       -4.231882   -0.406330    0.100679
     26          6           0       -5.038951    0.722783    0.268882
     27          1           0       -5.115800    2.876853    0.370837
     28          1           0       -2.670315    3.158996    0.016684
     29          1           0       -1.212013    1.143628   -0.286200
     30          1           0       -4.637274   -1.410687    0.119176
     31          1           0       -6.106747    0.596348    0.423384
     32          7           0       -2.000514   -1.403170   -0.275136
     33          8           0       -2.540564   -2.506707   -0.240650
     34          8           0       -0.799204   -1.208125   -0.446738
 ---------------------------------------------------------------------

 SCF Done:  E(RHF) =  -669.536162946     A.U. after   15 cycles
 E2 =    -0.2090957903D+01 EUMP2 =    -0.67162712084906D+03

 The electronic state is 1-A.
 Alpha  occ. eigenvalues --  -20.60954 -20.60946 -15.85996 -11.31302 -11.27866
 Alpha  occ. eigenvalues --  -11.27861 -11.27599 -11.26870 -11.26860 -11.21232
 Alpha  occ. eigenvalues --  -11.20897 -11.20839 -11.20542 -11.20291 -11.19893
 Alpha  occ. eigenvalues --   -1.60015  -1.39573  -1.19470  -1.08875  -1.07717
 Alpha  occ. eigenvalues --   -1.04865  -1.02767  -0.95720  -0.95267  -0.86293
 Alpha  occ. eigenvalues --   -0.86265  -0.82558  -0.78887  -0.77628  -0.77436
 Alpha  occ. eigenvalues --   -0.72222  -0.71329  -0.70579  -0.65129  -0.64868
 Alpha  occ. eigenvalues --   -0.64345  -0.62213  -0.60152  -0.58681  -0.56839
 Alpha  occ. eigenvalues --   -0.55369  -0.54573  -0.53196  -0.52957  -0.51962
 Alpha  occ. eigenvalues --   -0.51691  -0.49245  -0.48977  -0.48966  -0.47189
 Alpha  occ. eigenvalues --   -0.45928  -0.45105  -0.44996  -0.44731  -0.43035
 Alpha  occ. eigenvalues --   -0.37447  -0.36465
 Alpha virt. eigenvalues --    0.04913   0.11190   0.16403   0.21144   0.23379
 Alpha virt. eigenvalues --    0.25099   0.26296   0.27430   0.27769   0.28567
 Alpha virt. eigenvalues --    0.29025   0.31027   0.32059   0.32215   0.32604

 Mulliken charges:
               1
     1  C   -0.297321
     2  C   -0.311673
     3  C   -0.473622
     4  H    0.149268
     5  H    0.145653
     6  H    0.180310
     7  H    0.145231
     8  H    0.147951
     9  H    0.155219
    10  H    0.163823
    11  C   -0.296735
    12  C   -0.299098
    13  C   -0.474582
    14  H    0.147187
    15  H    0.147530
    16  H    0.151781
    17  H    0.151733
    18  H    0.154250
    19  H    0.150830
    20  H    0.159113
    21  C   -0.170580
    22  C   -0.218527
    23  C   -0.170475
    24  C    0.157523
    25  C   -0.170556
    26  C   -0.218586
    27  H    0.226071
    28  H    0.224020
    29  H    0.275269
    30  H    0.275884
    31  H    0.223848
    32  N    0.494856
    33  O   -0.458756
    34  O   -0.466841
 Sum of Mulliken charges =  -0.00000

 Dipole moment (field-independent basis, Debye):
    X=             -3.3380    Y=              4.1044    Z=              0.5937  Tot=              5.3236
 Quadrupole moment (field-independent basis, Debye-Ang):
   XX=            -74.8281   YY=            -96.6237   ZZ=            -95.2126
   XY=             -8.8110   XZ=             -1.6844   YZ=             -1.0071

 Normal termination of Gaussian 16 at Thu May  6 13:45:14 2021.
