 Gaussian 16, Revision A.03,
 Gaussian 16:  EM64L-G16RevA.03 25-Dec-2016

 -------------
 #p 6-31g* mp2
 -------------

 ------------------------------------------------------
 Input file generated by CHIRIPA (05-May-2021 14:53:14)
 ------------------------------------------------------
 Symbolic Z-matrix:
 Charge =  0 Multiplicity = 1

                         Standard orientation:
 ---------------------------------------------------------------------
 Center     Atomic      Atomic             Coordinates (Angstroms)
 Number     Number       Type             X           Y           Z
 ---------------------------------------------------------------------
      1          6           0        3.634586    0.812298   -0.500648
      2          6           0        2.727793    1.866823    0.134717
      3          6           0        2.750885    3.197429   -0.618109
      4          1           0        4.663151    1.196534   -0.537557
      5          1           0        3.323673    0.650848   -1.542119
      6          1           0        3.039450    2.025230    1.175098
      7          1           0        1.701302    1.479957    0.170292
      8          1           0        2.419357    3.060617   -1.652504
      9          1           0        3.765109    3.608988   -0.641989
     10          1           0        2.095761    3.936745   -0.146850
     11          6           0        3.622226   -0.523389    0.240644
     12          6           0        4.529019   -1.577914   -0.394721
     13          6           0        4.505927   -2.908521    0.358105
     14          1           0        3.933140   -0.361939    1.282115
     15          1           0        2.593661   -0.907625    0.277553
     16          1           0        5.555510   -1.191048   -0.430296
     17          1           0        4.217362   -1.736321   -1.435102
     18          1           0        3.491704   -3.320080    0.381985
     19          1           0        4.837455   -2.771708    1.392500
     20          1           0        5.161052   -3.647836   -0.113154
     21          6           0       -2.035748    0.305868    2.457892
     22          6           0       -1.162870    0.487525    1.380114
     23          6           0       -1.594707    0.258469    0.070305
     24          6           0       -2.911931   -0.153335   -0.126237
     25          6           0       -3.805471   -0.343090    0.926793
     26          6           0       -3.351942   -0.108130    2.228196
     27          1           0       -1.691861    0.486098    3.472118
     28          1           0       -0.140154    0.808980    1.555510
     29          1           0       -0.940018    0.391369   -0.782418
     30          1           0       -4.819248   -0.664185    0.720461
     31          1           0       -4.032038   -0.250019    3.063290
     32          7           0       -3.380580   -0.398952   -1.508424
     33          8           0       -4.545883   -0.761200   -1.654995
     34          8           0       -2.573730   -0.224568   -2.419039
 ---------------------------------------------------------------------

 SCF Done:  E(RHF) =  -669.535547918     A.U. after   15 cycles
 E2 =    -0.2091426505D+01 EUMP2 =    -0.67162697442279D+03

 The electronic state is 1-A.
 Alpha  occ. eigenvalues --  -20.60754 -20.60749 -15.85806 -11.31163 -11.27728
 Alpha  occ. eigenvalues --  -11.27722 -11.27458 -11.26743 -11.26691 -11.22507
 Alpha  occ. eigenvalues --  -11.22011 -11.21979 -11.21923 -11.21672 -11.21382
 Alpha  occ. eigenvalues --   -1.59829  -1.39383  -1.19330  -1.09031  -1.08725
 Alpha  occ. eigenvalues --   -1.04734  -1.04089  -0.96498  -0.95564  -0.87518
 Alpha  occ. eigenvalues --   -0.86129  -0.82404  -0.80192  -0.78849  -0.77442
 Alpha  occ. eigenvalues --   -0.72025  -0.71152  -0.70441  -0.65681  -0.64979
 Alpha  occ. eigenvalues --   -0.64731  -0.62140  -0.61436  -0.59880  -0.58122
 Alpha  occ. eigenvalues --   -0.55769  -0.55232  -0.53208  -0.53061  -0.52934
 Alpha  occ. eigenvalues --   -0.52809  -0.50438  -0.48790  -0.48781  -0.48469
 Alpha  occ. eigenvalues --   -0.47225  -0.46369  -0.46280  -0.44791  -0.44341
 Alpha  occ. eigenvalues --   -0.37309  -0.36334
 Alpha virt. eigenvalues --    0.05082   0.11319   0.16564   0.19352   0.22693
 Alpha virt. eigenvalues --    0.23798   0.24901   0.26289   0.27531   0.28137
 Alpha virt. eigenvalues --    0.29260   0.30307   0.31094   0.31442   0.32408

 Mulliken charges:
               1
     1  C   -0.298689
     2  C   -0.305446
     3  C   -0.475982
     4  H    0.153012
     5  H    0.153900
     6  H    0.151631
     7  H    0.143721
     8  H    0.159830
     9  H    0.158522
    10  H    0.160690
    11  C   -0.299121
    12  C   -0.300270
    13  C   -0.476306
    14  H    0.148413
    15  H    0.146447
    16  H    0.153140
    17  H    0.155184
    18  H    0.156194
    19  H    0.154346
    20  H    0.162468
    21  C   -0.171050
    22  C   -0.224166
    23  C   -0.173535
    24  C    0.158869
    25  C   -0.171145
    26  C   -0.218450
    27  H    0.225926
    28  H    0.231267
    29  H    0.274883
    30  H    0.275482
    31  H    0.223294
    32  N    0.488217
    33  O   -0.460497
    34  O   -0.460777
 Sum of Mulliken charges =  -0.00000

 Dipole moment (field-independent basis, Debye):
    X=              1.8369    Y=              0.8794    Z=              4.8040  Tot=              5.2178
 Quadrupole moment (field-independent basis, Debye-Ang):
   XX=            -99.0800   YY=            -96.1700   ZZ=            -95.6990
   XY=             -1.0645   XZ=            -16.2542   YZ=             -0.7946

 Normal termination of Gaussian 16 at Wed May  5 18:37:58 2021.
