 Gaussian 16, Revision A.03,
 Gaussian 16:  EM64L-G16RevA.03 25-Dec-2016

 -------------
 #p 6-31g* mp2
 -------------

 ------------------------------------------------------
 Input file generated by CHIRIPA (05-May-2021 14:57:25)
 ------------------------------------------------------
 Symbolic Z-matrix:
 Charge =  0 Multiplicity = 1

                         Standard orientation:
 ---------------------------------------------------------------------
 Center     Atomic      Atomic             Coordinates (Angstroms)
 Number     Number       Type             X           Y           Z
 ---------------------------------------------------------------------
      1          6           0        5.070515    1.404343    0.696253
      2          6           0        5.460580    0.234518    0.036041
      3          6           0        4.503385   -0.680236   -0.412903
      4          6           0        3.158846   -0.392159   -0.183741
      5          6           0        2.738706    0.764627    0.470948
      6          6           0        3.713216    1.665204    0.911220
      7          1           0        5.820813    2.109439    1.041635
      8          1           0        6.513958    0.029324   -0.132291
      9          1           0        4.777559   -1.593586   -0.926749
     10          1           0        1.681073    0.941717    0.624147
     11          1           0        3.407372    2.572897    1.423663
     12          7           0        2.136341   -1.353064   -0.654427
     13          8           0        0.958194   -1.076087   -0.440205
     14          8           0        2.532410   -2.365004   -1.228661
     15          6           0       -3.817564   -2.109581    0.902559
     16          6           0       -2.624055   -1.480240    1.271322
     17          6           0       -2.341964   -0.182019    0.835896
     18          6           0       -3.279976    0.460339    0.029174
     19          6           0       -4.477942   -0.140004   -0.355218
     20          6           0       -4.739074   -1.438637    0.091895
     21          1           0       -4.028559   -3.118230    1.245347
     22          1           0       -1.906559   -1.998887    1.900803
     23          1           0       -1.425792    0.328742    1.106392
     24          1           0       -5.173795    0.402466   -0.983655
     25          1           0       -5.666787   -1.924923   -0.196062
     26          7           0       -2.992435    1.834926   -0.437979
     27          8           0       -3.835188    2.379352   -1.147910
     28          8           0       -1.929749    2.341872   -0.085356
 ---------------------------------------------------------------------

 SCF Done:  E(RHF) =  -868.339493778     A.U. after   16 cycles
 E2 =    -0.2599049344D+01 EUMP2 =    -0.87093854312255D+03

 The electronic state is 1-A.
 Alpha  occ. eigenvalues --  -20.61024 -20.60995 -20.60270 -20.60250 -15.86053
 Alpha  occ. eigenvalues --  -15.85307 -11.31226 -11.30397 -11.27789 -11.27749
 Alpha  occ. eigenvalues --  -11.27487 -11.26995 -11.26924 -11.26769 -11.26713
 Alpha  occ. eigenvalues --  -11.26683 -11.25976 -11.25865  -1.60080  -1.59331
 Alpha  occ. eigenvalues --   -1.39642  -1.38897  -1.19383  -1.18557  -1.08815
 Alpha  occ. eigenvalues --   -1.08013  -1.04753  -1.03920  -0.95682  -0.94892
 Alpha  occ. eigenvalues --   -0.86164  -0.85350  -0.82522  -0.81737  -0.77595
 Alpha  occ. eigenvalues --   -0.76804  -0.72290  -0.71547  -0.71392  -0.70633
 Alpha  occ. eigenvalues --   -0.70493  -0.69700  -0.65040  -0.64752  -0.64227
 Alpha  occ. eigenvalues --   -0.63948  -0.62101  -0.61285  -0.55269  -0.54479
 Alpha  occ. eigenvalues --   -0.53099  -0.52840  -0.52249  -0.52036  -0.49036
 Alpha  occ. eigenvalues --   -0.49011  -0.48304  -0.48268  -0.45089  -0.44362
 Alpha  occ. eigenvalues --   -0.37361  -0.36538  -0.36346  -0.35469
 Alpha virt. eigenvalues --    0.04925   0.05721   0.11305   0.12159   0.16453
 Alpha virt. eigenvalues --    0.17266   0.20662   0.22266   0.25472   0.27713
 Alpha virt. eigenvalues --    0.28446   0.29458   0.30735   0.31542   0.32187

 Mulliken charges:
               1
     1  C   -0.170222
     2  C   -0.218820
     3  C   -0.170836
     4  C    0.157096
     5  C   -0.171710
     6  C   -0.219445
     7  H    0.226401
     8  H    0.223444
     9  H    0.274900
    10  H    0.279817
    11  H    0.227290
    12  N    0.490480
    13  O   -0.468174
    14  O   -0.459463
    15  C   -0.170253
    16  C   -0.213812
    17  C   -0.157262
    18  C    0.156165
    19  C   -0.171274
    20  C   -0.219016
    21  H    0.223777
    22  H    0.224540
    23  H    0.273158
    24  H    0.272667
    25  H    0.220544
    26  N    0.489376
    27  O   -0.461994
    28  O   -0.467377
 Sum of Mulliken charges =  -0.00000

 Dipole moment (field-independent basis, Debye):
    X=              2.8107    Y=             -1.5077    Z=              3.3252  Tot=              4.6076
 Quadrupole moment (field-independent basis, Debye-Ang):
   XX=            -69.8102   YY=           -111.3759   ZZ=           -104.8927
   XY=             22.9979   XZ=              0.1726   YZ=              0.5811

 Normal termination of Gaussian 16 at Thu May  6 00:23:19 2021.
