 Gaussian 16, Revision A.03,
 Gaussian 16:  EM64L-G16RevA.03 25-Dec-2016

 -------------
 #p 6-31g* mp2
 -------------

 ------------------------------------------------------
 Input file generated by CHIRIPA (05-May-2021 14:51:13)
 ------------------------------------------------------
 Symbolic Z-matrix:
 Charge =  0 Multiplicity = 1

                         Standard orientation:
 ---------------------------------------------------------------------
 Center     Atomic      Atomic             Coordinates (Angstroms)
 Number     Number       Type             X           Y           Z
 ---------------------------------------------------------------------
      1          6           0        3.746247   -0.731953   -0.308047
      2          6           0        2.251568   -1.051021   -0.262062
      3          6           0        1.944164   -2.499074   -0.644735
      4          1           0        4.126994   -0.934417   -1.318485
      5          1           0        4.280361   -1.412507    0.369422
      6          1           0        1.720270   -0.369154   -0.938371
      7          1           0        1.874295   -0.847592    0.748333
      8          1           0        2.448279   -3.192735    0.035929
      9          1           0        2.293379   -2.711579   -1.660359
     10          1           0        0.870051   -2.705410   -0.605178
     11          6           0        4.069456    0.711940    0.072003
     12          6           0        5.564135    1.031007    0.026018
     13          6           0        5.871538    2.479061    0.408691
     14          1           0        3.535341    1.392493   -0.605466
     15          1           0        3.688709    0.914403    1.082441
     16          1           0        5.941408    0.827578   -0.984377
     17          1           0        6.095433    0.349140    0.702328
     18          1           0        5.522324    2.691565    1.424315
     19          1           0        5.367424    3.172722   -0.271973
     20          1           0        6.945652    2.685396    0.369134
     21          6           0       -3.591396   -0.637652   -0.134615
     22          6           0       -2.781145   -1.373396    0.933168
     23          6           0       -2.154295   -2.667162    0.412570
     24          1           0       -4.380149   -1.303441   -0.510834
     25          1           0       -2.938843   -0.411952   -0.989383
     26          1           0       -3.434694   -1.596418    1.786252
     27          1           0       -1.994351   -0.705714    1.307027
     28          1           0       -1.480171   -2.458955   -0.424572
     29          1           0       -2.928697   -3.354721    0.057376
     30          1           0       -1.579670   -3.176916    1.192196
     31          6           0       -4.224306    0.657666    0.370659
     32          6           0       -5.034557    1.393409   -0.697124
     33          6           0       -5.661408    2.687176   -0.176526
     34          1           0       -4.876860    0.431966    1.225427
     35          1           0       -3.435554    1.323454    0.746879
     36          1           0       -5.821352    0.725727   -1.070983
     37          1           0       -4.381009    1.616432   -1.550208
     38          1           0       -4.887004    3.374735    0.178669
     39          1           0       -6.335532    2.478969    0.660616
     40          1           0       -6.236032    3.196929   -0.956153
 ---------------------------------------------------------------------

 SCF Done:  E(RHF) =  -470.733226703     A.U. after   11 cycles
 E2 =    -0.1582377582D+01 EUMP2 =    -0.47231560428430D+03

 The electronic state is 1-A.
 Alpha  occ. eigenvalues --  -11.21616 -11.21606 -11.21604 -11.21596 -11.21413
 Alpha  occ. eigenvalues --  -11.21404 -11.21353 -11.21344 -11.21094 -11.21076
 Alpha  occ. eigenvalues --  -11.21074 -11.20991  -1.08442  -1.08424  -1.03556
 Alpha  occ. eigenvalues --   -1.03506  -0.96027  -0.95935  -0.87061  -0.86937
 Alpha  occ. eigenvalues --   -0.79634  -0.79556  -0.78252  -0.78239  -0.65074
 Alpha  occ. eigenvalues --   -0.65056  -0.60983  -0.60915  -0.59398  -0.59304
 Alpha  occ. eigenvalues --   -0.57646  -0.57557  -0.55286  -0.55249  -0.52817
 Alpha  occ. eigenvalues --   -0.52596  -0.52453  -0.52295  -0.49911  -0.49904
 Alpha  occ. eigenvalues --   -0.47965  -0.47854  -0.46632  -0.46610  -0.45794
 Alpha  occ. eigenvalues --   -0.45784  -0.45717  -0.45702  -0.43832  -0.43711
 Alpha virt. eigenvalues --    0.21639   0.23081   0.23496   0.25145   0.26457
 Alpha virt. eigenvalues --    0.26583   0.26987   0.27483   0.27680   0.28957
 Alpha virt. eigenvalues --    0.30410   0.31300   0.31616   0.31752   0.32165

 Mulliken charges:
               1
     1  C   -0.298145
     2  C   -0.299166
     3  C   -0.483275
     4  H    0.149679
     5  H    0.149637
     6  H    0.150897
     7  H    0.151727
     8  H    0.154998
     9  H    0.154602
    10  H    0.168321
    11  C   -0.298240
    12  C   -0.299648
    13  C   -0.475702
    14  H    0.149301
    15  H    0.149535
    16  H    0.151961
    17  H    0.151978
    18  H    0.155155
    19  H    0.155116
    20  H    0.160282
    21  C   -0.298557
    22  C   -0.299707
    23  C   -0.480475
    24  H    0.149669
    25  H    0.149729
    26  H    0.152014
    27  H    0.152520
    28  H    0.159123
    29  H    0.155632
    30  H    0.160911
    31  C   -0.298375
    32  C   -0.299661
    33  C   -0.475721
    34  H    0.149528
    35  H    0.149825
    36  H    0.151943
    37  H    0.151917
    38  H    0.155224
    39  H    0.155188
    40  H    0.160260
 Sum of Mulliken charges =  -0.00000

 Dipole moment (field-independent basis, Debye):
    X=             -0.0275    Y=             -0.0097    Z=              0.0076  Tot=              0.0302
 Quadrupole moment (field-independent basis, Debye-Ang):
   XX=            -84.5200   YY=            -86.3822   ZZ=            -83.8559
   XY=              0.5624   XZ=             -0.1132   YZ=             -0.9162

 Normal termination of Gaussian 16 at Thu May  6 05:34:30 2021.
