 Gaussian 16, Revision A.03,
 Gaussian 16:  EM64L-G16RevA.03 25-Dec-2016

 -------------
 #p 6-31g* mp2
 -------------

 ------------------------------------------------------
 Input file generated by CHIRIPA (05-May-2021 14:57:23)
 ------------------------------------------------------
 Symbolic Z-matrix:
 Charge =  0 Multiplicity = 1

                         Standard orientation:
 ---------------------------------------------------------------------
 Center     Atomic      Atomic             Coordinates (Angstroms)
 Number     Number       Type             X           Y           Z
 ---------------------------------------------------------------------
      1          6           0       -2.543093    2.143826   -0.800132
      2          6           0       -3.892123    2.117893   -0.431397
      3          6           0       -4.488028    0.928385   -0.001844
      4          6           0       -3.701832   -0.221744    0.047036
      5          6           0       -2.355321   -0.227987   -0.313738
      6          6           0       -1.780342    0.972867   -0.740231
      7          1           0       -2.088308    3.072271   -1.132630
      8          1           0       -4.486914    3.025746   -0.476918
      9          1           0       -5.530250    0.880002    0.289447
     10          1           0       -1.787985   -1.149086   -0.257834
     11          1           0       -0.732441    0.990040   -1.025984
     12          7           0       -4.321613   -1.487029    0.500165
     13          8           0       -3.607377   -2.486696    0.534340
     14          8           0       -5.509898   -1.455133    0.812571
     15          6           0        2.950380    2.359042    0.692020
     16          6           0        3.959383    1.687656    1.390356
     17          6           0        4.327366    0.387662    1.030983
     18          6           0        3.662457   -0.213576   -0.036584
     19          6           0        2.653218    0.429191   -0.751830
     20          6           0        2.301662    1.728778   -0.374963
     21          1           0        2.670902    3.368751    0.977984
     22          1           0        4.464904    2.174658    2.219405
     23          1           0        5.105024   -0.155178    1.554426
     24          1           0        2.167393   -0.082306   -1.573877
     25          1           0        1.517691    2.247767   -0.919101
     26          7           0        4.043330   -1.589607   -0.426296
     27          8           0        3.442261   -2.097323   -1.370530
     28          8           0        4.935715   -2.134370    0.219861
 ---------------------------------------------------------------------

 SCF Done:  E(RHF) =  -868.336238037     A.U. after   16 cycles
 E2 =    -0.2600225609D+01 EUMP2 =    -0.87093646364531D+03

 The electronic state is 1-A.
 Alpha  occ. eigenvalues --  -20.61261 -20.61251 -20.60952 -20.60940 -15.86322
 Alpha  occ. eigenvalues --  -15.86008 -11.31867 -11.31516 -11.28552 -11.28417
 Alpha  occ. eigenvalues --  -11.28243 -11.28109 -11.28104 -11.27969 -11.27643
 Alpha  occ. eigenvalues --  -11.27443 -11.27245 -11.27164  -1.60331  -1.60022
 Alpha  occ. eigenvalues --   -1.39880  -1.39571  -1.20069  -1.19723  -1.09422
 Alpha  occ. eigenvalues --   -1.09111  -1.05525  -1.05148  -0.96225  -0.95911
 Alpha  occ. eigenvalues --   -0.86907  -0.86556  -0.83080  -0.82734  -0.78107
 Alpha  occ. eigenvalues --   -0.77734  -0.72535  -0.72224  -0.71657  -0.71348
 Alpha  occ. eigenvalues --   -0.71164  -0.70864  -0.65739  -0.65631  -0.65382
 Alpha  occ. eigenvalues --   -0.65131  -0.62932  -0.62418  -0.55989  -0.55703
 Alpha  occ. eigenvalues --   -0.53833  -0.53659  -0.53465  -0.53193  -0.49308
 Alpha  occ. eigenvalues --   -0.49280  -0.48998  -0.48967  -0.45247  -0.44944
 Alpha  occ. eigenvalues --   -0.38033  -0.37741  -0.37130  -0.36729
 Alpha virt. eigenvalues --    0.04444   0.04799   0.10466   0.10941   0.15721
 Alpha virt. eigenvalues --    0.16247   0.18447   0.22006   0.24856   0.26605
 Alpha virt. eigenvalues --    0.28029   0.28857   0.30310   0.30950   0.32156

 Mulliken charges:
               1
     1  C   -0.172118
     2  C   -0.218270
     3  C   -0.170320
     4  C    0.159011
     5  C   -0.170889
     6  C   -0.219184
     7  H    0.220644
     8  H    0.224003
     9  H    0.277015
    10  H    0.280223
    11  H    0.217002
    12  N    0.487813
    13  O   -0.457327
    14  O   -0.459913
    15  C   -0.169740
    16  C   -0.217986
    17  C   -0.168891
    18  C    0.159702
    19  C   -0.173169
    20  C   -0.218849
    21  H    0.226633
    22  H    0.226562
    23  H    0.278800
    24  H    0.273597
    25  H    0.214236
    26  N    0.488186
    27  O   -0.459551
    28  O   -0.457220
 Sum of Mulliken charges =  -0.00000

 Dipole moment (field-independent basis, Debye):
    X=              0.9712    Y=              9.1575    Z=             -0.0463  Tot=              9.2089
 Quadrupole moment (field-independent basis, Debye-Ang):
   XX=           -123.6120   YY=           -108.8617   ZZ=           -103.5515
   XY=             -1.2638   XZ=             13.7392   YZ=              0.6270

 Normal termination of Gaussian 16 at Fri May  7 04:52:51 2021.
