 Gaussian 16, Revision A.03,
 Gaussian 16:  EM64L-G16RevA.03 25-Dec-2016

 -------------
 #p 6-31g* mp2
 -------------

 ------------------------------------------------------
 Input file generated by CHIRIPA (05-May-2021 14:53:14)
 ------------------------------------------------------
 Symbolic Z-matrix:
 Charge =  0 Multiplicity = 1

                         Standard orientation:
 ---------------------------------------------------------------------
 Center     Atomic      Atomic             Coordinates (Angstroms)
 Number     Number       Type             X           Y           Z
 ---------------------------------------------------------------------
      1          6           0       -2.917560   -0.416785   -0.256367
      2          6           0       -3.724494   -1.029052    0.889046
      3          6           0       -3.798404   -2.554246    0.810849
      4          1           0       -3.367079   -0.714936   -1.213437
      5          1           0       -1.901570   -0.835134   -0.244439
      6          1           0       -4.738246   -0.608637    0.875805
      7          1           0       -3.273115   -0.729251    1.843505
      8          1           0       -2.795100   -2.990911    0.846976
      9          1           0       -4.268556   -2.869612   -0.126223
     10          1           0       -4.379816   -2.971003    1.639181
     11          6           0       -2.834615    1.107257   -0.191992
     12          6           0       -2.027681    1.719525   -1.337405
     13          6           0       -1.953771    3.244719   -1.259208
     14          1           0       -3.850606    1.525607   -0.203920
     15          1           0       -2.385096    1.405409    0.765078
     16          1           0       -2.479061    1.419724   -2.291864
     17          1           0       -1.013930    1.299110   -1.324164
     18          1           0       -1.483620    3.560085   -0.322136
     19          1           0       -2.957075    3.681384   -1.295335
     20          1           0       -1.372360    3.661476   -2.087540
     21          6           0        2.073506    1.007722    2.344009
     22          6           0        1.050055    0.133922    1.962504
     23          6           0        1.135537   -0.579034    0.762948
     24          6           0        2.263711   -0.393214   -0.034538
     25          6           0        3.299910    0.470038    0.318137
     26          6           0        3.193191    1.172700    1.522057
     27          1           0        1.998852    1.557566    3.277549
     28          1           0        0.179327    0.003814    2.598859
     29          1           0        0.357786   -1.261975    0.443398
     30          1           0        4.155613    0.578833   -0.337113
     31          1           0        3.989542    1.850626    1.815802
     32          7           0        2.365448   -1.142540   -1.306764
     33          8           0        3.369739   -0.961185   -1.991706
     34          8           0        1.438971   -1.897029   -1.594904
 ---------------------------------------------------------------------

 SCF Done:  E(RHF) =  -669.535504955     A.U. after   15 cycles
 E2 =    -0.2092627409D+01 EUMP2 =    -0.67162813236330D+03

 The electronic state is 1-A.
 Alpha  occ. eigenvalues --  -20.60823 -20.60818 -15.85876 -11.31270 -11.27838
 Alpha  occ. eigenvalues --  -11.27830 -11.27576 -11.26864 -11.26847 -11.21973
 Alpha  occ. eigenvalues --  -11.21683 -11.21647 -11.21595 -11.21323 -11.21161
 Alpha  occ. eigenvalues --   -1.59897  -1.39449  -1.19443  -1.08829  -1.08677
 Alpha  occ. eigenvalues --   -1.04848  -1.03734  -0.96186  -0.95661  -0.87198
 Alpha  occ. eigenvalues --   -0.86245  -0.82491  -0.79794  -0.78482  -0.77534
 Alpha  occ. eigenvalues --   -0.72092  -0.71220  -0.70556  -0.65378  -0.65084
 Alpha  occ. eigenvalues --   -0.64834  -0.62191  -0.61136  -0.59549  -0.57783
 Alpha  occ. eigenvalues --   -0.55518  -0.55313  -0.53169  -0.52969  -0.52852
 Alpha  occ. eigenvalues --   -0.52585  -0.50133  -0.48854  -0.48847  -0.48103
 Alpha  occ. eigenvalues --   -0.46845  -0.46004  -0.45946  -0.44840  -0.44000
 Alpha  occ. eigenvalues --   -0.37415  -0.36433
 Alpha virt. eigenvalues --    0.04965   0.11114   0.16426   0.19321   0.23051
 Alpha virt. eigenvalues --    0.23849   0.25375   0.25718   0.27662   0.28296
 Alpha virt. eigenvalues --    0.29726   0.30605   0.31374   0.31596   0.32052

 Mulliken charges:
               1
     1  C   -0.303171
     2  C   -0.299646
     3  C   -0.475228
     4  H    0.156261
     5  H    0.148774
     6  H    0.154341
     7  H    0.143469
     8  H    0.153702
     9  H    0.159704
    10  H    0.160366
    11  C   -0.297649
    12  C   -0.300326
    13  C   -0.475763
    14  H    0.150591
    15  H    0.142967
    16  H    0.155532
    17  H    0.154358
    18  H    0.152320
    19  H    0.154807
    20  H    0.162328
    21  C   -0.170836
    22  C   -0.220730
    23  C   -0.175389
    24  C    0.158422
    25  C   -0.170533
    26  C   -0.218248
    27  H    0.226061
    28  H    0.224421
    29  H    0.281968
    30  H    0.275985
    31  H    0.223910
    32  N    0.487650
    33  O   -0.459980
    34  O   -0.460438
 Sum of Mulliken charges =  -0.00000

 Dipole moment (field-independent basis, Debye):
    X=             -0.3701    Y=              2.6206    Z=              4.3654  Tot=              5.1051
 Quadrupole moment (field-independent basis, Debye-Ang):
   XX=            -91.4734   YY=            -97.7719   ZZ=            -95.1753
   XY=              8.4171   XZ=             10.2357   YZ=             -2.1603

 Normal termination of Gaussian 16 at Thu May  6 02:36:48 2021.
