 Gaussian 16, Revision A.03,
 Gaussian 16:  EM64L-G16RevA.03 25-Dec-2016

 -------------
 #p 6-31g* mp2
 -------------

 ------------------------------------------------------
 Input file generated by CHIRIPA (05-May-2021 14:53:18)
 ------------------------------------------------------
 Symbolic Z-matrix:
 Charge =  0 Multiplicity = 1

                         Standard orientation:
 ---------------------------------------------------------------------
 Center     Atomic      Atomic             Coordinates (Angstroms)
 Number     Number       Type             X           Y           Z
 ---------------------------------------------------------------------
      1          6           0       -3.545716   -0.945115   -0.132109
      2          6           0       -2.394739   -1.068052    0.866952
      3          6           0       -1.321108   -2.057541    0.413055
      4          1           0       -3.997918   -1.934695   -0.284394
      5          1           0       -3.144825   -0.631443   -1.105911
      6          1           0       -2.797854   -1.380060    1.838942
      7          1           0       -1.945348   -0.078030    1.017022
      8          1           0       -0.891554   -1.747271   -0.544973
      9          1           0       -1.748903   -3.056698    0.281617
     10          1           0       -0.507883   -2.129876    1.141953
     11          6           0       -4.626957    0.040419    0.307630
     12          6           0       -5.777934    0.163356   -0.691431
     13          6           0       -6.851565    1.152844   -0.237533
     14          1           0       -5.027848   -0.273253    1.281433
     15          1           0       -4.174756    1.029999    0.459915
     16          1           0       -6.227325   -0.826666   -0.841501
     17          1           0       -5.374819    0.475363   -1.663421
     18          1           0       -6.423770    2.152002   -0.106096
     19          1           0       -7.281119    0.842575    0.720494
     20          1           0       -7.664790    1.225180   -0.966432
     21          6           0        5.326289   -0.983696   -0.226162
     22          6           0        4.090601   -1.613367   -0.408123
     23          6           0        2.901894   -0.882419   -0.323036
     24          6           0        2.986159    0.482662   -0.053327
     25          6           0        4.202008    1.138677    0.132806
     26          6           0        5.377958    0.387898    0.043247
     27          1           0        6.244750   -1.559216   -0.293998
     28          1           0        4.047442   -2.678428   -0.617470
     29          1           0        1.931767   -1.344602   -0.459632
     30          1           0        4.213079    2.201818    0.340236
     31          1           0        6.336195    0.879560    0.185008
     32          7           0        1.734481    1.266981    0.039119
     33          8           0        1.835693    2.468408    0.277794
     34          8           0        0.675903    0.665452   -0.128848
 ---------------------------------------------------------------------

 SCF Done:  E(RHF) =  -669.536026227     A.U. after   15 cycles
 E2 =    -0.2091908629D+01 EUMP2 =    -0.67162793485527D+03

 The electronic state is 1-A.
 Alpha  occ. eigenvalues --  -20.60938 -20.60927 -15.85969 -11.31260 -11.27829
 Alpha  occ. eigenvalues --  -11.27797 -11.27563 -11.26831 -11.26814 -11.20907
 Alpha  occ. eigenvalues --  -11.20536 -11.20466 -11.20455 -11.20398 -11.20220
 Alpha  occ. eigenvalues --   -1.60002  -1.39558  -1.19430  -1.08842  -1.07535
 Alpha  occ. eigenvalues --   -1.04821  -1.02666  -0.95699  -0.95157  -0.86243
 Alpha  occ. eigenvalues --   -0.86183  -0.82523  -0.78757  -0.77577  -0.77337
 Alpha  occ. eigenvalues --   -0.72217  -0.71313  -0.70539  -0.65096  -0.64826
 Alpha  occ. eigenvalues --   -0.64129  -0.62172  -0.60007  -0.58545  -0.56773
 Alpha  occ. eigenvalues --   -0.55332  -0.54433  -0.53157  -0.52919  -0.51896
 Alpha  occ. eigenvalues --   -0.51603  -0.49285  -0.48949  -0.48772  -0.47077
 Alpha  occ. eigenvalues --   -0.45737  -0.45015  -0.44894  -0.44692  -0.42944
 Alpha  occ. eigenvalues --   -0.37412  -0.36421
 Alpha virt. eigenvalues --    0.04925   0.11220   0.16422   0.21052   0.23731
 Alpha virt. eigenvalues --    0.24642   0.26645   0.27529   0.27890   0.28431
 Alpha virt. eigenvalues --    0.29338   0.30954   0.31668   0.32417   0.32594

 Mulliken charges:
               1
     1  C   -0.298407
     2  C   -0.302748
     3  C   -0.473812
     4  H    0.143755
     5  H    0.152399
     6  H    0.144789
     7  H    0.174621
     8  H    0.160614
     9  H    0.145722
    10  H    0.152715
    11  C   -0.298841
    12  C   -0.299090
    13  C   -0.475404
    14  H    0.146676
    15  H    0.154579
    16  H    0.149287
    17  H    0.152125
    18  H    0.156208
    19  H    0.153724
    20  H    0.157894
    21  C   -0.170277
    22  C   -0.220079
    23  C   -0.173330
    24  C    0.156267
    25  C   -0.170381
    26  C   -0.218877
    27  H    0.225885
    28  H    0.224341
    29  H    0.282354
    30  H    0.275588
    31  H    0.223637
    32  N    0.493061
    33  O   -0.459433
    34  O   -0.465561
 Sum of Mulliken charges =  -0.00000

 Dipole moment (field-independent basis, Debye):
    X=              4.6305    Y=             -2.5564    Z=             -0.3481  Tot=              5.3007
 Quadrupole moment (field-independent basis, Debye-Ang):
   XX=            -68.7979   YY=            -94.6676   ZZ=            -95.3676
   XY=             -3.2690   XZ=             -0.7200   YZ=              0.5848

 Normal termination of Gaussian 16 at Thu May  6 10:43:20 2021.
