 Gaussian 16, Revision A.03,
 Gaussian 16:  EM64L-G16RevA.03 25-Dec-2016

 -------------
 #p 6-31g* mp2
 -------------

 ------------------------------------------------------
 Input file generated by CHIRIPA (05-May-2021 14:57:24)
 ------------------------------------------------------
 Symbolic Z-matrix:
 Charge =  0 Multiplicity = 1

                         Standard orientation:
 ---------------------------------------------------------------------
 Center     Atomic      Atomic             Coordinates (Angstroms)
 Number     Number       Type             X           Y           Z
 ---------------------------------------------------------------------
      1          6           0        5.603599   -0.005665    0.096308
      2          6           0        4.877106    1.129046   -0.279405
      3          6           0        3.487919    1.067030   -0.423844
      4          6           0        2.854653   -0.151388   -0.183593
      5          6           0        3.550656   -1.299341    0.192005
      6          6           0        4.939227   -1.214106    0.330401
      7          1           0        6.682514    0.051529    0.206164
      8          1           0        5.390415    2.068871   -0.461854
      9          1           0        2.900945    1.930121   -0.713591
     10          1           0        3.011029   -2.222154    0.367041
     11          1           0        5.500858   -2.096948    0.622302
     12          7           0        1.384309   -0.229332   -0.333305
     13          8           0        0.849984   -1.314623   -0.115870
     14          8           0        0.794019    0.796342   -0.665250
     15          6           0       -2.349523    2.515744    0.554064
     16          6           0       -1.867590    1.485849    1.368668
     17          6           0       -2.274916    0.165007    1.158881
     18          6           0       -3.169245   -0.091277    0.120717
     19          6           0       -3.667192    0.913080   -0.707899
     20          6           0       -3.246205    2.226582   -0.479797
     21          1           0       -2.027796    3.538955    0.724146
     22          1           0       -1.171128    1.707473    2.172327
     23          1           0       -1.917513   -0.651497    1.774513
     24          1           0       -4.360542    0.661149   -1.501130
     25          1           0       -3.622125    3.024400   -1.114001
     26          7           0       -3.607693   -1.485708   -0.111069
     27          8           0       -4.396374   -1.685317   -1.032360
     28          8           0       -3.154368   -2.352649    0.632937
 ---------------------------------------------------------------------

 SCF Done:  E(RHF) =  -868.337507533     A.U. after   16 cycles
 E2 =    -0.2601093913D+01 EUMP2 =    -0.87093860144550D+03

 The electronic state is 1-A.
 Alpha  occ. eigenvalues --  -20.61143 -20.61124 -20.59351 -20.59316 -15.86146
 Alpha  occ. eigenvalues --  -15.84386 -11.31500 -11.29573 -11.28091 -11.28030
 Alpha  occ. eigenvalues --  -11.27790 -11.27082 -11.27040 -11.26233 -11.26126
 Alpha  occ. eigenvalues --  -11.25995 -11.25262 -11.25198  -1.60202  -1.58406
 Alpha  occ. eigenvalues --   -1.39754  -1.37967  -1.19669  -1.17754  -1.09068
 Alpha  occ. eigenvalues --   -1.07213  -1.05064  -1.03184  -0.95904  -0.94078
 Alpha  occ. eigenvalues --   -0.86462  -0.84617  -0.82734  -0.80948  -0.77791
 Alpha  occ. eigenvalues --   -0.75988  -0.72366  -0.71538  -0.70769  -0.70635
 Alpha  occ. eigenvalues --   -0.69700  -0.68976  -0.65317  -0.65062  -0.63474
 Alpha  occ. eigenvalues --   -0.63282  -0.62409  -0.60584  -0.55564  -0.53786
 Alpha  occ. eigenvalues --   -0.53403  -0.53151  -0.51554  -0.51359  -0.49135
 Alpha  occ. eigenvalues --   -0.49013  -0.47386  -0.47368  -0.45162  -0.43414
 Alpha  occ. eigenvalues --   -0.37655  -0.36669  -0.35709  -0.34657
 Alpha virt. eigenvalues --    0.04713   0.06602   0.10986   0.12931   0.16226
 Alpha virt. eigenvalues --    0.18097   0.21151   0.22703   0.27060   0.28038
 Alpha virt. eigenvalues --    0.28561   0.29615   0.30718   0.32133   0.32280

 Mulliken charges:
               1
     1  C   -0.170653
     2  C   -0.218488
     3  C   -0.172037
     4  C    0.157770
     5  C   -0.171174
     6  C   -0.218504
     7  H    0.226583
     8  H    0.223397
     9  H    0.273233
    10  H    0.278519
    11  H    0.225223
    12  N    0.486218
    13  O   -0.456970
    14  O   -0.460930
    15  C   -0.165650
    16  C   -0.206623
    17  C   -0.155113
    18  C    0.161109
    19  C   -0.170662
    20  C   -0.217733
    21  H    0.217286
    22  H    0.213623
    23  H    0.273638
    24  H    0.270269
    25  H    0.216243
    26  N    0.489080
    27  O   -0.467218
    28  O   -0.460436
 Sum of Mulliken charges =  -0.00000

 Dipole moment (field-independent basis, Debye):
    X=              7.0865    Y=              5.0124    Z=              1.3452  Tot=              8.7836
 Quadrupole moment (field-independent basis, Debye-Ang):
   XX=            -85.5227   YY=           -101.7130   ZZ=           -103.0155
   XY=            -16.8652   XZ=              0.6588   YZ=             -2.5095

 Normal termination of Gaussian 16 at Wed May  5 19:29:15 2021.
