 Gaussian 16, Revision A.03,
 Gaussian 16:  EM64L-G16RevA.03 25-Dec-2016

 -------------
 #p 6-31g* mp2
 -------------

 ------------------------------------------------------
 Input file generated by CHIRIPA (05-May-2021 14:55:20)
 ------------------------------------------------------
 Symbolic Z-matrix:
 Charge =  0 Multiplicity = 1

                         Standard orientation:
 ---------------------------------------------------------------------
 Center     Atomic      Atomic             Coordinates (Angstroms)
 Number     Number       Type             X           Y           Z
 ---------------------------------------------------------------------
      1          6           0       -1.712613    2.622110    0.858349
      2          6           0       -0.752321    2.346194   -0.120543
      3          6           0       -0.790360    1.144274   -0.833626
      4          6           0       -1.807206    0.236778   -0.540769
      5          6           0       -2.778311    0.482724    0.428641
      6          6           0       -2.720766    1.691136    1.129339
      7          1           0       -1.675487    3.558312    1.407480
      8          1           0        0.031771    3.067346   -0.333111
      9          1           0       -0.059589    0.905120   -1.596644
     10          1           0       -3.547850   -0.255702    0.618257
     11          1           0       -3.467869    1.902738    1.889015
     12          7           0       -1.857801   -1.039077   -1.289123
     13          8           0       -2.763845   -1.822079   -1.012304
     14          8           0       -0.990456   -1.231931   -2.138333
     15          6           0        1.902972   -1.218023    0.616296
     16          6           0        0.801618   -1.119691    1.672391
     17          6           0        0.011034   -2.419510    1.824837
     18          1           0        1.453784   -1.490945   -0.348426
     19          1           0        2.586988   -2.034959    0.884870
     20          1           0        0.120665   -0.302285    1.402635
     21          1           0        1.253457   -0.846783    2.634668
     22          1           0        0.672999   -3.240978    2.117396
     23          1           0       -0.466228   -2.693388    0.878363
     24          1           0       -0.771061   -2.326929    2.584848
     25          6           0        2.702128    0.073563    0.452329
     26          6           0        3.803482   -0.024769   -0.603766
     27          6           0        4.594067    1.275051   -0.756213
     28          1           0        2.018112    0.890499    0.183754
     29          1           0        3.151316    0.346485    1.417051
     30          1           0        3.351644   -0.297677   -1.566045
     31          1           0        4.484434   -0.842175   -0.334011
     32          1           0        5.071328    1.548928    0.190262
     33          1           0        3.932101    2.096519   -1.048772
     34          1           0        5.376161    1.182470   -1.516225
 ---------------------------------------------------------------------

 SCF Done:  E(RHF) =  -669.533914558     A.U. after   15 cycles
 E2 =    -0.2097789897D+01 EUMP2 =    -0.67163170445509D+03

 The electronic state is 1-A.
 Alpha  occ. eigenvalues --  -20.61028 -20.61020 -15.86028 -11.31300 -11.27915
 Alpha  occ. eigenvalues --  -11.27882 -11.27671 -11.26934 -11.26915 -11.21617
 Alpha  occ. eigenvalues --  -11.21384 -11.21267 -11.21207 -11.21026 -11.20643
 Alpha  occ. eigenvalues --   -1.60079  -1.39633  -1.19550  -1.08937  -1.08310
 Alpha  occ. eigenvalues --   -1.04933  -1.03411  -0.95873  -0.95770  -0.86875
 Alpha  occ. eigenvalues --   -0.86318  -0.82614  -0.79483  -0.78096  -0.77663
 Alpha  occ. eigenvalues --   -0.72262  -0.71456  -0.70639  -0.65186  -0.65050
 Alpha  occ. eigenvalues --   -0.64865  -0.62260  -0.60854  -0.59248  -0.57466
 Alpha  occ. eigenvalues --   -0.55430  -0.55176  -0.53376  -0.53003  -0.52525
 Alpha  occ. eigenvalues --   -0.52268  -0.49833  -0.49024  -0.49008  -0.47769
 Alpha  occ. eigenvalues --   -0.46521  -0.45637  -0.45494  -0.44916  -0.43639
 Alpha  occ. eigenvalues --   -0.37464  -0.36457
 Alpha virt. eigenvalues --    0.04792   0.11050   0.16161   0.20280   0.23059
 Alpha virt. eigenvalues --    0.24089   0.26130   0.26955   0.27790   0.28219
 Alpha virt. eigenvalues --    0.29442   0.30768   0.31673   0.31889   0.32087

 Mulliken charges:
               1
     1  C   -0.170946
     2  C   -0.215333
     3  C   -0.173604
     4  C    0.158503
     5  C   -0.171250
     6  C   -0.217310
     7  H    0.226927
     8  H    0.224834
     9  H    0.276750
    10  H    0.276594
    11  H    0.224534
    12  N    0.488706
    13  O   -0.457641
    14  O   -0.459675
    15  C   -0.307256
    16  C   -0.309373
    17  C   -0.480797
    18  H    0.163482
    19  H    0.150391
    20  H    0.158465
    21  H    0.148158
    22  H    0.155739
    23  H    0.165655
    24  H    0.156275
    25  C   -0.299671
    26  C   -0.301321
    27  C   -0.474002
    28  H    0.140422
    29  H    0.148359
    30  H    0.155314
    31  H    0.154512
    32  H    0.155090
    33  H    0.147388
    34  H    0.162081
 Sum of Mulliken charges =  -0.00000

 Dipole moment (field-independent basis, Debye):
    X=             -0.0022    Y=              4.4353    Z=              2.5426  Tot=              5.1124
 Quadrupole moment (field-independent basis, Debye-Ang):
   XX=            -92.2626   YY=            -93.2864   ZZ=            -96.6508
   XY=             -8.0119   XZ=             -6.9028   YZ=             -2.3253

 Normal termination of Gaussian 16 at Thu May  6 06:07:56 2021.
