 Gaussian 16, Revision A.03,
 Gaussian 16:  EM64L-G16RevA.03 25-Dec-2016

 -------------
 #p 6-31g* mp2
 -------------

 ------------------------------------------------------
 Input file generated by CHIRIPA (05-May-2021 14:57:25)
 ------------------------------------------------------
 Symbolic Z-matrix:
 Charge =  0 Multiplicity = 1

                         Standard orientation:
 ---------------------------------------------------------------------
 Center     Atomic      Atomic             Coordinates (Angstroms)
 Number     Number       Type             X           Y           Z
 ---------------------------------------------------------------------
      1          6           0        2.343742   -1.974663    0.345097
      2          6           0        3.352920   -2.059077   -0.619762
      3          6           0        4.224980   -0.986909   -0.830750
      4          6           0        4.058487    0.159677   -0.055566
      5          6           0        3.062818    0.274190    0.913361
      6          6           0        2.202161   -0.810352    1.107236
      7          1           0        1.670734   -2.812355    0.502351
      8          1           0        3.465226   -2.962053   -1.213115
      9          1           0        5.014900   -1.025427   -1.570994
     10          1           0        2.975653    1.187425    1.489401
     11          1           0        1.419326   -0.741983    1.857263
     12          7           0        4.975662    1.301282   -0.269871
     13          8           0        4.808055    2.300363    0.426106
     14          8           0        5.844784    1.175376   -1.129762
     15          6           0       -5.905731    1.442390   -0.590603
     16          6           0       -5.872748    0.088586   -0.940813
     17          6           0       -4.770628   -0.704372   -0.607500
     18          6           0       -3.714127   -0.108219    0.079301
     19          6           0       -3.717390    1.237742    0.442166
     20          6           0       -4.829844    2.011643    0.098553
     21          1           0       -6.765899    2.050977   -0.853528
     22          1           0       -6.706870   -0.356185   -1.476038
     23          1           0       -4.718976   -1.754974   -0.866320
     24          1           0       -2.870856    1.652857    0.975532
     25          1           0       -4.852722    3.062760    0.371821
     26          7           0       -2.541892   -0.937601    0.437615
     27          8           0       -1.623811   -0.388534    1.042834
     28          8           0       -2.563371   -2.121033    0.106459
 ---------------------------------------------------------------------

 SCF Done:  E(RHF) =  -868.340464477     A.U. after   16 cycles
 E2 =    -0.2598192844D+01 EUMP2 =    -0.87093865732110D+03

 The electronic state is 1-A.
 Alpha  occ. eigenvalues --  -20.61670 -20.61664 -20.60006 -20.60001 -15.86695
 Alpha  occ. eigenvalues --  -15.85047 -11.31770 -11.30158 -11.28305 -11.28299
 Alpha  occ. eigenvalues --  -11.27989 -11.27255 -11.27240 -11.26719 -11.26624
 Alpha  occ. eigenvalues --  -11.26233 -11.25674 -11.25428  -1.60731  -1.59087
 Alpha  occ. eigenvalues --   -1.40293  -1.38648  -1.19914  -1.18273  -1.09364
 Alpha  occ. eigenvalues --   -1.07688  -1.05274  -1.03629  -0.96249  -0.94580
 Alpha  occ. eigenvalues --   -0.86685  -0.85016  -0.83094  -0.81423  -0.78170
 Alpha  occ. eigenvalues --   -0.76527  -0.72943  -0.72023  -0.71272  -0.71019
 Alpha  occ. eigenvalues --   -0.70407  -0.69327  -0.65573  -0.65274  -0.63904
 Alpha  occ. eigenvalues --   -0.63579  -0.62625  -0.60977  -0.55784  -0.54052
 Alpha  occ. eigenvalues --   -0.53617  -0.53362  -0.51984  -0.51691  -0.49696
 Alpha  occ. eigenvalues --   -0.49667  -0.48043  -0.47999  -0.45756  -0.44112
 Alpha  occ. eigenvalues --   -0.37875  -0.36863  -0.36198  -0.35230
 Alpha virt. eigenvalues --    0.04349   0.05979   0.10796   0.12433   0.15907
 Alpha virt. eigenvalues --    0.17573   0.20962   0.22699   0.26895   0.27791
 Alpha virt. eigenvalues --    0.28577   0.29553   0.30566   0.31968   0.32349

 Mulliken charges:
               1
     1  C   -0.171219
     2  C   -0.219720
     3  C   -0.173622
     4  C    0.157513
     5  C   -0.174926
     6  C   -0.215287
     7  H    0.233065
     8  H    0.220009
     9  H    0.271348
    10  H    0.271591
    11  H    0.238699
    12  N    0.488213
    13  O   -0.463613
    14  O   -0.463721
    15  C   -0.169723
    16  C   -0.218531
    17  C   -0.170415
    18  C    0.157884
    19  C   -0.170059
    20  C   -0.218426
    21  H    0.227887
    22  H    0.225112
    23  H    0.275562
    24  H    0.275404
    25  H    0.225881
    26  N    0.491014
    27  O   -0.468358
    28  O   -0.461560
 Sum of Mulliken charges =  -0.00000

 Dipole moment (field-independent basis, Debye):
    X=             -7.9308    Y=             -1.1605    Z=             -0.4324  Tot=              8.0269
 Quadrupole moment (field-independent basis, Debye-Ang):
   XX=           -100.1217   YY=           -102.8466   ZZ=           -102.7652
   XY=            -27.4887   XZ=              7.3396   YZ=              4.6798

 Normal termination of Gaussian 16 at Thu May  6 13:02:58 2021.
