 Gaussian 16, Revision A.03,
 Gaussian 16:  EM64L-G16RevA.03 25-Dec-2016

 -------------
 #p 6-31g* mp2
 -------------

 ------------------------------------------------------
 Input file generated by CHIRIPA (05-May-2021 14:51:08)
 ------------------------------------------------------
 Symbolic Z-matrix:
 Charge =  0 Multiplicity = 1

                         Standard orientation:
 ---------------------------------------------------------------------
 Center     Atomic      Atomic             Coordinates (Angstroms)
 Number     Number       Type             X           Y           Z
 ---------------------------------------------------------------------
      1          6           0        3.789918   -0.503429   -0.436996
      2          6           0        2.787979   -1.601641   -0.079179
      3          6           0        3.133327   -2.947612   -0.717057
      4          1           0        3.829437   -0.393720   -1.529400
      5          1           0        4.794147   -0.814711   -0.117585
      6          1           0        1.785727   -1.287780   -0.397925
      7          1           0        2.750700   -1.708616    1.012509
      8          1           0        4.121615   -3.286640   -0.390027
      9          1           0        3.151159   -2.863413   -1.808475
     10          1           0        2.404152   -3.718216   -0.448107
     11          6           0        3.458170    0.848051    0.193221
     12          6           0        4.460110    1.946262   -0.164596
     13          6           0        4.114761    3.292234    0.473282
     14          1           0        2.453941    1.159332   -0.126190
     15          1           0        3.418652    0.738341    1.285625
     16          1           0        4.497389    2.053238   -1.256284
     17          1           0        5.462361    1.632402    0.154150
     18          1           0        4.096929    3.208034    1.564700
     19          1           0        3.126473    3.631261    0.146252
     20          1           0        4.843936    4.062837    0.204332
     21          6           0       -4.375393   -0.050752    0.057628
     22          6           0       -4.723243    1.364024   -0.406480
     23          6           0       -6.230087    1.591836   -0.530245
     24          1           0       -4.800578   -0.776544   -0.649045
     25          1           0       -4.856601   -0.239775    1.027219
     26          1           0       -4.240392    1.550814   -1.374250
     27          1           0       -4.297017    2.086538    0.301277
     28          1           0       -6.724239    1.432505    0.433616
     29          1           0       -6.667291    0.893737   -1.251432
     30          1           0       -6.456228    2.609578   -0.863295
     31          6           0       -2.872694   -0.293870    0.186147
     32          6           0       -2.524845   -1.708644    0.650255
     33          6           0       -1.018002   -1.936458    0.774020
     34          1           0       -2.391488   -0.104847   -0.783444
     35          1           0       -2.447510    0.431923    0.892820
     36          1           0       -2.951070   -2.431160   -0.057502
     37          1           0       -3.007696   -1.895436    1.618026
     38          1           0       -0.580797   -1.238358    1.495206
     39          1           0       -0.523850   -1.777126   -0.189841
     40          1           0       -0.791860   -2.954200    1.107069
 ---------------------------------------------------------------------

 SCF Done:  E(RHF) =  -470.732970023     A.U. after   11 cycles
 E2 =    -0.1582693517D+01 EUMP2 =    -0.47231566353987D+03

 The electronic state is 1-A.
 Alpha  occ. eigenvalues --  -11.21612 -11.21593 -11.21568 -11.21456 -11.21416
 Alpha  occ. eigenvalues --  -11.21356 -11.21346 -11.21280 -11.21079 -11.21048
 Alpha  occ. eigenvalues --  -11.21046 -11.20996  -1.08439  -1.08365  -1.03547
 Alpha  occ. eigenvalues --   -1.03454  -0.95997  -0.95910  -0.87016  -0.86927
 Alpha  occ. eigenvalues --   -0.79690  -0.79447  -0.78279  -0.78141  -0.65084
 Alpha  occ. eigenvalues --   -0.64991  -0.61001  -0.60813  -0.59360  -0.59288
 Alpha  occ. eigenvalues --   -0.57638  -0.57494  -0.55310  -0.55176  -0.52693
 Alpha  occ. eigenvalues --   -0.52604  -0.52451  -0.52315  -0.49989  -0.49818
 Alpha  occ. eigenvalues --   -0.48115  -0.47682  -0.46734  -0.46446  -0.45890
 Alpha  occ. eigenvalues --   -0.45735  -0.45676  -0.45461  -0.43788  -0.43718
 Alpha virt. eigenvalues --    0.22079   0.23039   0.23632   0.24785   0.26047
 Alpha virt. eigenvalues --    0.26590   0.26948   0.27475   0.27974   0.29145
 Alpha virt. eigenvalues --    0.30365   0.31070   0.31442   0.31836   0.32473

 Mulliken charges:
               1
     1  C   -0.297924
     2  C   -0.303738
     3  C   -0.476302
     4  H    0.148962
     5  H    0.149021
     6  H    0.158331
     7  H    0.151826
     8  H    0.154813
     9  H    0.154296
    10  H    0.160702
    11  C   -0.298227
    12  C   -0.299535
    13  C   -0.475677
    14  H    0.149507
    15  H    0.149380
    16  H    0.151801
    17  H    0.151871
    18  H    0.155038
    19  H    0.155128
    20  H    0.160123
    21  C   -0.298235
    22  C   -0.299655
    23  C   -0.475710
    24  H    0.149660
    25  H    0.149629
    26  H    0.151785
    27  H    0.151983
    28  H    0.155233
    29  H    0.155185
    30  H    0.160269
    31  C   -0.298234
    32  C   -0.300240
    33  C   -0.476897
    34  H    0.148877
    35  H    0.149773
    36  H    0.151746
    37  H    0.151808
    38  H    0.156191
    39  H    0.157420
    40  H    0.160013
 Sum of Mulliken charges =  -0.00000

 Dipole moment (field-independent basis, Debye):
    X=             -0.0274    Y=             -0.0078    Z=              0.0135  Tot=              0.0315
 Quadrupole moment (field-independent basis, Debye-Ang):
   XX=            -85.8226   YY=            -85.8682   ZZ=            -83.3144
   XY=              0.3108   XZ=              0.3662   YZ=             -0.2763

 Normal termination of Gaussian 16 at Wed May  5 22:55:25 2021.
