 Gaussian 16, Revision A.03,
 Gaussian 16:  EM64L-G16RevA.03 25-Dec-2016

 -------------
 #p 6-31g* mp2
 -------------

 ------------------------------------------------------
 Input file generated by CHIRIPA (05-May-2021 14:55:26)
 ------------------------------------------------------
 Symbolic Z-matrix:
 Charge =  0 Multiplicity = 1

                         Standard orientation:
 ---------------------------------------------------------------------
 Center     Atomic      Atomic             Coordinates (Angstroms)
 Number     Number       Type             X           Y           Z
 ---------------------------------------------------------------------
      1          6           0        5.769021   -0.933094    0.852679
      2          6           0        4.655627   -1.671860    0.439037
      3          6           0        3.516819   -1.025583   -0.050851
      4          6           0        3.525735    0.366994   -0.113617
      5          6           0        4.619406    1.130906    0.290875
      6          6           0        5.747395    0.463469    0.777410
      7          1           0        6.649472   -1.443357    1.231933
      8          1           0        4.669604   -2.756555    0.496361
      9          1           0        2.641074   -1.572928   -0.377810
     10          1           0        4.575785    2.211066    0.221817
     11          1           0        6.610626    1.039781    1.097944
     12          7           0        2.325857    1.062380   -0.630464
     13          8           0        2.358776    2.290185   -0.675702
     14          8           0        1.375193    0.366450   -0.980545
     15          6           0       -4.017396   -0.396596    0.168746
     16          6           0       -3.317268   -1.335716   -0.814036
     17          6           0       -1.819955   -1.472562   -0.536328
     18          1           0       -3.542438    0.592943    0.122139
     19          1           0       -3.865709   -0.768247    1.191616
     20          1           0       -3.471398   -0.963164   -1.834852
     21          1           0       -3.794072   -2.323081   -0.765223
     22          1           0       -1.649361   -1.866146    0.470940
     23          1           0       -1.324854   -0.498502   -0.604766
     24          1           0       -1.339296   -2.148371   -1.250546
     25          6           0       -5.514736   -0.249513   -0.095955
     26          6           0       -6.214865    0.689607    0.886827
     27          6           0       -7.712177    0.826452    0.609119
     28          1           0       -5.666423    0.122138   -1.118824
     29          1           0       -5.989694   -1.239052   -0.049349
     30          1           0       -5.738060    1.676972    0.838015
     31          1           0       -6.060735    0.317054    1.907643
     32          1           0       -8.207278   -0.147607    0.677557
     33          1           0       -7.882772    1.220036   -0.398150
     34          1           0       -8.192836    1.502262    1.323338
 ---------------------------------------------------------------------

 SCF Done:  E(RHF) =  -669.536015213     A.U. after   15 cycles
 E2 =    -0.2090655593D+01 EUMP2 =    -0.67162667080602D+03

 The electronic state is 1-A.
 Alpha  occ. eigenvalues --  -20.60877 -20.60869 -15.85913 -11.31241 -11.27809
 Alpha  occ. eigenvalues --  -11.27797 -11.27550 -11.26819 -11.26807 -11.21061
 Alpha  occ. eigenvalues --  -11.20752 -11.20702 -11.20621 -11.20579 -11.19842
 Alpha  occ. eigenvalues --   -1.59942  -1.39496  -1.19412  -1.08817  -1.07710
 Alpha  occ. eigenvalues --   -1.04809  -1.02770  -0.95660  -0.95201  -0.86224
 Alpha  occ. eigenvalues --   -0.86203  -0.82490  -0.78851  -0.77560  -0.77487
 Alpha  occ. eigenvalues --   -0.72140  -0.71257  -0.70521  -0.65069  -0.64813
 Alpha  occ. eigenvalues --   -0.64340  -0.62155  -0.60158  -0.58613  -0.56821
 Alpha  occ. eigenvalues --   -0.55316  -0.54473  -0.53142  -0.52901  -0.51907
 Alpha  occ. eigenvalues --   -0.51623  -0.49184  -0.48892  -0.48837  -0.47155
 Alpha  occ. eigenvalues --   -0.45885  -0.45081  -0.44996  -0.44816  -0.43039
 Alpha  occ. eigenvalues --   -0.37394  -0.36412
 Alpha virt. eigenvalues --    0.04977   0.11243   0.16462   0.21341   0.23569
 Alpha virt. eigenvalues --    0.25080   0.27215   0.27373   0.27928   0.28215
 Alpha virt. eigenvalues --    0.29013   0.30885   0.32077   0.32237   0.32633

 Mulliken charges:
               1
     1  C   -0.170640
     2  C   -0.218641
     3  C   -0.170898
     4  C    0.157752
     5  C   -0.170705
     6  C   -0.218644
     7  H    0.225786
     8  H    0.223755
     9  H    0.276810
    10  H    0.275663
    11  H    0.223586
    12  N    0.491883
    13  O   -0.459909
    14  O   -0.463014
    15  C   -0.298454
    16  C   -0.299204
    17  C   -0.481879
    18  H    0.153950
    19  H    0.146619
    20  H    0.152024
    21  H    0.146187
    22  H    0.145834
    23  H    0.182216
    24  H    0.154237
    25  C   -0.297752
    26  C   -0.299323
    27  C   -0.475336
    28  H    0.149490
    29  H    0.147379
    30  H    0.152976
    31  H    0.150505
    32  H    0.153886
    33  H    0.155029
    34  H    0.158830
 Sum of Mulliken charges =  -0.00000

 Dipole moment (field-independent basis, Debye):
    X=              4.4776    Y=             -2.3287    Z=              1.7812  Tot=              5.3520
 Quadrupole moment (field-independent basis, Debye-Ang):
   XX=            -66.5345   YY=            -92.5326   ZZ=            -95.6454
   XY=             -4.9485   XZ=              6.4273   YZ=              1.1046

 Normal termination of Gaussian 16 at Thu May  6 14:25:41 2021.
