 Gaussian 16, Revision A.03,
 Gaussian 16:  EM64L-G16RevA.03 25-Dec-2016

 -------------
 #p 6-31g* mp2
 -------------

 ------------------------------------------------------
 Input file generated by CHIRIPA (05-May-2021 14:55:24)
 ------------------------------------------------------
 Symbolic Z-matrix:
 Charge =  0 Multiplicity = 1

                         Standard orientation:
 ---------------------------------------------------------------------
 Center     Atomic      Atomic             Coordinates (Angstroms)
 Number     Number       Type             X           Y           Z
 ---------------------------------------------------------------------
      1          6           0       -0.562181   -2.787921   -0.237435
      2          6           0       -1.188850   -2.205974   -1.344297
      3          6           0       -1.999518   -1.077550   -1.189290
      4          6           0       -2.162348   -0.554816    0.092710
      5          6           0       -1.551409   -1.111914    1.215067
      6          6           0       -0.745138   -2.240000    1.036469
      7          1           0        0.065857   -3.664377   -0.367011
      8          1           0       -1.048563   -2.629354   -2.334809
      9          1           0       -2.496510   -0.606987   -2.028925
     10          1           0       -1.710213   -0.667284    2.190005
     11          1           0       -0.259701   -2.689847    1.897882
     12          7           0       -3.018238    0.639617    0.269296
     13          8           0       -3.145686    1.081080    1.409254
     14          8           0       -3.545430    1.111734   -0.735597
     15          6           0        3.186441    0.681616    0.300297
     16          6           0        3.821190   -0.533954   -0.376068
     17          6           0        5.018678   -1.083786    0.399496
     18          1           0        3.944912    1.468407    0.412660
     19          1           0        2.870883    0.404364    1.315654
     20          1           0        4.134204   -0.254869   -1.390341
     21          1           0        3.061070   -1.317872   -0.487008
     22          1           0        4.717847   -1.389338    1.406839
     23          1           0        5.797079   -0.320295    0.498373
     24          1           0        5.457109   -1.952347   -0.101744
     25          6           0        1.988055    1.242667   -0.463130
     26          6           0        1.353306    2.458237    0.213235
     27          6           0        0.155818    3.008069   -0.562329
     28          1           0        2.303612    1.519919   -1.478487
     29          1           0        1.229584    0.455876   -0.575494
     30          1           0        2.113426    3.242155    0.324175
     31          1           0        1.040291    2.179153    1.227508
     32          1           0       -0.622583    2.244579   -0.661206
     33          1           0        0.456648    3.313621   -1.569671
     34          1           0       -0.282613    3.876629   -0.061088
 ---------------------------------------------------------------------

 SCF Done:  E(RHF) =  -669.535960389     A.U. after   15 cycles
 E2 =    -0.2093354961D+01 EUMP2 =    -0.67162931535010D+03

 The electronic state is 1-A.
 Alpha  occ. eigenvalues --  -20.60877 -20.60871 -15.85916 -11.31315 -11.27879
 Alpha  occ. eigenvalues --  -11.27874 -11.27634 -11.26907 -11.26895 -11.21897
 Alpha  occ. eigenvalues --  -11.21518 -11.21412 -11.21396 -11.21306 -11.20659
 Alpha  occ. eigenvalues --   -1.59947  -1.39498  -1.19491  -1.08881  -1.08477
 Alpha  occ. eigenvalues --   -1.04888  -1.03545  -0.95976  -0.95708  -0.86990
 Alpha  occ. eigenvalues --   -0.86284  -0.82533  -0.79626  -0.78268  -0.77579
 Alpha  occ. eigenvalues --   -0.72137  -0.71294  -0.70584  -0.65138  -0.65118
 Alpha  occ. eigenvalues --   -0.64883  -0.62229  -0.60949  -0.59373  -0.57578
 Alpha  occ. eigenvalues --   -0.55386  -0.55273  -0.53243  -0.52975  -0.52647
 Alpha  occ. eigenvalues --   -0.52395  -0.49935  -0.48899  -0.48893  -0.47935
 Alpha  occ. eigenvalues --   -0.46690  -0.45797  -0.45707  -0.44867  -0.43783
 Alpha  occ. eigenvalues --   -0.37457  -0.36482
 Alpha virt. eigenvalues --    0.04939   0.11138   0.16389   0.21208   0.22637
 Alpha virt. eigenvalues --    0.24043   0.26322   0.27031   0.27380   0.27803
 Alpha virt. eigenvalues --    0.28284   0.30734   0.31262   0.31598   0.32096

 Mulliken charges:
               1
     1  C   -0.171189
     2  C   -0.217943
     3  C   -0.171967
     4  C    0.155897
     5  C   -0.171495
     6  C   -0.218602
     7  H    0.226608
     8  H    0.224543
     9  H    0.276735
    10  H    0.276119
    11  H    0.224167
    12  N    0.490307
    13  O   -0.458804
    14  O   -0.458939
    15  C   -0.296873
    16  C   -0.299021
    17  C   -0.475441
    18  H    0.150674
    19  H    0.147009
    20  H    0.152513
    21  H    0.146420
    22  H    0.153113
    23  H    0.157342
    24  H    0.158656
    25  C   -0.301774
    26  C   -0.300647
    27  C   -0.474169
    28  H    0.148301
    29  H    0.152148
    30  H    0.151230
    31  H    0.151750
    32  H    0.153103
    33  H    0.153332
    34  H    0.166897
 Sum of Mulliken charges =  -0.00000

 Dipole moment (field-independent basis, Debye):
    X=              2.8820    Y=             -4.1681    Z=             -0.6235  Tot=              5.1057
 Quadrupole moment (field-independent basis, Debye-Ang):
   XX=           -108.9863   YY=            -90.3077   ZZ=            -89.9642
   XY=              8.3197   XZ=              1.9620   YZ=             -0.1409

 Normal termination of Gaussian 16 at Wed May  5 22:23:34 2021.
