 Gaussian 16, Revision A.03,
 Gaussian 16:  EM64L-G16RevA.03 25-Dec-2016

 -------------
 #p 6-31g* mp2
 -------------

 ------------------------------------------------------
 Input file generated by CHIRIPA (05-May-2021 14:57:26)
 ------------------------------------------------------
 Symbolic Z-matrix:
 Charge =  0 Multiplicity = 1

                         Standard orientation:
 ---------------------------------------------------------------------
 Center     Atomic      Atomic             Coordinates (Angstroms)
 Number     Number       Type             X           Y           Z
 ---------------------------------------------------------------------
      1          6           0        1.340851   -0.402732    1.329889
      2          6           0        2.236826    0.586948    1.747361
      3          6           0        3.441282    0.787266    1.066402
      4          6           0        3.719006   -0.023782   -0.032852
      5          6           0        2.846758   -1.018073   -0.473145
      6          6           0        1.648135   -1.200677    0.222919
      7          1           0        0.407466   -0.551463    1.864741
      8          1           0        2.000814    1.208126    2.606710
      9          1           0        4.152946    1.546165    1.368106
     10          1           0        3.109734   -1.621667   -1.333341
     11          1           0        0.954199   -1.970039   -0.103548
     12          7           0        4.991023    0.178909   -0.761749
     13          8           0        5.212305   -0.548819   -1.727193
     14          8           0        5.742662    1.061668   -0.353811
     15          6           0       -3.259618   -2.430843    0.249257
     16          6           0       -2.485293   -1.541494    1.001588
     17          6           0       -2.615313   -0.160942    0.823499
     18          6           0       -3.533507    0.297721   -0.119813
     19          6           0       -4.319260   -0.563030   -0.884660
     20          6           0       -4.172520   -1.939638   -0.689809
     21          1           0       -3.152121   -3.501757    0.394112
     22          1           0       -1.775521   -1.920127    1.731592
     23          1           0       -2.028451    0.549911    1.392446
     24          1           0       -5.018370   -0.155635   -1.604863
     25          1           0       -4.775192   -2.627974   -1.275493
     26          7           0       -3.680003    1.757163   -0.317221
     27          8           0       -4.496047    2.135955   -1.154613
     28          8           0       -2.976010    2.494646    0.369182
 ---------------------------------------------------------------------

 SCF Done:  E(RHF) =  -868.336256998     A.U. after   16 cycles
 E2 =    -0.2600875414D+01 EUMP2 =    -0.87093713241225D+03

 The electronic state is 1-A.
 Alpha  occ. eigenvalues --  -20.61458 -20.61446 -20.60934 -20.60926 -15.86518
 Alpha  occ. eigenvalues --  -15.85988 -11.32065 -11.31453 -11.28773 -11.28619
 Alpha  occ. eigenvalues --  -11.28454 -11.28027 -11.27990 -11.27915 -11.27847
 Alpha  occ. eigenvalues --  -11.27633 -11.27130 -11.27076  -1.60525  -1.60004
 Alpha  occ. eigenvalues --   -1.40075  -1.39555  -1.20274  -1.19638  -1.09625
 Alpha  occ. eigenvalues --   -1.09048  -1.05731  -1.05046  -0.96429  -0.95866
 Alpha  occ. eigenvalues --   -0.87106  -0.86456  -0.83292  -0.82678  -0.78303
 Alpha  occ. eigenvalues --   -0.77684  -0.72735  -0.72208  -0.71850  -0.71410
 Alpha  occ. eigenvalues --   -0.71325  -0.70827  -0.65933  -0.65763  -0.65301
 Alpha  occ. eigenvalues --   -0.65062  -0.63075  -0.62384  -0.56217  -0.55636
 Alpha  occ. eigenvalues --   -0.54012  -0.53835  -0.53360  -0.53149  -0.49505
 Alpha  occ. eigenvalues --   -0.49476  -0.48975  -0.48954  -0.45441  -0.44938
 Alpha  occ. eigenvalues --   -0.38243  -0.37740  -0.37249  -0.36619
 Alpha virt. eigenvalues --    0.04235   0.04847   0.10265   0.11008   0.15581
 Alpha virt. eigenvalues --    0.16260   0.18302   0.22128   0.24888   0.26309
 Alpha virt. eigenvalues --    0.27620   0.29282   0.29932   0.31057   0.32542

 Mulliken charges:
               1
     1  C   -0.171426
     2  C   -0.216834
     3  C   -0.169736
     4  C    0.159680
     5  C   -0.170447
     6  C   -0.217509
     7  H    0.214998
     8  H    0.225992
     9  H    0.277688
    10  H    0.276141
    11  H    0.220426
    12  N    0.487974
    13  O   -0.459949
    14  O   -0.458691
    15  C   -0.171117
    16  C   -0.225263
    17  C   -0.168802
    18  C    0.159197
    19  C   -0.168742
    20  C   -0.218294
    21  H    0.227939
    22  H    0.217171
    23  H    0.271744
    24  H    0.279180
    25  H    0.227185
    26  N    0.488463
    27  O   -0.456986
    28  O   -0.459981
 Sum of Mulliken charges =  -0.00000

 Dipole moment (field-independent basis, Debye):
    X=             -4.0760    Y=             -5.7461    Z=              3.0713  Tot=              7.6853
 Quadrupole moment (field-independent basis, Debye-Ang):
   XX=           -138.4433   YY=           -105.7925   ZZ=           -101.7149
   XY=             17.8659   XZ=             11.3725   YZ=              4.4058

 Normal termination of Gaussian 16 at Wed May  5 22:50:09 2021.
