 Gaussian 16, Revision A.03,
 Gaussian 16:  EM64L-G16RevA.03 25-Dec-2016

 -------------
 #p 6-31g* mp2
 -------------

 ------------------------------------------------------
 Input file generated by CHIRIPA (05-May-2021 14:53:18)
 ------------------------------------------------------
 Symbolic Z-matrix:
 Charge =  0 Multiplicity = 1

                         Standard orientation:
 ---------------------------------------------------------------------
 Center     Atomic      Atomic             Coordinates (Angstroms)
 Number     Number       Type             X           Y           Z
 ---------------------------------------------------------------------
      1          6           0       -3.250496    0.794894   -0.236436
      2          6           0       -3.765514    2.123164    0.318939
      3          6           0       -3.283261    3.328425   -0.488882
      4          1           0       -2.152126    0.812273   -0.251495
      5          1           0       -3.575815    0.691357   -1.280870
      6          1           0       -3.440490    2.223532    1.362444
      7          1           0       -4.862782    2.102548    0.332857
      8          1           0       -3.619912    3.255319   -1.528075
      9          1           0       -2.189539    3.376991   -0.492638
     10          1           0       -3.663132    4.267476   -0.074466
     11          6           0       -3.724097   -0.419331    0.560487
     12          6           0       -3.209079   -1.747601    0.005112
     13          6           0       -3.691332   -2.952861    0.812933
     14          1           0       -3.398778   -0.315794    1.604921
     15          1           0       -4.822467   -0.436710    0.575547
     16          1           0       -2.111811   -1.726985   -0.008806
     17          1           0       -3.534103   -1.847969   -1.038392
     18          1           0       -4.785054   -3.001427    0.816690
     19          1           0       -3.354681   -2.879756    1.852126
     20          1           0       -3.311461   -3.891913    0.398517
     21          6           0        4.705317    1.174273    0.708349
     22          6           0        4.813694   -0.207856    0.522616
     23          6           0        3.722645   -0.949853    0.060447
     24          6           0        2.532948   -0.274412   -0.207301
     25          6           0        2.393714    1.101551   -0.032281
     26          6           0        3.497802    1.823420    0.430798
     27          1           0        5.557934    1.742855    1.067726
     28          1           0        5.750228   -0.714645    0.737353
     29          1           0        3.778967   -2.020810   -0.092192
     30          1           0        1.447089    1.578793   -0.254901
     31          1           0        3.410744    2.896698    0.574113
     32          7           0        1.371001   -1.049276   -0.697059
     33          8           0        0.333885   -0.430614   -0.925719
     34          8           0        1.519383   -2.260607   -0.842999
 ---------------------------------------------------------------------

 SCF Done:  E(RHF) =  -669.536339411     A.U. after   15 cycles
 E2 =    -0.2091971698D+01 EUMP2 =    -0.67162831110896D+03

 The electronic state is 1-A.
 Alpha  occ. eigenvalues --  -20.61097 -20.61090 -15.86109 -11.31385 -11.27944
 Alpha  occ. eigenvalues --  -11.27935 -11.27667 -11.26934 -11.26925 -11.20852
 Alpha  occ. eigenvalues --  -11.20583 -11.20229 -11.20136 -11.20011 -11.19878
 Alpha  occ. eigenvalues --   -1.60145  -1.39703  -1.19546  -1.08960  -1.07306
 Alpha  occ. eigenvalues --   -1.04935  -1.02495  -0.95809  -0.94987  -0.86338
 Alpha  occ. eigenvalues --   -0.86018  -0.82648  -0.78551  -0.77716  -0.77029
 Alpha  occ. eigenvalues --   -0.72327  -0.71452  -0.70655  -0.65206  -0.64937
 Alpha  occ. eigenvalues --   -0.63938  -0.62283  -0.59908  -0.58377  -0.56559
 Alpha  occ. eigenvalues --   -0.55440  -0.54299  -0.53269  -0.53026  -0.51726
 Alpha  occ. eigenvalues --   -0.51411  -0.49172  -0.49093  -0.48919  -0.46857
 Alpha  occ. eigenvalues --   -0.45556  -0.45250  -0.44617  -0.44265  -0.42713
 Alpha  occ. eigenvalues --   -0.37520  -0.36533
 Alpha virt. eigenvalues --    0.04786   0.11122   0.16274   0.21028   0.23685
 Alpha virt. eigenvalues --    0.25101   0.26659   0.27442   0.28060   0.28830
 Alpha virt. eigenvalues --    0.29284   0.31080   0.31861   0.32505   0.32895

 Mulliken charges:
               1
     1  C   -0.305224
     2  C   -0.298837
     3  C   -0.472929
     4  H    0.168734
     5  H    0.148097
     6  H    0.147503
     7  H    0.149529
     8  H    0.155863
     9  H    0.149149
    10  H    0.156255
    11  C   -0.296898
    12  C   -0.306765
    13  C   -0.475168
    14  H    0.143676
    15  H    0.143649
    16  H    0.176636
    17  H    0.149567
    18  H    0.149346
    19  H    0.150308
    20  H    0.160600
    21  C   -0.170395
    22  C   -0.218566
    23  C   -0.170599
    24  C    0.157508
    25  C   -0.170439
    26  C   -0.218536
    27  H    0.226400
    28  H    0.224170
    29  H    0.276086
    30  H    0.275430
    31  H    0.224341
    32  N    0.493661
    33  O   -0.464377
    34  O   -0.457774
 Sum of Mulliken charges =  -0.00000

 Dipole moment (field-independent basis, Debye):
    X=              4.5185    Y=              2.6289    Z=              1.5991  Tot=              5.4667
 Quadrupole moment (field-independent basis, Debye-Ang):
   XX=            -73.5567   YY=            -94.4853   ZZ=            -96.4016
   XY=              3.1672   XZ=              4.8979   YZ=             -0.5152

 Normal termination of Gaussian 16 at Thu May  6 09:11:12 2021.
