 Gaussian 16, Revision A.03,
 Gaussian 16:  EM64L-G16RevA.03 25-Dec-2016

 -------------
 #p 6-31g* mp2
 -------------

 ------------------------------------------------------
 Input file generated by CHIRIPA (05-May-2021 14:51:08)
 ------------------------------------------------------
 Symbolic Z-matrix:
 Charge =  0 Multiplicity = 1

                         Standard orientation:
 ---------------------------------------------------------------------
 Center     Atomic      Atomic             Coordinates (Angstroms)
 Number     Number       Type             X           Y           Z
 ---------------------------------------------------------------------
      1          6           0       -4.018262   -0.139944   -0.433608
      2          6           0       -5.508393   -0.159749   -0.091404
      3          6           0       -6.363514    0.564329   -1.131727
      4          1           0       -3.683248    0.902385   -0.524495
      5          1           0       -3.869232   -0.603194   -1.418790
      6          1           0       -5.654410    0.302154    0.893452
      7          1           0       -5.839855   -1.202150   -0.001132
      8          1           0       -6.247362    0.100177   -2.116446
      9          1           0       -6.060864    1.613028   -1.216780
     10          1           0       -7.425249    0.538006   -0.867368
     11          6           0       -3.150374   -0.859844    0.597043
     12          6           0       -1.660243   -0.840039    0.254839
     13          6           0       -0.805122   -1.564117    1.295162
     14          1           0       -3.299404   -0.396594    1.582226
     15          1           0       -3.485388   -1.902174    0.687931
     16          1           0       -1.328782    0.202362    0.164567
     17          1           0       -1.514226   -1.301942   -0.730016
     18          1           0       -1.107773   -2.612816    1.380215
     19          1           0       -0.921274   -1.099965    2.279882
     20          1           0        0.256613   -1.537795    1.030804
     21          6           0        3.298663    1.186759    0.091632
     22          6           0        1.780133    1.184356    0.270647
     23          6           0        1.223549    2.565641    0.617142
     24          1           0        3.769677    1.552555    1.014283
     25          1           0        3.566417    1.900142   -0.700066
     26          1           0        1.515212    0.470171    1.060820
     27          1           0        1.312687    0.818341   -0.652470
     28          1           0        1.459029    3.285307   -0.173574
     29          1           0        1.662705    2.935158    1.549450
     30          1           0        0.136351    2.540971    0.740643
     31          6           0        3.869973   -0.186970   -0.255068
     32          6           0        5.388503   -0.184568   -0.434082
     33          6           0        5.945088   -1.565853   -0.780577
     34          1           0        3.602219   -0.900354    0.536631
     35          1           0        3.398959   -0.552767   -1.177718
     36          1           0        5.855949    0.181447    0.489034
     37          1           0        5.653423    0.529618   -1.224255
     38          1           0        5.505931   -1.935370   -1.712885
     39          1           0        5.709607   -2.285519    0.010139
     40          1           0        7.032285   -1.541183   -0.904080
 ---------------------------------------------------------------------

 SCF Done:  E(RHF) =  -470.732711366     A.U. after   11 cycles
 E2 =    -0.1583585310D+01 EUMP2 =    -0.47231629667581D+03

 The electronic state is 1-A.
 Alpha  occ. eigenvalues --  -11.21611 -11.21592 -11.21551 -11.21548 -11.21413
 Alpha  occ. eigenvalues --  -11.21388 -11.21349 -11.21327 -11.21096 -11.21076
 Alpha  occ. eigenvalues --  -11.21064 -11.20995  -1.08454  -1.08392  -1.03587
 Alpha  occ. eigenvalues --   -1.03454  -0.96012  -0.95935  -0.87031  -0.86951
 Alpha  occ. eigenvalues --   -0.79610  -0.79567  -0.78301  -0.78179  -0.65081
 Alpha  occ. eigenvalues --   -0.65035  -0.60994  -0.60887  -0.59573  -0.59140
 Alpha  occ. eigenvalues --   -0.57733  -0.57401  -0.55294  -0.55218  -0.52758
 Alpha  occ. eigenvalues --   -0.52617  -0.52466  -0.52325  -0.49961  -0.49868
 Alpha  occ. eigenvalues --   -0.47972  -0.47821  -0.46680  -0.46531  -0.45839
 Alpha  occ. eigenvalues --   -0.45745  -0.45685  -0.45628  -0.43797  -0.43720
 Alpha virt. eigenvalues --    0.21090   0.23010   0.23554   0.24615   0.25872
 Alpha virt. eigenvalues --    0.26430   0.26567   0.27233   0.28189   0.29158
 Alpha virt. eigenvalues --    0.30673   0.31197   0.31505   0.31713   0.32664

 Mulliken charges:
               1
     1  C   -0.298207
     2  C   -0.299610
     3  C   -0.475702
     4  H    0.149289
     5  H    0.149458
     6  H    0.151907
     7  H    0.151961
     8  H    0.155138
     9  H    0.155170
    10  H    0.160231
    11  C   -0.298199
    12  C   -0.303889
    13  C   -0.478692
    14  H    0.149282
    15  H    0.149614
    16  H    0.157371
    17  H    0.151416
    18  H    0.154719
    19  H    0.153864
    20  H    0.164242
    21  C   -0.297960
    22  C   -0.305379
    23  C   -0.477859
    24  H    0.149438
    25  H    0.149345
    26  H    0.159072
    27  H    0.153255
    28  H    0.155322
    29  H    0.155305
    30  H    0.160636
    31  C   -0.299049
    32  C   -0.299547
    33  C   -0.475754
    34  H    0.149295
    35  H    0.149668
    36  H    0.152034
    37  H    0.152074
    38  H    0.155176
    39  H    0.155267
    40  H    0.160299
 Sum of Mulliken charges =  -0.00000

 Dipole moment (field-independent basis, Debye):
    X=              0.0241    Y=              0.0027    Z=             -0.0024  Tot=              0.0244
 Quadrupole moment (field-independent basis, Debye-Ang):
   XX=            -85.7166   YY=            -85.1483   ZZ=            -84.0266
   XY=              0.9199   XZ=             -0.1475   YZ=              0.3681

 Normal termination of Gaussian 16 at Thu May  6 02:05:21 2021.
