 Gaussian 16, Revision A.03,
 Gaussian 16:  EM64L-G16RevA.03 25-Dec-2016

 -------------
 #p 6-31g* mp2
 -------------

 ------------------------------------------------------
 Input file generated by CHIRIPA (05-May-2021 14:57:24)
 ------------------------------------------------------
 Symbolic Z-matrix:
 Charge =  0 Multiplicity = 1

                         Standard orientation:
 ---------------------------------------------------------------------
 Center     Atomic      Atomic             Coordinates (Angstroms)
 Number     Number       Type             X           Y           Z
 ---------------------------------------------------------------------
      1          6           0        2.942238   -2.084093    1.407221
      2          6           0        1.861992   -1.304632    0.980572
      3          6           0        2.072989   -0.169990    0.191512
      4          6           0        3.383231    0.157488   -0.153909
      5          6           0        4.480227   -0.598964    0.255564
      6          6           0        4.245610   -1.729397    1.043996
      7          1           0        2.769156   -2.963876    2.019938
      8          1           0        0.848698   -1.577697    1.261134
      9          1           0        1.254982    0.451217   -0.152558
     10          1           0        5.478967   -0.301504   -0.040164
     11          1           0        5.086460   -2.332873    1.373894
     12          7           0        3.619107    1.356455   -0.988919
     13          8           0        4.783024    1.623642   -1.279684
     14          8           0        2.635603    2.006316   -1.336824
     15          6           0       -3.050699    2.064208    1.493700
     16          6           0       -1.968326    1.212319    1.250233
     17          6           0       -2.119504    0.087924    0.433270
     18          6           0       -3.372745   -0.155566   -0.126541
     19          6           0       -4.470259    0.674329    0.097125
     20          6           0       -4.296015    1.792972    0.917385
     21          1           0       -2.924301    2.935430    2.129617
     22          1           0       -1.000040    1.420491    1.696476
     23          1           0       -1.298437   -0.588222    0.228103
     24          1           0       -5.423310    0.440745   -0.361731
     25          1           0       -5.138369    2.452814    1.104717
     26          7           0       -3.545000   -1.342868   -0.993168
     27          8           0       -4.659394   -1.535373   -1.474527
     28          8           0       -2.562358   -2.058487   -1.174663
 ---------------------------------------------------------------------

 SCF Done:  E(RHF) =  -868.337117069     A.U. after   16 cycles
 E2 =    -0.2600445028D+01 EUMP2 =    -0.87093756209682D+03

 The electronic state is 1-A.
 Alpha  occ. eigenvalues --  -20.61182 -20.61165 -20.61059 -20.61050 -15.86231
 Alpha  occ. eigenvalues --  -15.86114 -11.31652 -11.31538 -11.28336 -11.28187
 Alpha  occ. eigenvalues --  -11.28152 -11.28072 -11.27886 -11.27819 -11.27268
 Alpha  occ. eigenvalues --  -11.27193 -11.27163 -11.27077  -1.60247  -1.60131
 Alpha  occ. eigenvalues --   -1.39803  -1.39684  -1.19808  -1.19708  -1.09171
 Alpha  occ. eigenvalues --   -1.09078  -1.05265  -1.05120  -0.96016  -0.95910
 Alpha  occ. eigenvalues --   -0.86622  -0.86516  -0.82889  -0.82739  -0.77996
 Alpha  occ. eigenvalues --   -0.77739  -0.72450  -0.72331  -0.71568  -0.71455
 Alpha  occ. eigenvalues --   -0.70958  -0.70759  -0.65472  -0.65374  -0.65284
 Alpha  occ. eigenvalues --   -0.65093  -0.62894  -0.62204  -0.55701  -0.55561
 Alpha  occ. eigenvalues --   -0.53546  -0.53467  -0.53355  -0.53157  -0.49215
 Alpha  occ. eigenvalues --   -0.49198  -0.49094  -0.49082  -0.45198  -0.45079
 Alpha  occ. eigenvalues --   -0.37735  -0.37651  -0.36832  -0.36738
 Alpha virt. eigenvalues --    0.04611   0.04735   0.10807   0.10942   0.16078
 Alpha virt. eigenvalues --    0.16200   0.18264   0.22192   0.24646   0.27197
 Alpha virt. eigenvalues --    0.27970   0.29254   0.30488   0.31152   0.32368

 Mulliken charges:
               1
     1  C   -0.169737
     2  C   -0.220268
     3  C   -0.175457
     4  C    0.159611
     5  C   -0.169866
     6  C   -0.218185
     7  H    0.228769
     8  H    0.222204
     9  H    0.271445
    10  H    0.277011
    11  H    0.225490
    12  N    0.488210
    13  O   -0.458780
    14  O   -0.461136
    15  C   -0.169609
    16  C   -0.218612
    17  C   -0.179778
    18  C    0.161474
    19  C   -0.169459
    20  C   -0.217675
    21  H    0.228956
    22  H    0.223182
    23  H    0.270966
    24  H    0.277463
    25  H    0.226088
    26  N    0.487850
    27  O   -0.457530
    28  O   -0.462628
 Sum of Mulliken charges =  -0.00000

 Dipole moment (field-independent basis, Debye):
    X=             -0.2710    Y=             -0.0010    Z=              6.0066  Tot=              6.0127
 Quadrupole moment (field-independent basis, Debye-Ang):
   XX=           -103.2037   YY=           -107.8748   ZZ=           -107.8612
   XY=            -31.9144   XZ=              0.6292   YZ=             -0.0564

 Normal termination of Gaussian 16 at Thu May  6 09:50:10 2021.
