 Gaussian 16, Revision A.03,
 Gaussian 16:  EM64L-G16RevA.03 25-Dec-2016

 -------------
 #p 6-31g* mp2
 -------------

 ------------------------------------------------------
 Input file generated by CHIRIPA (05-May-2021 14:51:12)
 ------------------------------------------------------
 Symbolic Z-matrix:
 Charge =  0 Multiplicity = 1

                         Standard orientation:
 ---------------------------------------------------------------------
 Center     Atomic      Atomic             Coordinates (Angstroms)
 Number     Number       Type             X           Y           Z
 ---------------------------------------------------------------------
      1          6           0        3.429452    0.977379    0.328957
      2          6           0        3.864099    2.167570   -0.526913
      3          6           0        3.564257    3.512708    0.135276
      4          1           0        2.352907    1.054944    0.533847
      5          1           0        3.937359    1.029439    1.301949
      6          1           0        3.356580    2.112525   -1.498515
      7          1           0        4.939696    2.087062   -0.729949
      8          1           0        4.083028    3.593288    1.095996
      9          1           0        2.490916    3.618895    0.323064
     10          1           0        3.883068    4.349739   -0.493692
     11          6           0        3.722576   -0.374347   -0.319613
     12          6           0        3.287929   -1.564538    0.536257
     13          6           0        3.587770   -2.909676   -0.125931
     14          1           0        3.214668   -0.426407   -1.292605
     15          1           0        4.799121   -0.451911   -0.524503
     16          1           0        2.212331   -1.484029    0.739294
     17          1           0        3.795448   -1.509492    1.507859
     18          1           0        4.661111   -3.015863   -0.313720
     19          1           0        3.068999   -2.990256   -1.086652
     20          1           0        3.268959   -3.746706    0.503036
     21          6           0       -3.966400    0.313517    0.225035
     22          6           0       -5.385850    0.376599   -0.339914
     23          6           0       -6.154208    1.612664    0.128661
     24          1           0       -4.014653    0.322789    1.322546
     25          1           0       -3.420596    1.219913   -0.071507
     26          1           0       -5.928379   -0.530291   -0.043556
     27          1           0       -5.334220    0.366982   -1.436207
     28          1           0       -5.637785    2.527284   -0.180173
     29          1           0       -6.235320    1.624912    1.220390
     30          1           0       -7.166350    1.637688   -0.287035
     31          6           0       -3.185628   -0.916550   -0.234379
     32          6           0       -1.766178   -0.979631    0.330570
     33          6           0       -0.997819   -2.215696   -0.138006
     34          1           0       -3.731432   -1.822946    0.062163
     35          1           0       -3.137375   -0.925821   -1.331890
     36          1           0       -1.817807   -0.970015    1.426863
     37          1           0       -1.223648   -0.072741    0.034212
     38          1           0       -0.916707   -2.227944   -1.229734
     39          1           0       -1.514242   -3.130317    0.170829
     40          1           0        0.014322   -2.240720    0.277690
 ---------------------------------------------------------------------

 SCF Done:  E(RHF) =  -470.733352125     A.U. after   11 cycles
 E2 =    -0.1582590031D+01 EUMP2 =    -0.47231594215660D+03

 The electronic state is 1-A.
 Alpha  occ. eigenvalues --  -11.21652 -11.21622 -11.21604 -11.21592 -11.21436
 Alpha  occ. eigenvalues --  -11.21402 -11.21376 -11.21342 -11.21095 -11.21087
 Alpha  occ. eigenvalues --  -11.21074 -11.21055  -1.08464  -1.08427  -1.03572
 Alpha  occ. eigenvalues --   -1.03518  -0.96018  -0.95966  -0.87029  -0.86987
 Alpha  occ. eigenvalues --   -0.79642  -0.79575  -0.78274  -0.78243  -0.65106
 Alpha  occ. eigenvalues --   -0.65059  -0.60998  -0.60939  -0.59440  -0.59268
 Alpha  occ. eigenvalues --   -0.57667  -0.57536  -0.55296  -0.55259  -0.52724
 Alpha  occ. eigenvalues --   -0.52655  -0.52447  -0.52388  -0.49948  -0.49912
 Alpha  occ. eigenvalues --   -0.48017  -0.47844  -0.46659  -0.46607  -0.45814
 Alpha  occ. eigenvalues --   -0.45784  -0.45744  -0.45695  -0.43809  -0.43757
 Alpha virt. eigenvalues --    0.20874   0.23100   0.23651   0.24824   0.26195
 Alpha virt. eigenvalues --    0.26697   0.27080   0.27425   0.28072   0.28842
 Alpha virt. eigenvalues --    0.30434   0.31322   0.31691   0.31924   0.31966

 Mulliken charges:
               1
     1  C   -0.298604
     2  C   -0.299655
     3  C   -0.475695
     4  H    0.149805
     5  H    0.149587
     6  H    0.151788
     7  H    0.151990
     8  H    0.155252
     9  H    0.155122
    10  H    0.160220
    11  C   -0.297820
    12  C   -0.306579
    13  C   -0.475739
    14  H    0.149648
    15  H    0.149686
    16  H    0.157323
    17  H    0.152132
    18  H    0.155192
    19  H    0.155986
    20  H    0.160283
    21  C   -0.298286
    22  C   -0.299688
    23  C   -0.475730
    24  H    0.149770
    25  H    0.149407
    26  H    0.152007
    27  H    0.151955
    28  H    0.155196
    29  H    0.155242
    30  H    0.160334
    31  C   -0.298279
    32  C   -0.299470
    33  C   -0.483418
    34  H    0.149798
    35  H    0.149670
    36  H    0.152200
    37  H    0.151119
    38  H    0.154973
    39  H    0.155707
    40  H    0.167571
 Sum of Mulliken charges =  -0.00000

 Dipole moment (field-independent basis, Debye):
    X=             -0.0047    Y=             -0.0105    Z=              0.0024  Tot=              0.0117
 Quadrupole moment (field-independent basis, Debye-Ang):
   XX=            -84.2645   YY=            -86.3102   ZZ=            -84.1047
   XY=              0.8992   XZ=              0.3379   YZ=             -1.0163

 Normal termination of Gaussian 16 at Wed May  5 19:53:59 2021.
