 Gaussian 16, Revision A.03,
 Gaussian 16:  EM64L-G16RevA.03 25-Dec-2016

 -------------
 #p 6-31g* mp2
 -------------

 ------------------------------------------------------
 Input file generated by CHIRIPA (05-May-2021 14:53:17)
 ------------------------------------------------------
 Symbolic Z-matrix:
 Charge =  0 Multiplicity = 1

                         Standard orientation:
 ---------------------------------------------------------------------
 Center     Atomic      Atomic             Coordinates (Angstroms)
 Number     Number       Type             X           Y           Z
 ---------------------------------------------------------------------
      1          6           0       -2.490092    0.786663    0.223234
      2          6           0       -2.734510    2.058673   -0.589315
      3          6           0       -1.774272    3.189738   -0.219949
      4          1           0       -2.587825    1.017950    1.292766
      5          1           0       -1.454135    0.454563    0.068649
      6          1           0       -3.770110    2.387500   -0.434330
      7          1           0       -2.636373    1.824289   -1.657045
      8          1           0       -0.736650    2.885671   -0.391661
      9          1           0       -1.876830    3.452082    0.838002
     10          1           0       -1.966696    4.089399   -0.812774
     11          6           0       -3.442237   -0.353114   -0.134616
     12          6           0       -3.197820   -1.625124    0.677933
     13          6           0       -4.158057   -2.756189    0.308567
     14          1           0       -4.478195   -0.021014    0.019969
     15          1           0       -3.344505   -0.584401   -1.204148
     16          1           0       -3.295957   -1.390740    1.745663
     17          1           0       -2.162219   -1.953951    0.522948
     18          1           0       -4.055500   -3.018533   -0.749383
     19          1           0       -5.195679   -2.452122    0.480279
     20          1           0       -3.965634   -3.655851    0.901392
     21          6           0        2.128889    2.290186    0.495549
     22          6           0        1.813286    1.823929   -0.784888
     23          6           0        1.914045    0.463275   -1.089876
     24          6           0        2.335533   -0.407135   -0.085871
     25          6           0        2.657096    0.026762    1.199283
     26          6           0        2.549046    1.391698    1.481809
     27          1           0        2.047785    3.348839    0.723747
     28          1           0        1.486720    2.519415   -1.552807
     29          1           0        1.675999    0.075272   -2.072834
     30          1           0        2.979831   -0.690678    1.943958
     31          1           0        2.794806    1.750966    2.477086
     32          7           0        2.446062   -1.849864   -0.396858
     33          8           0        2.819757   -2.596311    0.505254
     34          8           0        2.156905   -2.206911   -1.536833
 ---------------------------------------------------------------------

 SCF Done:  E(RHF) =  -669.534977414     A.U. after   15 cycles
 E2 =    -0.2093140545D+01 EUMP2 =    -0.67162811795878D+03

 The electronic state is 1-A.
 Alpha  occ. eigenvalues --  -20.60853 -20.60848 -15.85909 -11.31302 -11.27877
 Alpha  occ. eigenvalues --  -11.27854 -11.27589 -11.26873 -11.26854 -11.21919
 Alpha  occ. eigenvalues --  -11.21530 -11.21504 -11.21475 -11.21364 -11.20877
 Alpha  occ. eigenvalues --   -1.59929  -1.39482  -1.19475  -1.08865  -1.08518
 Alpha  occ. eigenvalues --   -1.04883  -1.03640  -0.96109  -0.95686  -0.87141
 Alpha  occ. eigenvalues --   -0.86270  -0.82519  -0.79725  -0.78303  -0.77568
 Alpha  occ. eigenvalues --   -0.72125  -0.71254  -0.70560  -0.65199  -0.65117
 Alpha  occ. eigenvalues --   -0.64867  -0.62241  -0.61038  -0.59490  -0.57702
 Alpha  occ. eigenvalues --   -0.55448  -0.55334  -0.53263  -0.52972  -0.52804
 Alpha  occ. eigenvalues --   -0.52490  -0.50054  -0.48884  -0.48878  -0.48025
 Alpha  occ. eigenvalues --   -0.46744  -0.45851  -0.45745  -0.44881  -0.43883
 Alpha  occ. eigenvalues --   -0.37390  -0.36434
 Alpha virt. eigenvalues --    0.04958   0.11033   0.16436   0.20960   0.22853
 Alpha virt. eigenvalues --    0.24311   0.26392   0.26843   0.27420   0.27870
 Alpha virt. eigenvalues --    0.28743   0.30741   0.31379   0.31752   0.32033

 Mulliken charges:
               1
     1  C   -0.300317
     2  C   -0.298171
     3  C   -0.483433
     4  H    0.148525
     5  H    0.152078
     6  H    0.153259
     7  H    0.150529
     8  H    0.155018
     9  H    0.154506
    10  H    0.157770
    11  C   -0.298526
    12  C   -0.300210
    13  C   -0.475845
    14  H    0.148772
    15  H    0.150507
    16  H    0.150516
    17  H    0.155740
    18  H    0.156896
    19  H    0.153505
    20  H    0.162172
    21  C   -0.167730
    22  C   -0.219870
    23  C   -0.172901
    24  C    0.158198
    25  C   -0.170287
    26  C   -0.218288
    27  H    0.227741
    28  H    0.225847
    29  H    0.276066
    30  H    0.276128
    31  H    0.224141
    32  N    0.487960
    33  O   -0.459887
    34  O   -0.460406
 Sum of Mulliken charges =  -0.00000

 Dipole moment (field-independent basis, Debye):
    X=             -0.2947    Y=              4.9828    Z=              1.1305  Tot=              5.1179
 Quadrupole moment (field-independent basis, Debye-Ang):
   XX=            -96.8013   YY=           -100.3098   ZZ=            -90.1415
   XY=             11.4268   XZ=              3.7724   YZ=             -1.6465

 Normal termination of Gaussian 16 at Wed May  5 22:02:23 2021.
