 Gaussian 16, Revision A.03,
 Gaussian 16:  EM64L-G16RevA.03 25-Dec-2016

 -------------
 #p 6-31g* mp2
 -------------

 ------------------------------------------------------
 Input file generated by CHIRIPA (05-May-2021 14:57:23)
 ------------------------------------------------------
 Symbolic Z-matrix:
 Charge =  0 Multiplicity = 1

                         Standard orientation:
 ---------------------------------------------------------------------
 Center     Atomic      Atomic             Coordinates (Angstroms)
 Number     Number       Type             X           Y           Z
 ---------------------------------------------------------------------
      1          6           0        0.517733   -0.284728    1.646191
      2          6           0        1.155512   -1.471300    1.269618
      3          6           0        2.356706   -1.435901    0.555176
      4          6           0        2.894488   -0.190928    0.232498
      5          6           0        2.282976    1.008688    0.593420
      6          6           0        1.082505    0.949303    1.307487
      7          1           0       -0.415102   -0.321543    2.201041
      8          1           0        0.719207   -2.431096    1.531293
      9          1           0        2.871561   -2.339148    0.251058
     10          1           0        2.742187    1.950377    0.318165
     11          1           0        0.589411    1.872420    1.598619
     12          7           0        4.165756   -0.140756   -0.523651
     13          8           0        4.619044    0.968802   -0.795768
     14          8           0        4.684816   -1.211940   -0.829885
     15          6           0       -3.612820   -2.147065   -0.348720
     16          6           0       -2.759657   -1.735389   -1.377873
     17          6           0       -2.239645   -0.437731   -1.392703
     18          6           0       -2.595267    0.426025   -0.357933
     19          6           0       -3.442933    0.045546    0.681291
     20          6           0       -3.951139   -1.256853    0.675772
     21          1           0       -4.012192   -3.156959   -0.345105
     22          1           0       -2.495199   -2.424595   -2.174806
     23          1           0       -1.577071   -0.092832   -2.177214
     24          1           0       -3.688483    0.755177    1.462028
     25          1           0       -4.613499   -1.573820    1.476307
     26          7           0       -2.051002    1.802306   -0.362861
     27          8           0       -2.379567    2.544200    0.560328
     28          8           0       -1.306151    2.113083   -1.289818
 ---------------------------------------------------------------------

 SCF Done:  E(RHF) =  -868.338873566     A.U. after   16 cycles
 E2 =    -0.2602164056D+01 EUMP2 =    -0.87094103762171D+03

 The electronic state is 1-A.
 Alpha  occ. eigenvalues --  -20.61702 -20.61641 -20.60477 -20.60456 -15.86689
 Alpha  occ. eigenvalues --  -15.85518 -11.31992 -11.30836 -11.28595 -11.28485
 Alpha  occ. eigenvalues --  -11.28268 -11.27589 -11.27499 -11.27457 -11.27306
 Alpha  occ. eigenvalues --  -11.27140 -11.26496 -11.26247  -1.60742  -1.59546
 Alpha  occ. eigenvalues --   -1.40293  -1.39099  -1.20167  -1.19006  -1.09570
 Alpha  occ. eigenvalues --   -1.08422  -1.05549  -1.04380  -0.96413  -0.95262
 Alpha  occ. eigenvalues --   -0.86944  -0.85794  -0.83239  -0.82076  -0.78299
 Alpha  occ. eigenvalues --   -0.77126  -0.72913  -0.72101  -0.71732  -0.71251
 Alpha  occ. eigenvalues --   -0.70868  -0.70123  -0.65808  -0.65532  -0.64652
 Alpha  occ. eigenvalues --   -0.64353  -0.62882  -0.61707  -0.56038  -0.54995
 Alpha  occ. eigenvalues --   -0.53874  -0.53621  -0.52695  -0.52448  -0.49693
 Alpha  occ. eigenvalues --   -0.49667  -0.48500  -0.48487  -0.45713  -0.44515
 Alpha  occ. eigenvalues --   -0.38251  -0.37198  -0.36856  -0.35960
 Alpha virt. eigenvalues --    0.04149   0.05409   0.10443   0.11634   0.15687
 Alpha virt. eigenvalues --    0.16887   0.20689   0.21832   0.26612   0.27462
 Alpha virt. eigenvalues --    0.27922   0.28469   0.30379   0.31247   0.31929

 Mulliken charges:
               1
     1  C   -0.176450
     2  C   -0.218791
     3  C   -0.173877
     4  C    0.157153
     5  C   -0.165964
     6  C   -0.225449
     7  H    0.223760
     8  H    0.218572
     9  H    0.272561
    10  H    0.279449
    11  H    0.239168
    12  N    0.488000
    13  O   -0.458388
    14  O   -0.463523
    15  C   -0.172102
    16  C   -0.219210
    17  C   -0.167037
    18  C    0.160148
    19  C   -0.179865
    20  C   -0.220362
    21  H    0.227936
    22  H    0.227257
    23  H    0.279944
    24  H    0.274904
    25  H    0.224958
    26  N    0.487164
    27  O   -0.466313
    28  O   -0.453644
 Sum of Mulliken charges =  -0.00000

 Dipole moment (field-independent basis, Debye):
    X=             -6.4808    Y=             -4.8747    Z=              2.4732  Tot=              8.4783
 Quadrupole moment (field-independent basis, Debye-Ang):
   XX=           -121.0693   YY=           -104.1831   ZZ=           -100.8874
   XY=             12.2793   XZ=              5.2720   YZ=              2.4324

 Normal termination of Gaussian 16 at Wed May  5 22:41:11 2021.
