 Gaussian 16, Revision A.03,
 Gaussian 16:  EM64L-G16RevA.03 25-Dec-2016

 -------------
 #p 6-31g* mp2
 -------------

 ------------------------------------------------------
 Input file generated by CHIRIPA (05-May-2021 14:55:24)
 ------------------------------------------------------
 Symbolic Z-matrix:
 Charge =  0 Multiplicity = 1

                         Standard orientation:
 ---------------------------------------------------------------------
 Center     Atomic      Atomic             Coordinates (Angstroms)
 Number     Number       Type             X           Y           Z
 ---------------------------------------------------------------------
      1          6           0       -0.845690    2.222694    1.123121
      2          6           0       -1.871370    1.527304    1.771915
      3          6           0       -2.643912    0.591223    1.078028
      4          6           0       -2.362157    0.374419   -0.269896
      5          6           0       -1.347104    1.051360   -0.944218
      6          6           0       -0.587286    1.982926   -0.230489
      7          1           0       -0.250503    2.948110    1.669857
      8          1           0       -2.074297    1.711469    2.823081
      9          1           0       -3.444011    0.038851    1.555674
     10          1           0       -1.168500    0.846254   -1.992765
     11          1           0        0.208636    2.521505   -0.736932
     12          7           0       -3.173277   -0.614177   -1.014987
     13          8           0       -2.905055   -0.787012   -2.201925
     14          8           0       -4.061897   -1.197485   -0.397943
     15          6           0        3.161604   -0.137668   -0.242062
     16          6           0        4.690335   -0.165570   -0.255749
     17          6           0        5.294060    0.941073   -1.120996
     18          1           0        2.790267   -0.231588   -1.271738
     19          1           0        2.822955    0.841373    0.124258
     20          1           0        5.026001   -1.144757   -0.620626
     21          1           0        5.058073   -0.071765    0.774098
     22          1           0        4.987686    1.926446   -0.755241
     23          1           0        4.955432    0.847356   -2.157890
     24          1           0        6.387841    0.902552   -1.116513
     25          6           0        2.543291   -1.237953    0.618629
     26          6           0        1.014560   -1.210052    0.632316
     27          6           0        0.410835   -2.316694    1.497563
     28          1           0        2.881939   -2.216994    0.252309
     29          1           0        2.914627   -1.144033    1.648305
     30          1           0        0.646822   -1.303857   -0.397531
     31          1           0        0.678893   -0.230864    0.997193
     32          1           0        0.749462   -2.222977    2.534457
     33          1           0        0.717209   -3.302067    1.131808
     34          1           0       -0.682946   -2.278174    1.493080
 ---------------------------------------------------------------------

 SCF Done:  E(RHF) =  -669.533734303     A.U. after   15 cycles
 E2 =    -0.2095615811D+01 EUMP2 =    -0.67162935011434D+03

 The electronic state is 1-A.
 Alpha  occ. eigenvalues --  -20.60838 -20.60833 -15.85889 -11.31269 -11.27859
 Alpha  occ. eigenvalues --  -11.27787 -11.27559 -11.26872 -11.26789 -11.21947
 Alpha  occ. eigenvalues --  -11.21779 -11.21534 -11.21472 -11.21428 -11.21003
 Alpha  occ. eigenvalues --   -1.59912  -1.39465  -1.19453  -1.08851  -1.08652
 Alpha  occ. eigenvalues --   -1.04845  -1.03699  -0.96180  -0.95670  -0.87190
 Alpha  occ. eigenvalues --   -0.86243  -0.82495  -0.79794  -0.78495  -0.77539
 Alpha  occ. eigenvalues --   -0.72106  -0.71234  -0.70554  -0.65308  -0.65092
 Alpha  occ. eigenvalues --   -0.64837  -0.62187  -0.61118  -0.59598  -0.57840
 Alpha  occ. eigenvalues --   -0.55490  -0.55347  -0.53340  -0.52936  -0.52714
 Alpha  occ. eigenvalues --   -0.52589  -0.50122  -0.48867  -0.48862  -0.48053
 Alpha  occ. eigenvalues --   -0.46824  -0.45999  -0.45890  -0.44861  -0.43971
 Alpha  occ. eigenvalues --   -0.37365  -0.36348
 Alpha virt. eigenvalues --    0.04973   0.11068   0.16425   0.20953   0.22783
 Alpha virt. eigenvalues --    0.23962   0.26119   0.26328   0.27419   0.28302
 Alpha virt. eigenvalues --    0.28643   0.30555   0.31231   0.31492   0.31729

 Mulliken charges:
               1
     1  C   -0.174841
     2  C   -0.216300
     3  C   -0.171919
     4  C    0.161995
     5  C   -0.167682
     6  C   -0.216251
     7  H    0.225851
     8  H    0.224105
     9  H    0.276117
    10  H    0.275518
    11  H    0.224848
    12  N    0.487718
    13  O   -0.460275
    14  O   -0.460309
    15  C   -0.297192
    16  C   -0.299511
    17  C   -0.475631
    18  H    0.148754
    19  H    0.140989
    20  H    0.154638
    21  H    0.151928
    22  H    0.151406
    23  H    0.155524
    24  H    0.162046
    25  C   -0.297672
    26  C   -0.306695
    27  C   -0.475628
    28  H    0.151154
    29  H    0.147573
    30  H    0.151122
    31  H    0.159693
    32  H    0.151419
    33  H    0.156746
    34  H    0.160761
 Sum of Mulliken charges =  -0.00000

 Dipole moment (field-independent basis, Debye):
    X=              2.7683    Y=              3.5041    Z=              2.5943  Tot=              5.1646
 Quadrupole moment (field-independent basis, Debye-Ang):
   XX=           -107.8155   YY=            -92.8654   ZZ=            -92.7237
   XY=             -7.1878   XZ=             -9.3010   YZ=              0.2723

 Normal termination of Gaussian 16 at Thu May  6 04:45:57 2021.
