 Gaussian 16, Revision A.03,
 Gaussian 16:  EM64L-G16RevA.03 25-Dec-2016

 -------------
 #p 6-31g* mp2
 -------------

 ------------------------------------------------------
 Input file generated by CHIRIPA (05-May-2021 14:55:25)
 ------------------------------------------------------
 Symbolic Z-matrix:
 Charge =  0 Multiplicity = 1

                         Standard orientation:
 ---------------------------------------------------------------------
 Center     Atomic      Atomic             Coordinates (Angstroms)
 Number     Number       Type             X           Y           Z
 ---------------------------------------------------------------------
      1          6           0        1.478156    1.408092    0.133345
      2          6           0        1.714851    0.452461    1.126958
      3          6           0        2.847855   -0.364658    1.070689
      4          6           0        3.727177   -0.198425    0.001835
      5          6           0        3.518971    0.744650   -1.003426
      6          6           0        2.379382    1.550885   -0.926807
      7          1           0        0.595453    2.038622    0.184961
      8          1           0        1.016666    0.339350    1.951451
      9          1           0        3.055467   -1.112456    1.826410
     10          1           0        4.233076    0.834049   -1.813044
     11          1           0        2.198116    2.292204   -1.699874
     12          7           0        4.930124   -1.057711   -0.068506
     13          8           0        5.689510   -0.891540   -1.020534
     14          8           0        5.090828   -1.881119    0.829720
     15          6           0       -3.799024    0.330599    0.020420
     16          6           0       -3.707953    1.838667    0.255842
     17          6           0       -2.265174    2.339540    0.328702
     18          1           0       -3.267996   -0.192770    0.827290
     19          1           0       -3.275318    0.079876   -0.912461
     20          1           0       -4.232861    2.086653    1.187287
     21          1           0       -4.239422    2.358500   -0.551580
     22          1           0       -1.733926    2.120821   -0.603252
     23          1           0       -1.727327    1.847429    1.145494
     24          1           0       -2.223372    3.420108    0.497476
     25          6           0       -5.235005   -0.185181   -0.054797
     26          6           0       -5.326076   -1.693250   -0.290218
     27          6           0       -6.768854   -2.194122   -0.363079
     28          1           0       -5.758710    0.065542    0.878084
     29          1           0       -5.766032    0.338188   -0.861667
     30          1           0       -4.794606   -2.213082    0.517203
     31          1           0       -4.801167   -1.941235   -1.221663
     32          1           0       -7.306701   -1.702011   -1.179871
     33          1           0       -7.300102   -1.975403    0.568875
     34          1           0       -6.810656   -3.274690   -0.531853
 ---------------------------------------------------------------------

 SCF Done:  E(RHF) =  -669.535215627     A.U. after   15 cycles
 E2 =    -0.2091259534D+01 EUMP2 =    -0.67162647516123D+03

 The electronic state is 1-A.
 Alpha  occ. eigenvalues --  -20.60685 -20.60680 -15.85739 -11.31075 -11.27657
 Alpha  occ. eigenvalues --  -11.27652 -11.27279 -11.26645 -11.26632 -11.22607
 Alpha  occ. eigenvalues --  -11.22487 -11.22185 -11.22095 -11.21983 -11.21468
 Alpha  occ. eigenvalues --   -1.59762  -1.39316  -1.19246  -1.09186  -1.08635
 Alpha  occ. eigenvalues --   -1.04652  -1.04334  -0.96826  -0.95473  -0.87859
 Alpha  occ. eigenvalues --   -0.86046  -0.82322  -0.80428  -0.78944  -0.77376
 Alpha  occ. eigenvalues --   -0.71957  -0.71086  -0.70340  -0.65811  -0.64894
 Alpha  occ. eigenvalues --   -0.64665  -0.62012  -0.61725  -0.60200  -0.58421
 Alpha  occ. eigenvalues --   -0.56119  -0.55240  -0.53483  -0.53157  -0.52950
 Alpha  occ. eigenvalues --   -0.52742  -0.50772  -0.48749  -0.48714  -0.48659
 Alpha  occ. eigenvalues --   -0.47426  -0.46496  -0.46385  -0.44729  -0.44557
 Alpha  occ. eigenvalues --   -0.37201  -0.36267
 Alpha virt. eigenvalues --    0.05159   0.11383   0.16625   0.20433   0.22236
 Alpha virt. eigenvalues --    0.23736   0.25272   0.26059   0.26887   0.27237
 Alpha virt. eigenvalues --    0.29282   0.29715   0.30595   0.31414   0.31902

 Mulliken charges:
               1
     1  C   -0.177079
     2  C   -0.222589
     3  C   -0.170749
     4  C    0.157875
     5  C   -0.170593
     6  C   -0.221807
     7  H    0.241966
     8  H    0.222307
     9  H    0.275060
    10  H    0.275058
    11  H    0.222983
    12  N    0.488076
    13  O   -0.460824
    14  O   -0.460857
    15  C   -0.298887
    16  C   -0.299846
    17  C   -0.483261
    18  H    0.148530
    19  H    0.151077
    20  H    0.155363
    21  H    0.155773
    22  H    0.153462
    23  H    0.149403
    24  H    0.164321
    25  C   -0.299009
    26  C   -0.300191
    27  C   -0.476157
    28  H    0.150537
    29  H    0.150964
    30  H    0.152379
    31  H    0.153075
    32  H    0.155838
    33  H    0.155687
    34  H    0.162117
 Sum of Mulliken charges =  -0.00000

 Dipole moment (field-independent basis, Debye):
    X=             -4.5380    Y=              3.0335    Z=              0.2206  Tot=              5.4630
 Quadrupole moment (field-independent basis, Debye-Ang):
   XX=           -126.8950   YY=            -95.6639   ZZ=            -90.4160
   XY=             12.3767   XZ=             -0.4457   YZ=             -2.5103

 Normal termination of Gaussian 16 at Wed May  5 17:38:01 2021.
