 Gaussian 16, Revision A.03,
 Gaussian 16:  EM64L-G16RevA.03 25-Dec-2016

 -------------
 #p 6-31g* mp2
 -------------

 ------------------------------------------------------
 Input file generated by CHIRIPA (05-May-2021 14:53:15)
 ------------------------------------------------------
 Symbolic Z-matrix:
 Charge =  0 Multiplicity = 1

                         Standard orientation:
 ---------------------------------------------------------------------
 Center     Atomic      Atomic             Coordinates (Angstroms)
 Number     Number       Type             X           Y           Z
 ---------------------------------------------------------------------
      1          6           0        4.411044    0.037904   -0.030201
      2          6           0        4.657774   -1.357047    0.545317
      3          6           0        6.115666   -1.581013    0.948037
      4          1           0        5.061204    0.187775   -0.902999
      5          1           0        4.706975    0.791184    0.713027
      6          1           0        4.360170   -2.107484   -0.198251
      7          1           0        4.006813   -1.503687    1.416731
      8          1           0        6.421444   -0.854433    1.707762
      9          1           0        6.776809   -1.461661    0.083604
     10          1           0        6.269607   -2.584504    1.356897
     11          6           0        2.958212    0.276963   -0.437458
     12          6           0        2.711482    1.671914   -1.012976
     13          6           0        1.253590    1.895879   -1.415697
     14          1           0        2.662281   -0.476318   -1.180686
     15          1           0        2.308052    0.127092    0.435340
     16          1           0        3.362443    1.818553   -1.884390
     17          1           0        3.009086    2.422351   -0.269408
     18          1           0        0.592447    1.776527   -0.551263
     19          1           0        0.947812    1.169299   -2.175421
     20          1           0        1.099649    2.899371   -1.824557
     21          6           0       -2.272603    1.953747    1.481069
     22          6           0       -2.763058    0.827826    2.150602
     23          6           0       -3.102035   -0.328313    1.441388
     24          6           0       -2.937203   -0.323766    0.057156
     25          6           0       -2.450999    0.782086   -0.638534
     26          6           0       -2.118410    1.927330    0.091088
     27          1           0       -2.011758    2.847632    2.039930
     28          1           0       -2.883843    0.845486    3.230021
     29          1           0       -3.483891   -1.214021    1.934467
     30          1           0       -2.341516    0.734399   -1.715176
     31          1           0       -1.737742    2.800262   -0.431528
     32          7           0       -3.292681   -1.541952   -0.704460
     33          8           0       -3.138243   -1.512549   -1.923443
     34          8           0       -3.719012   -2.503102   -0.068009
 ---------------------------------------------------------------------

 SCF Done:  E(RHF) =  -669.534749177     A.U. after   15 cycles
 E2 =    -0.2092204691D+01 EUMP2 =    -0.67162695386813D+03

 The electronic state is 1-A.
 Alpha  occ. eigenvalues --  -20.60765 -20.60760 -15.85818 -11.31190 -11.27752
 Alpha  occ. eigenvalues --  -11.27736 -11.27501 -11.26784 -11.26733 -11.21948
 Alpha  occ. eigenvalues --  -11.21698 -11.21597 -11.21524 -11.21511 -11.21154
 Alpha  occ. eigenvalues --   -1.59840  -1.39393  -1.19369  -1.08766  -1.08639
 Alpha  occ. eigenvalues --   -1.04776  -1.03769  -0.96240  -0.95593  -0.87278
 Alpha  occ. eigenvalues --   -0.86162  -0.82426  -0.79850  -0.78436  -0.77461
 Alpha  occ. eigenvalues --   -0.72037  -0.71162  -0.70468  -0.65285  -0.65016
 Alpha  occ. eigenvalues --   -0.64769  -0.62126  -0.61164  -0.59614  -0.57845
 Alpha  occ. eigenvalues --   -0.55566  -0.55264  -0.53282  -0.52999  -0.52795
 Alpha  occ. eigenvalues --   -0.52504  -0.50147  -0.48796  -0.48791  -0.48149
 Alpha  occ. eigenvalues --   -0.46858  -0.45983  -0.45894  -0.44796  -0.44026
 Alpha  occ. eigenvalues --   -0.37348  -0.36288
 Alpha virt. eigenvalues --    0.05058   0.11213   0.16503   0.21068   0.22700
 Alpha virt. eigenvalues --    0.24101   0.26185   0.26527   0.27326   0.28171
 Alpha virt. eigenvalues --    0.28780   0.30046   0.31243   0.31770   0.32034

 Mulliken charges:
               1
     1  C   -0.298498
     2  C   -0.299948
     3  C   -0.475845
     4  H    0.150332
     5  H    0.148242
     6  H    0.154114
     7  H    0.151689
     8  H    0.154349
     9  H    0.155574
    10  H    0.161183
    11  C   -0.299059
    12  C   -0.298518
    13  C   -0.486209
    14  H    0.152998
    15  H    0.149672
    16  H    0.153525
    17  H    0.149999
    18  H    0.159854
    19  H    0.158322
    20  H    0.154459
    21  C   -0.173164
    22  C   -0.218359
    23  C   -0.171278
    24  C    0.158555
    25  C   -0.168853
    26  C   -0.219492
    27  H    0.225691
    28  H    0.223367
    29  H    0.275560
    30  H    0.276463
    31  H    0.227932
    32  N    0.488129
    33  O   -0.460338
    34  O   -0.460447
 Sum of Mulliken charges =  -0.00000

 Dipole moment (field-independent basis, Debye):
    X=              1.2647    Y=              4.2300    Z=              2.6847  Tot=              5.1672
 Quadrupole moment (field-independent basis, Debye-Ang):
   XX=           -103.4468   YY=            -97.2000   ZZ=            -90.2721
   XY=            -12.4096   XZ=             -9.7443   YZ=             -2.2595

 Normal termination of Gaussian 16 at Wed May  5 23:30:42 2021.
