 Gaussian 16, Revision A.03,
 Gaussian 16:  EM64L-G16RevA.03 25-Dec-2016

 -------------
 #p 6-31g* mp2
 -------------

 ------------------------------------------------------
 Input file generated by CHIRIPA (05-May-2021 14:57:26)
 ------------------------------------------------------
 Symbolic Z-matrix:
 Charge =  0 Multiplicity = 1

                         Standard orientation:
 ---------------------------------------------------------------------
 Center     Atomic      Atomic             Coordinates (Angstroms)
 Number     Number       Type             X           Y           Z
 ---------------------------------------------------------------------
      1          6           0        2.777651    1.971117    1.618705
      2          6           0        2.864773    0.644749    2.054226
      3          6           0        2.680520   -0.410929    1.156372
      4          6           0        2.409433   -0.102616   -0.175823
      5          6           0        2.316400    1.208464   -0.640263
      6          6           0        2.504225    2.248253    0.275219
      7          1           0        2.922170    2.785022    2.323027
      8          1           0        3.076995    0.426544    3.097008
      9          1           0        2.742468   -1.446948    1.466608
     10          1           0        2.103546    1.394604   -1.685951
     11          1           0        2.435989    3.277365   -0.065835
     12          7           0        2.212483   -1.211805   -1.135673
     13          8           0        1.974752   -0.913690   -2.304111
     14          8           0        2.299572   -2.358300   -0.701389
     15          6           0       -2.809381    2.170704   -1.061419
     16          6           0       -1.956878    1.237817   -1.660987
     17          6           0       -1.745821   -0.012426   -1.072010
     18          6           0       -2.406366   -0.297800    0.121947
     19          6           0       -3.261791    0.610487    0.743680
     20          6           0       -3.457974    1.854620    0.136887
     21          1           0       -2.967558    3.139549   -1.525870
     22          1           0       -1.451846    1.480560   -2.591612
     23          1           0       -1.091184   -0.753317   -1.514671
     24          1           0       -3.751261    0.339710    1.671321
     25          1           0       -4.120599    2.577153    0.604773
     26          7           0       -2.190803   -1.618142    0.754900
     27          8           0       -2.784539   -1.845243    1.806822
     28          8           0       -1.432189   -2.400925    0.187103
 ---------------------------------------------------------------------

 SCF Done:  E(RHF) =  -868.337982041     A.U. after   16 cycles
 E2 =    -0.2601131989D+01 EUMP2 =    -0.87093911403006D+03

 The electronic state is 1-A.
 Alpha  occ. eigenvalues --  -20.60855 -20.60721 -20.60495 -20.60443 -15.85816
 Alpha  occ. eigenvalues --  -15.85518 -11.31205 -11.30968 -11.27859 -11.27705
 Alpha  occ. eigenvalues --  -11.27601 -11.27536 -11.27458 -11.27368 -11.26851
 Alpha  occ. eigenvalues --  -11.26748 -11.26646 -11.26568  -1.59845  -1.59553
 Alpha  occ. eigenvalues --   -1.39400  -1.39099  -1.19384  -1.19166  -1.08776
 Alpha  occ. eigenvalues --   -1.08561  -1.04791  -1.04569  -0.95606  -0.95368
 Alpha  occ. eigenvalues --   -0.86189  -0.85975  -0.82439  -0.82183  -0.77488
 Alpha  occ. eigenvalues --   -0.77207  -0.72036  -0.71740  -0.71180  -0.70872
 Alpha  occ. eigenvalues --   -0.70498  -0.70261  -0.65039  -0.64819  -0.64793
 Alpha  occ. eigenvalues --   -0.64573  -0.62144  -0.61886  -0.55298  -0.55105
 Alpha  occ. eigenvalues --   -0.53181  -0.52895  -0.52848  -0.52653  -0.48821
 Alpha  occ. eigenvalues --   -0.48775  -0.48514  -0.48480  -0.44800  -0.44463
 Alpha  occ. eigenvalues --   -0.37406  -0.37172  -0.36479  -0.36064
 Alpha virt. eigenvalues --    0.05037   0.05293   0.11239   0.11450   0.16518
 Alpha virt. eigenvalues --    0.16766   0.21080   0.21771   0.26661   0.27575
 Alpha virt. eigenvalues --    0.28342   0.28673   0.30800   0.31280   0.32494

 Mulliken charges:
               1
     1  C   -0.170804
     2  C   -0.218623
     3  C   -0.168380
     4  C    0.157836
     5  C   -0.171745
     6  C   -0.217831
     7  H    0.225108
     8  H    0.225410
     9  H    0.281215
    10  H    0.269328
    11  H    0.220510
    12  N    0.487811
    13  O   -0.471595
    14  O   -0.445685
    15  C   -0.171988
    16  C   -0.222024
    17  C   -0.178263
    18  C    0.158668
    19  C   -0.171511
    20  C   -0.219246
    21  H    0.223112
    22  H    0.225236
    23  H    0.288610
    24  H    0.274223
    25  H    0.221388
    26  N    0.486502
    27  O   -0.464172
    28  O   -0.453090
 Sum of Mulliken charges =  -0.00000

 Dipole moment (field-independent basis, Debye):
    X=              0.0986    Y=              8.2473    Z=              1.2563  Tot=              8.3430
 Quadrupole moment (field-independent basis, Debye-Ang):
   XX=            -97.3372   YY=           -106.6224   ZZ=           -101.9107
   XY=             -3.4006   XZ=             11.9669   YZ=             -1.4006

 Normal termination of Gaussian 16 at Wed May  5 16:31:42 2021.
