 Gaussian 16, Revision A.03,
 Gaussian 16:  EM64L-G16RevA.03 25-Dec-2016

 -------------
 #p 6-31g* mp2
 -------------

 ------------------------------------------------------
 Input file generated by CHIRIPA (05-May-2021 14:51:09)
 ------------------------------------------------------
 Symbolic Z-matrix:
 Charge =  0 Multiplicity = 1

                         Standard orientation:
 ---------------------------------------------------------------------
 Center     Atomic      Atomic             Coordinates (Angstroms)
 Number     Number       Type             X           Y           Z
 ---------------------------------------------------------------------
      1          6           0        2.149361    1.070454   -0.094338
      2          6           0        2.329260    2.044013    1.070911
      3          6           0        1.168040    3.029988    1.202124
      4          1           0        2.043527    1.640781   -1.027329
      5          1           0        1.210249    0.516379    0.041544
      6          1           0        3.268439    2.595102    0.933587
      7          1           0        2.434869    1.471297    2.001211
      8          1           0        0.225884    2.496276    1.363659
      9          1           0        1.064190    3.626467    0.289968
     10          1           0        1.317216    3.716565    2.041302
     11          6           0        3.302147    0.078467   -0.238464
     12          6           0        3.122249   -0.895092   -1.403714
     13          6           0        4.283468   -1.881067   -1.534927
     14          1           0        4.241259    0.632542   -0.374347
     15          1           0        3.407981   -0.491860    0.694526
     16          1           0        3.016639   -0.322375   -2.334014
     17          1           0        2.183069   -1.446181   -1.266389
     18          1           0        4.387319   -2.477546   -0.622771
     19          1           0        5.225625   -1.347355   -1.696462
     20          1           0        4.134293   -2.567643   -2.374105
     21          6           0       -2.598567   -1.180165    0.614037
     22          6           0       -1.226604   -1.158116    1.288732
     23          6           0       -0.986969   -2.376423    2.180975
     24          1           0       -3.378859   -1.230414    1.385766
     25          1           0       -2.690720   -2.097475    0.016170
     26          1           0       -1.136533   -0.240451    1.884042
     27          1           0       -0.449493   -1.107721    0.515313
     28          1           0       -1.049873   -3.300159    1.596718
     29          1           0       -1.740818   -2.427961    2.973223
     30          1           0       -0.000335   -2.340274    2.653316
     31          6           0       -2.852941    0.031243   -0.281235
     32          6           0       -4.224905    0.009195   -0.955929
     33          6           0       -4.464540    1.227502   -1.848172
     34          1           0       -2.760788    0.948554    0.316633
     35          1           0       -2.072648    0.081492   -1.052963
     36          1           0       -5.002016   -0.041200   -0.182510
     37          1           0       -4.314975   -0.908470   -1.551239
     38          1           0       -3.710691    1.279040   -2.640420
     39          1           0       -4.401636    2.151238   -1.263915
     40          1           0       -5.451173    1.191353   -2.320513
 ---------------------------------------------------------------------

 SCF Done:  E(RHF) =  -470.733279620     A.U. after   11 cycles
 E2 =    -0.1583556674D+01 EUMP2 =    -0.47231683629441D+03

 The electronic state is 1-A.
 Alpha  occ. eigenvalues --  -11.21704 -11.21626 -11.21615 -11.21553 -11.21461
 Alpha  occ. eigenvalues --  -11.21395 -11.21359 -11.21263 -11.21160 -11.21077
 Alpha  occ. eigenvalues --  -11.21076 -11.21030  -1.08496  -1.08389  -1.03591
 Alpha  occ. eigenvalues --   -1.03502  -0.96031  -0.95949  -0.87049  -0.86966
 Alpha  occ. eigenvalues --   -0.79685  -0.79558  -0.78389  -0.78120  -0.65172
 Alpha  occ. eigenvalues --   -0.64987  -0.60993  -0.60902  -0.59408  -0.59312
 Alpha  occ. eigenvalues --   -0.57652  -0.57554  -0.55323  -0.55231  -0.52731
 Alpha  occ. eigenvalues --   -0.52651  -0.52463  -0.52370  -0.49998  -0.49879
 Alpha  occ. eigenvalues --   -0.48067  -0.47860  -0.46759  -0.46620  -0.46153
 Alpha  occ. eigenvalues --   -0.45763  -0.45724  -0.45179  -0.43837  -0.43751
 Alpha virt. eigenvalues --    0.20336   0.22910   0.23413   0.24477   0.25075
 Alpha virt. eigenvalues --    0.25862   0.26988   0.27922   0.28532   0.29425
 Alpha virt. eigenvalues --    0.30794   0.31669   0.31741   0.31884   0.32053

 Mulliken charges:
               1
     1  C   -0.307359
     2  C   -0.298722
     3  C   -0.477492
     4  H    0.148935
     5  H    0.159503
     6  H    0.151611
     7  H    0.151517
     8  H    0.156600
     9  H    0.155195
    10  H    0.159787
    11  C   -0.297674
    12  C   -0.300612
    13  C   -0.475635
    14  H    0.149448
    15  H    0.149300
    16  H    0.151976
    17  H    0.151409
    18  H    0.155297
    19  H    0.155371
    20  H    0.160091
    21  C   -0.297697
    22  C   -0.307942
    23  C   -0.475213
    24  H    0.149981
    25  H    0.149732
    26  H    0.153016
    27  H    0.157749
    28  H    0.155488
    29  H    0.155722
    30  H    0.160020
    31  C   -0.299504
    32  C   -0.299674
    33  C   -0.475777
    34  H    0.149864
    35  H    0.150505
    36  H    0.152023
    37  H    0.152006
    38  H    0.155410
    39  H    0.155467
    40  H    0.160276
 Sum of Mulliken charges =  -0.00000

 Dipole moment (field-independent basis, Debye):
    X=             -0.0449    Y=             -0.0200    Z=             -0.0003  Tot=              0.0492
 Quadrupole moment (field-independent basis, Debye-Ang):
   XX=            -85.0888   YY=            -85.4199   ZZ=            -84.2738
   XY=              0.9558   XZ=             -0.6785   YZ=              0.3368

 Normal termination of Gaussian 16 at Thu May  6 00:32:18 2021.
