 Gaussian 16, Revision A.03,
 Gaussian 16:  EM64L-G16RevA.03 25-Dec-2016

 -------------
 #p 6-31g* mp2
 -------------

 ------------------------------------------------------
 Input file generated by CHIRIPA (05-May-2021 14:55:23)
 ------------------------------------------------------
 Symbolic Z-matrix:
 Charge =  0 Multiplicity = 1

                         Standard orientation:
 ---------------------------------------------------------------------
 Center     Atomic      Atomic             Coordinates (Angstroms)
 Number     Number       Type             X           Y           Z
 ---------------------------------------------------------------------
      1          6           0       -2.868232    2.373733   -0.156993
      2          6           0       -4.248759    2.187862   -0.283954
      3          6           0       -4.798848    0.903199   -0.244086
      4          6           0       -3.935217   -0.177961   -0.075188
      5          6           0       -2.555639   -0.025232    0.054153
      6          6           0       -2.027561    1.268541    0.011359
      7          1           0       -2.449459    3.375229   -0.189100
      8          1           0       -4.904045    3.044322   -0.414806
      9          1           0       -5.863966    0.730662   -0.339863
     10          1           0       -1.927804   -0.898457    0.183457
     11          1           0       -0.955044    1.409888    0.110222
     12          7           0       -4.505921   -1.542798   -0.031432
     13          8           0       -3.723629   -2.478869    0.118326
     14          8           0       -5.724725   -1.650645   -0.147723
     15          6           0        4.195346   -0.306651    0.057143
     16          6           0        3.198055    0.588364    0.793582
     17          6           0        1.759202    0.082107    0.687737
     18          1           0        3.905888   -0.374544   -1.000472
     19          1           0        4.133222   -1.325385    0.464228
     20          1           0        3.263023    1.605424    0.386172
     21          1           0        3.490030    0.654289    1.849528
     22          1           0        1.672398   -0.923382    1.112069
     23          1           0        1.444101    0.033157   -0.359601
     24          1           0        1.063010    0.736750    1.221233
     25          6           0        5.638019    0.186379    0.153798
     26          6           0        6.635311   -0.708636   -0.582640
     27          6           0        8.074163   -0.202379   -0.476796
     28          1           0        5.700144    1.205112   -0.253286
     29          1           0        5.927479    0.254272    1.211413
     30          1           0        6.343335   -0.774561   -1.638585
     31          1           0        6.570342   -1.725697   -0.175230
     32          1           0        8.389264   -0.153429    0.570543
     33          1           0        8.160966    0.803110   -0.901128
     34          1           0        8.770357   -0.857022   -1.010291
 ---------------------------------------------------------------------

 SCF Done:  E(RHF) =  -669.535550937     A.U. after   15 cycles
 E2 =    -0.2090975945D+01 EUMP2 =    -0.67162652688238D+03

 The electronic state is 1-A.
 Alpha  occ. eigenvalues --  -20.60690 -20.60684 -15.85741 -11.31087 -11.27663
 Alpha  occ. eigenvalues --  -11.27629 -11.27392 -11.26679 -11.26588 -11.22361
 Alpha  occ. eigenvalues --  -11.22124 -11.21931 -11.21918 -11.21790 -11.21339
 Alpha  occ. eigenvalues --   -1.59765  -1.39319  -1.19256  -1.08957  -1.08657
 Alpha  occ. eigenvalues --   -1.04654  -1.04107  -0.96583  -0.95495  -0.87617
 Alpha  occ. eigenvalues --   -0.86051  -0.82326  -0.80183  -0.78727  -0.77371
 Alpha  occ. eigenvalues --   -0.71960  -0.71088  -0.70370  -0.65585  -0.64906
 Alpha  occ. eigenvalues --   -0.64680  -0.62057  -0.61480  -0.59957  -0.58165
 Alpha  occ. eigenvalues --   -0.55861  -0.55166  -0.53415  -0.53029  -0.52974
 Alpha  occ. eigenvalues --   -0.52594  -0.50499  -0.48717  -0.48716  -0.48487
 Alpha  occ. eigenvalues --   -0.47183  -0.46280  -0.46175  -0.44729  -0.44346
 Alpha  occ. eigenvalues --   -0.37245  -0.36254
 Alpha virt. eigenvalues --    0.05149   0.11377   0.16617   0.20469   0.22513
 Alpha virt. eigenvalues --    0.23788   0.25856   0.26193   0.26967   0.28206
 Alpha virt. eigenvalues --    0.29056   0.30038   0.30790   0.31464   0.32113

 Mulliken charges:
               1
     1  C   -0.171955
     2  C   -0.218464
     3  C   -0.171323
     4  C    0.158716
     5  C   -0.173727
     6  C   -0.225364
     7  H    0.225303
     8  H    0.222855
     9  H    0.275192
    10  H    0.276502
    11  H    0.233114
    12  N    0.488103
    13  O   -0.460528
    14  O   -0.460892
    15  C   -0.299534
    16  C   -0.298944
    17  C   -0.485538
    18  H    0.150679
    19  H    0.152290
    20  H    0.151352
    21  H    0.155349
    22  H    0.162918
    23  H    0.154852
    24  H    0.155762
    25  C   -0.298812
    26  C   -0.300170
    27  C   -0.476005
    28  H    0.149378
    29  H    0.150627
    30  H    0.152560
    31  H    0.153288
    32  H    0.155678
    33  H    0.155138
    34  H    0.161601
 Sum of Mulliken charges =  -0.00000

 Dipole moment (field-independent basis, Debye):
    X=              2.2668    Y=              4.7562    Z=             -0.1371  Tot=              5.2706
 Quadrupole moment (field-independent basis, Debye-Ang):
   XX=           -106.9762   YY=            -96.0903   ZZ=            -94.8073
   XY=            -21.8978   XZ=              1.3052   YZ=             -1.1312

 Normal termination of Gaussian 16 at Wed May  5 20:42:08 2021.
