 Gaussian 16, Revision A.03,
 Gaussian 16:  EM64L-G16RevA.03 25-Dec-2016

 -------------
 #p 6-31g* mp2
 -------------

 ------------------------------------------------------
 Input file generated by CHIRIPA (05-May-2021 14:51:11)
 ------------------------------------------------------
 Symbolic Z-matrix:
 Charge =  0 Multiplicity = 1

                         Standard orientation:
 ---------------------------------------------------------------------
 Center     Atomic      Atomic             Coordinates (Angstroms)
 Number     Number       Type             X           Y           Z
 ---------------------------------------------------------------------
      1          6           0       -3.191660    0.124668    0.077081
      2          6           0       -4.507137    0.061856   -0.699812
      3          6           0       -5.225790   -1.277988   -0.538103
      4          1           0       -2.534634   -0.688536   -0.260500
      5          1           0       -3.393509   -0.058065    1.141628
      6          1           0       -4.303048    0.246025   -1.762377
      7          1           0       -5.161033    0.875421   -0.360478
      8          1           0       -5.458096   -1.465885    0.515144
      9          1           0       -4.595237   -2.098857   -0.894721
     10          1           0       -6.163684   -1.301093   -1.101735
     11          6           0       -2.461539    1.457944   -0.074661
     12          6           0       -1.146062    1.520756    0.702232
     13          6           0       -0.427409    2.860600    0.540523
     14          1           0       -2.259690    1.640677   -1.139208
     15          1           0       -3.118565    2.271148    0.262920
     16          1           0       -0.492166    0.707191    0.362898
     17          1           0       -1.350151    1.336587    1.764797
     18          1           0       -1.057962    3.681469    0.897141
     19          1           0       -0.195103    3.048497   -0.512724
     20          1           0        0.510485    2.883705    1.104155
     21          6           0        3.563221   -0.732926   -0.194636
     22          6           0        4.050822    0.712750   -0.295877
     23          6           0        5.526403    0.813149   -0.683659
     24          1           0        4.175167   -1.268717    0.543873
     25          1           0        3.725055   -1.235463   -1.158307
     26          1           0        3.886844    1.212810    0.667279
     27          1           0        3.437520    1.245212   -1.034091
     28          1           0        5.702630    0.339250   -1.654723
     29          1           0        6.154507    0.306664    0.056314
     30          1           0        5.853970    1.855318   -0.750319
     31          6           0        2.089979   -0.849685    0.192216
     32          6           0        1.602377   -2.295362    0.293457
     33          6           0        0.126796   -2.395761    0.681239
     34          1           0        1.928144   -0.347149    1.155887
     35          1           0        1.478033   -0.313896   -0.546292
     36          1           0        2.215679   -2.827825    1.031671
     37          1           0        1.766355   -2.795421   -0.669699
     38          1           0       -0.501309   -1.889276   -0.058733
     39          1           0       -0.049431   -1.921863    1.652303
     40          1           0       -0.200771   -3.437930    0.747899
 ---------------------------------------------------------------------

 SCF Done:  E(RHF) =  -470.731897667     A.U. after   11 cycles
 E2 =    -0.1584943406D+01 EUMP2 =    -0.47231684107306D+03

 The electronic state is 1-A.
 Alpha  occ. eigenvalues --  -11.21642 -11.21624 -11.21546 -11.21445 -11.21403
 Alpha  occ. eigenvalues --  -11.21384 -11.21312 -11.21254 -11.21087 -11.21073
 Alpha  occ. eigenvalues --  -11.21026 -11.20981  -1.08491  -1.08334  -1.03574
 Alpha  occ. eigenvalues --   -1.03437  -0.96026  -0.95892  -0.87038  -0.86915
 Alpha  occ. eigenvalues --   -0.79704  -0.79488  -0.78443  -0.77990  -0.65193
 Alpha  occ. eigenvalues --   -0.64921  -0.60973  -0.60859  -0.59429  -0.59220
 Alpha  occ. eigenvalues --   -0.57718  -0.57442  -0.55393  -0.55125  -0.52705
 Alpha  occ. eigenvalues --   -0.52629  -0.52438  -0.52302  -0.50027  -0.49791
 Alpha  occ. eigenvalues --   -0.48171  -0.47769  -0.46803  -0.46618  -0.46091
 Alpha  occ. eigenvalues --   -0.45781  -0.45632  -0.44889  -0.43818  -0.43690
 Alpha virt. eigenvalues --    0.21301   0.22869   0.23893   0.24138   0.25432
 Alpha virt. eigenvalues --    0.26243   0.26686   0.27422   0.29179   0.29546
 Alpha virt. eigenvalues --    0.30709   0.31205   0.31539   0.31863   0.32160

 Mulliken charges:
               1
     1  C   -0.304037
     2  C   -0.299055
     3  C   -0.475560
     4  H    0.155542
     5  H    0.149490
     6  H    0.151281
     7  H    0.151800
     8  H    0.155243
     9  H    0.155061
    10  H    0.159947
    11  C   -0.297637
    12  C   -0.310271
    13  C   -0.475233
    14  H    0.147984
    15  H    0.149081
    16  H    0.165902
    17  H    0.150237
    18  H    0.154636
    19  H    0.153967
    20  H    0.160142
    21  C   -0.297490
    22  C   -0.299702
    23  C   -0.475772
    24  H    0.149788
    25  H    0.149434
    26  H    0.151856
    27  H    0.152257
    28  H    0.155168
    29  H    0.155203
    30  H    0.160484
    31  C   -0.302230
    32  C   -0.299357
    33  C   -0.480928
    34  H    0.151529
    35  H    0.151113
    36  H    0.152089
    37  H    0.151558
    38  H    0.158920
    39  H    0.157182
    40  H    0.160377
 Sum of Mulliken charges =  -0.00000

 Dipole moment (field-independent basis, Debye):
    X=              0.0536    Y=             -0.0498    Z=              0.0145  Tot=              0.0746
 Quadrupole moment (field-independent basis, Debye-Ang):
   XX=            -86.1285   YY=            -85.6786   ZZ=            -83.1986
   XY=             -0.9375   XZ=              0.1320   YZ=              0.3294

 Normal termination of Gaussian 16 at Thu May  6 03:50:01 2021.
