 Gaussian 16, Revision A.03,
 Gaussian 16:  EM64L-G16RevA.03 25-Dec-2016

 -------------
 #p 6-31g* mp2
 -------------

 ------------------------------------------------------
 Input file generated by CHIRIPA (05-May-2021 14:51:13)
 ------------------------------------------------------
 Symbolic Z-matrix:
 Charge =  0 Multiplicity = 1

                         Standard orientation:
 ---------------------------------------------------------------------
 Center     Atomic      Atomic             Coordinates (Angstroms)
 Number     Number       Type             X           Y           Z
 ---------------------------------------------------------------------
      1          6           0        2.706232   -0.320095    0.145650
      2          6           0        1.819253   -1.544491    0.373924
      3          6           0        0.342089   -1.183071    0.532532
      4          1           0        2.585627    0.374368    0.988336
      5          1           0        2.359916    0.212905   -0.750660
      6          1           0        2.168000   -2.075792    1.268748
      7          1           0        1.942129   -2.236208   -0.469311
      8          1           0       -0.027940   -0.672839   -0.362645
      9          1           0        0.199213   -0.511512    1.385290
     10          1           0       -0.273818   -2.073135    0.694722
     11          6           0        4.185719   -0.665225   -0.014764
     12          6           0        5.072697    0.559170   -0.243038
     13          6           0        6.549861    0.197751   -0.401646
     14          1           0        4.532035   -1.198226    0.881546
     15          1           0        4.306324   -1.359688   -0.857450
     16          1           0        4.949821    1.250888    0.600197
     17          1           0        4.723951    1.090472   -1.137862
     18          1           0        6.692737   -0.473808   -1.254404
     19          1           0        6.919891   -0.312481    0.493531
     20          1           0        7.165768    1.087815   -0.563836
     21          6           0       -3.388041    1.242013   -0.201625
     22          6           0       -2.104376    1.861455    0.351982
     23          6           0       -2.002967    3.361091    0.071616
     24          1           0       -3.434886    1.417921   -1.285049
     25          1           0       -4.254082    1.757258    0.236429
     26          1           0       -1.241025    1.344277   -0.085932
     27          1           0       -2.060487    1.683885    1.434183
     28          1           0       -2.845458    3.895186    0.522784
     29          1           0       -2.021339    3.553647   -1.005968
     30          1           0       -1.077794    3.783452    0.475997
     31          6           0       -3.503909   -0.256693    0.070739
     32          6           0       -4.787575   -0.876135   -0.482867
     33          6           0       -4.888983   -2.375770   -0.202501
     34          1           0       -2.637868   -0.771938   -0.367314
     35          1           0       -3.457064   -0.432601    1.154163
     36          1           0       -4.831463   -0.698566   -1.565069
     37          1           0       -5.650925   -0.358956   -0.044954
     38          1           0       -4.870611   -2.568327    0.875082
     39          1           0       -4.046493   -2.909865   -0.653670
     40          1           0       -5.814157   -2.798132   -0.606883
 ---------------------------------------------------------------------

 SCF Done:  E(RHF) =  -470.732268704     A.U. after   11 cycles
 E2 =    -0.1583672449D+01 EUMP2 =    -0.47231594115368D+03

 The electronic state is 1-A.
 Alpha  occ. eigenvalues --  -11.21613 -11.21599 -11.21528 -11.21444 -11.21422
 Alpha  occ. eigenvalues --  -11.21363 -11.21296 -11.21223 -11.21080 -11.21047
 Alpha  occ. eigenvalues --  -11.21026 -11.20990  -1.08450  -1.08331  -1.03549
 Alpha  occ. eigenvalues --   -1.03441  -0.96002  -0.95895  -0.87024  -0.86915
 Alpha  occ. eigenvalues --   -0.79684  -0.79478  -0.78317  -0.78049  -0.65111
 Alpha  occ. eigenvalues --   -0.64952  -0.60962  -0.60842  -0.59402  -0.59243
 Alpha  occ. eigenvalues --   -0.57615  -0.57495  -0.55314  -0.55169  -0.52746
 Alpha  occ. eigenvalues --   -0.52639  -0.52417  -0.52272  -0.49959  -0.49847
 Alpha  occ. eigenvalues --   -0.48159  -0.47673  -0.46707  -0.46513  -0.45970
 Alpha  occ. eigenvalues --   -0.45757  -0.45619  -0.45222  -0.43774  -0.43684
 Alpha virt. eigenvalues --    0.21851   0.23063   0.24076   0.24449   0.25613
 Alpha virt. eigenvalues --    0.26213   0.27094   0.27547   0.27867   0.29800
 Alpha virt. eigenvalues --    0.30481   0.31200   0.31828   0.31960   0.32171

 Mulliken charges:
               1
     1  C   -0.298432
     2  C   -0.300637
     3  C   -0.477593
     4  H    0.149802
     5  H    0.148921
     6  H    0.151852
     7  H    0.151536
     8  H    0.156404
     9  H    0.158089
    10  H    0.160853
    11  C   -0.298175
    12  C   -0.299644
    13  C   -0.475717
    14  H    0.149639
    15  H    0.149622
    16  H    0.151978
    17  H    0.151903
    18  H    0.155172
    19  H    0.155211
    20  H    0.160302
    21  C   -0.298213
    22  C   -0.304234
    23  C   -0.475322
    24  H    0.148471
    25  H    0.148873
    26  H    0.159157
    27  H    0.150751
    28  H    0.154627
    29  H    0.154445
    30  H    0.159750
    31  C   -0.302870
    32  C   -0.299345
    33  C   -0.475567
    34  H    0.156498
    35  H    0.149172
    36  H    0.151352
    37  H    0.151575
    38  H    0.155013
    39  H    0.154796
    40  H    0.159987
 Sum of Mulliken charges =  -0.00000

 Dipole moment (field-independent basis, Debye):
    X=              0.0446    Y=             -0.0303    Z=              0.0147  Tot=              0.0559
 Quadrupole moment (field-independent basis, Debye-Ang):
   XX=            -86.1045   YY=            -86.1084   ZZ=            -82.9787
   XY=             -0.1259   XZ=             -0.1237   YZ=              0.3851

 Normal termination of Gaussian 16 at Thu May  6 03:57:45 2021.
