 Gaussian 16, Revision A.03,
 Gaussian 16:  EM64L-G16RevA.03 25-Dec-2016

 -------------
 #p 6-31g* mp2
 -------------

 ------------------------------------------------------
 Input file generated by CHIRIPA (05-May-2021 14:55:20)
 ------------------------------------------------------
 Symbolic Z-matrix:
 Charge =  0 Multiplicity = 1

                         Standard orientation:
 ---------------------------------------------------------------------
 Center     Atomic      Atomic             Coordinates (Angstroms)
 Number     Number       Type             X           Y           Z
 ---------------------------------------------------------------------
      1          6           0        3.647220   -1.992722   -0.072248
      2          6           0        3.778641   -1.129761   -1.165202
      3          6           0        3.294296    0.179987   -1.097975
      4          6           0        2.681208    0.595521    0.083018
      5          6           0        2.535241   -0.240505    1.188931
      6          6           0        3.027033   -1.546127    1.099265
      7          1           0        4.026363   -3.008563   -0.133187
      8          1           0        4.259840   -1.473872   -2.076289
      9          1           0        3.382776    0.869029   -1.929124
     10          1           0        2.050860    0.131192    2.083713
     11          1           0        2.923580   -2.214116    1.949637
     12          7           0        2.164512    1.979908    0.166066
     13          8           0        1.628346    2.321789    1.217864
     14          8           0        2.305475    2.696897   -0.822212
     15          6           0       -4.216210   -0.377722    0.256073
     16          6           0       -5.221564    0.413120   -0.581673
     17          6           0       -6.567666    0.589824    0.121589
     18          1           0       -4.640278   -1.363276    0.492280
     19          1           0       -4.064973    0.135634    1.215754
     20          1           0       -5.369812   -0.100839   -1.540049
     21          1           0       -4.794974    1.396833   -0.816076
     22          1           0       -6.440103    1.122698    1.069415
     23          1           0       -7.018207   -0.383484    0.341328
     24          1           0       -7.271221    1.157909   -0.494974
     25          6           0       -2.865686   -0.562713   -0.433560
     26          6           0       -1.860332   -1.353554    0.404187
     27          6           0       -0.514230   -1.530259   -0.299075
     28          1           0       -3.016923   -1.076069   -1.393241
     29          1           0       -2.441619    0.422842   -0.669767
     30          1           0       -2.286921   -2.337268    0.638589
     31          1           0       -1.712085   -0.839595    1.362563
     32          1           0       -0.063689   -0.556951   -0.518814
     33          1           0       -0.641792   -2.063133   -1.246901
     34          1           0        0.189324   -2.098344    0.317488
 ---------------------------------------------------------------------

 SCF Done:  E(RHF) =  -669.534175132     A.U. after   15 cycles
 E2 =    -0.2093356483D+01 EUMP2 =    -0.67162753161512D+03

 The electronic state is 1-A.
 Alpha  occ. eigenvalues --  -20.60812 -20.60807 -15.85864 -11.31171 -11.27783
 Alpha  occ. eigenvalues --  -11.27755 -11.27530 -11.26787 -11.26761 -11.21502
 Alpha  occ. eigenvalues --  -11.21362 -11.21195 -11.21134 -11.20952 -11.20855
 Alpha  occ. eigenvalues --   -1.59891  -1.39444  -1.19385  -1.08785  -1.08241
 Alpha  occ. eigenvalues --   -1.04789  -1.03368  -0.95827  -0.95614  -0.86842
 Alpha  occ. eigenvalues --   -0.86186  -0.82455  -0.79440  -0.78051  -0.77502
 Alpha  occ. eigenvalues --   -0.72083  -0.71225  -0.70496  -0.65038  -0.64869
 Alpha  occ. eigenvalues --   -0.64792  -0.62134  -0.60782  -0.59232  -0.57444
 Alpha  occ. eigenvalues --   -0.55297  -0.55193  -0.53406  -0.52879  -0.52271
 Alpha  occ. eigenvalues --   -0.52153  -0.49714  -0.48840  -0.48839  -0.47764
 Alpha  occ. eigenvalues --   -0.46459  -0.45594  -0.45508  -0.44852  -0.43616
 Alpha  occ. eigenvalues --   -0.37318  -0.36300
 Alpha virt. eigenvalues --    0.05017   0.11196   0.16475   0.21321   0.23034
 Alpha virt. eigenvalues --    0.24380   0.26761   0.27171   0.27639   0.28154
 Alpha virt. eigenvalues --    0.28358   0.30580   0.31455   0.31933   0.32120

 Mulliken charges:
               1
     1  C   -0.169463
     2  C   -0.217446
     3  C   -0.171484
     4  C    0.159199
     5  C   -0.166113
     6  C   -0.218969
     7  H    0.225798
     8  H    0.223582
     9  H    0.275743
    10  H    0.275272
    11  H    0.223365
    12  N    0.487604
    13  O   -0.460884
    14  O   -0.460549
    15  C   -0.298382
    16  C   -0.300023
    17  C   -0.475727
    18  H    0.147604
    19  H    0.151185
    20  H    0.150777
    21  H    0.154797
    22  H    0.155958
    23  H    0.153832
    24  H    0.160169
    25  C   -0.299127
    26  C   -0.299856
    27  C   -0.476156
    28  H    0.147931
    29  H    0.154981
    30  H    0.149045
    31  H    0.152164
    32  H    0.156228
    33  H    0.152180
    34  H    0.156769
 Sum of Mulliken charges =  -0.00000

 Dipole moment (field-independent basis, Debye):
    X=              1.9128    Y=             -4.8232    Z=             -0.2947  Tot=              5.1970
 Quadrupole moment (field-independent basis, Debye-Ang):
   XX=            -86.1769   YY=           -100.5554   ZZ=            -90.5231
   XY=            -11.7220   XZ=             -1.8562   YZ=             -1.2396

 Normal termination of Gaussian 16 at Wed May  5 15:54:24 2021.
