 Gaussian 16, Revision A.03,
 Gaussian 16:  EM64L-G16RevA.03 25-Dec-2016

 -------------
 #p 6-31g* mp2
 -------------

 ------------------------------------------------------
 Input file generated by CHIRIPA (05-May-2021 14:55:20)
 ------------------------------------------------------
 Symbolic Z-matrix:
 Charge =  0 Multiplicity = 1

                         Standard orientation:
 ---------------------------------------------------------------------
 Center     Atomic      Atomic             Coordinates (Angstroms)
 Number     Number       Type             X           Y           Z
 ---------------------------------------------------------------------
      1          6           0       -4.207692   -1.273337   -1.244655
      2          6           0       -4.636805   -0.245984   -0.397939
      3          6           0       -3.727133    0.417875    0.430516
      4          6           0       -2.389783    0.026912    0.386555
      5          6           0       -1.931494   -0.992795   -0.446187
      6          6           0       -2.858784   -1.642813   -1.266039
      7          1           0       -4.921190   -1.783663   -1.884877
      8          1           0       -5.683774    0.043068   -0.379236
      9          1           0       -4.032202    1.216633    1.095599
     10          1           0       -0.881391   -1.258671   -0.442752
     11          1           0       -2.522686   -2.440311   -1.922605
     12          7           0       -1.417428    0.722383    1.259049
     13          8           0       -0.244651    0.359147    1.201680
     14          8           0       -1.846485    1.617562    1.983759
     15          6           0        3.656543   -0.321766    0.180182
     16          6           0        3.548521   -1.818491   -0.113305
     17          6           0        4.339080   -2.673719    0.877350
     18          1           0        4.714374   -0.025948    0.159506
     19          1           0        3.297820   -0.128485    1.200649
     20          1           0        3.906047   -2.008701   -1.133408
     21          1           0        2.490808   -2.110743   -0.092117
     22          1           0        3.978205   -2.513254    1.898439
     23          1           0        5.401484   -2.410633    0.851231
     24          1           0        4.247958   -3.740213    0.648993
     25          6           0        2.871556    0.546304   -0.801641
     26          6           0        2.979578    2.043028   -0.508155
     27          6           0        2.189019    2.898256   -1.498810
     28          1           0        3.230279    0.353022   -1.822109
     29          1           0        1.813724    0.250486   -0.780966
     30          1           0        4.037291    2.335280   -0.529343
     31          1           0        2.622052    2.233239    0.511949
     32          1           0        1.126615    2.635170   -1.472691
     33          1           0        2.549894    2.737792   -2.519899
     34          1           0        2.280142    3.964750   -1.270452
 ---------------------------------------------------------------------

 SCF Done:  E(RHF) =  -669.536410675     A.U. after   15 cycles
 E2 =    -0.2091881310D+01 EUMP2 =    -0.67162829198518D+03

 The electronic state is 1-A.
 Alpha  occ. eigenvalues --  -20.61030 -20.61024 -15.86054 -11.31336 -11.27897
 Alpha  occ. eigenvalues --  -11.27890 -11.27622 -11.26893 -11.26883 -11.21043
 Alpha  occ. eigenvalues --  -11.20573 -11.20556 -11.20480 -11.20368 -11.20261
 Alpha  occ. eigenvalues --   -1.60085  -1.39643  -1.19501  -1.08912  -1.07552
 Alpha  occ. eigenvalues --   -1.04891  -1.02749  -0.95762  -0.95204  -0.86294
 Alpha  occ. eigenvalues --   -0.86234  -0.82597  -0.78832  -0.77679  -0.77344
 Alpha  occ. eigenvalues --   -0.72288  -0.71396  -0.70610  -0.65167  -0.64894
 Alpha  occ. eigenvalues --   -0.64120  -0.62239  -0.60126  -0.58598  -0.56830
 Alpha  occ. eigenvalues --   -0.55396  -0.54472  -0.53224  -0.52983  -0.51954
 Alpha  occ. eigenvalues --   -0.51654  -0.49175  -0.49041  -0.49008  -0.47167
 Alpha  occ. eigenvalues --   -0.45840  -0.45225  -0.44855  -0.44630  -0.42974
 Alpha  occ. eigenvalues --   -0.37477  -0.36489
 Alpha virt. eigenvalues --    0.04841   0.11152   0.16327   0.20460   0.23147
 Alpha virt. eigenvalues --    0.25032   0.25347   0.27498   0.27988   0.28626
 Alpha virt. eigenvalues --    0.29282   0.31301   0.31970   0.32382   0.32536

 Mulliken charges:
               1
     1  C   -0.170319
     2  C   -0.218604
     3  C   -0.170556
     4  C    0.157583
     5  C   -0.172102
     6  C   -0.218963
     7  H    0.226245
     8  H    0.224009
     9  H    0.275898
    10  H    0.277747
    11  H    0.224474
    12  N    0.490372
    13  O   -0.463768
    14  O   -0.458301
    15  C   -0.298896
    16  C   -0.298127
    17  C   -0.475555
    18  H    0.145522
    19  H    0.161265
    20  H    0.147536
    21  H    0.147356
    22  H    0.158053
    23  H    0.154381
    24  H    0.155944
    25  C   -0.300737
    26  C   -0.300373
    27  C   -0.474631
    28  H    0.140540
    29  H    0.159294
    30  H    0.146519
    31  H    0.165715
    32  H    0.154247
    33  H    0.149505
    34  H    0.158727
 Sum of Mulliken charges =  -0.00000

 Dipole moment (field-independent basis, Debye):
    X=             -3.6752    Y=             -2.3892    Z=             -2.8672  Tot=              5.2379
 Quadrupole moment (field-independent basis, Debye-Ang):
   XX=            -76.0334   YY=            -94.7168   ZZ=            -97.4226
   XY=              4.0820   XZ=              4.4970   YZ=              1.0082

 Normal termination of Gaussian 16 at Thu May  6 14:06:10 2021.
