 Gaussian 16, Revision A.03,
 Gaussian 16:  EM64L-G16RevA.03 25-Dec-2016

 -------------
 #p 6-31g* mp2
 -------------

 ------------------------------------------------------
 Input file generated by CHIRIPA (05-May-2021 14:57:24)
 ------------------------------------------------------
 Symbolic Z-matrix:
 Charge =  0 Multiplicity = 1

                         Standard orientation:
 ---------------------------------------------------------------------
 Center     Atomic      Atomic             Coordinates (Angstroms)
 Number     Number       Type             X           Y           Z
 ---------------------------------------------------------------------
      1          6           0        2.366026   -2.446894   -0.879287
      2          6           0        1.539183   -1.552783   -1.567341
      3          6           0        1.608607   -0.180263   -1.310601
      4          6           0        2.520417    0.265599   -0.355039
      5          6           0        3.357571   -0.600183    0.347020
      6          6           0        3.270986   -1.968583    0.074016
      7          1           0        2.305430   -3.511501   -1.085046
      8          1           0        0.835438   -1.921407   -2.308222
      9          1           0        0.980271    0.534025   -1.828680
     10          1           0        4.049181   -0.202809    1.079951
     11          1           0        3.914358   -2.660645    0.609897
     12          7           0        2.602997    1.716444   -0.074632
     13          8           0        3.414677    2.083996    0.771961
     14          8           0        1.854481    2.458593   -0.706751
     15          6           0       -4.568890    0.432407   -0.978296
     16          6           0       -4.348653   -0.844745   -0.452085
     17          6           0       -3.209570   -1.110402    0.313725
     18          6           0       -2.307452   -0.070845    0.534623
     19          6           0       -2.498868    1.212063    0.023940
     20          6           0       -3.644924    1.454933   -0.739025
     21          1           0       -5.456466    0.629925   -1.572090
     22          1           0       -5.064510   -1.640774   -0.636288
     23          1           0       -3.014351   -2.089911    0.733095
     24          1           0       -1.767281    1.985323    0.224611
     25          1           0       -3.813373    2.447752   -1.146430
     26          7           0       -1.097866   -0.340024    1.343846
     27          8           0       -0.318283    0.592934    1.524066
     28          8           0       -0.952277   -1.478865    1.782572
 ---------------------------------------------------------------------

 SCF Done:  E(RHF) =  -868.338791170     A.U. after   16 cycles
 E2 =    -0.2602065538D+01 EUMP2 =    -0.87094085670806D+03

 The electronic state is 1-A.
 Alpha  occ. eigenvalues --  -20.60900 -20.60888 -20.59852 -20.59811 -15.85924
 Alpha  occ. eigenvalues --  -15.84883 -11.31275 -11.30177 -11.27886 -11.27746
 Alpha  occ. eigenvalues --  -11.27592 -11.26890 -11.26833 -11.26800 -11.26728
 Alpha  occ. eigenvalues --  -11.26565 -11.25909 -11.25789  -1.59956  -1.58872
 Alpha  occ. eigenvalues --   -1.39513  -1.38447  -1.19451  -1.18360  -1.08853
 Alpha  occ. eigenvalues --   -1.07771  -1.04837  -1.03816  -0.95686  -0.94633
 Alpha  occ. eigenvalues --   -0.86234  -0.85217  -0.82515  -0.81506  -0.77558
 Alpha  occ. eigenvalues --   -0.76542  -0.72196  -0.71324  -0.71145  -0.70541
 Alpha  occ. eigenvalues --   -0.70052  -0.69548  -0.65094  -0.64827  -0.64066
 Alpha  occ. eigenvalues --   -0.63871  -0.62160  -0.61199  -0.55343  -0.54350
 Alpha  occ. eigenvalues --   -0.53198  -0.52911  -0.52077  -0.51951  -0.48915
 Alpha  occ. eigenvalues --   -0.48895  -0.47888  -0.47873  -0.44968  -0.43864
 Alpha  occ. eigenvalues --   -0.37457  -0.36454  -0.36227  -0.35403
 Alpha virt. eigenvalues --    0.04886   0.06107   0.11160   0.12277   0.16428
 Alpha virt. eigenvalues --    0.17559   0.21388   0.22185   0.27294   0.27964
 Alpha virt. eigenvalues --    0.28310   0.29089   0.30902   0.31557   0.32584

 Mulliken charges:
               1
     1  C   -0.166627
     2  C   -0.220078
     3  C   -0.177088
     4  C    0.177909
     5  C   -0.165683
     6  C   -0.215086
     7  H    0.221690
     8  H    0.216888
     9  H    0.267737
    10  H    0.274421
    11  H    0.221106
    12  N    0.493424
    13  O   -0.460514
    14  O   -0.469726
    15  C   -0.171220
    16  C   -0.219483
    17  C   -0.172947
    18  C    0.155268
    19  C   -0.174944
    20  C   -0.219747
    21  H    0.225864
    22  H    0.222536
    23  H    0.273592
    24  H    0.287004
    25  H    0.226618
    26  N    0.489641
    27  O   -0.458511
    28  O   -0.462045
 Sum of Mulliken charges =  -0.00000

 Dipole moment (field-independent basis, Debye):
    X=             -4.5329    Y=             -4.0362    Z=             -3.5833  Tot=              7.0483
 Quadrupole moment (field-independent basis, Debye-Ang):
   XX=            -84.5220   YY=           -103.8721   ZZ=           -106.3652
   XY=            -14.4437   XZ=              5.1773   YZ=              0.9112

 Normal termination of Gaussian 16 at Thu May  6 09:48:09 2021.
