 Gaussian 16, Revision A.03,
 Gaussian 16:  EM64L-G16RevA.03 25-Dec-2016

 -------------
 #p 6-31g* mp2
 -------------

 ------------------------------------------------------
 Input file generated by CHIRIPA (05-May-2021 14:51:14)
 ------------------------------------------------------
 Symbolic Z-matrix:
 Charge =  0 Multiplicity = 1

                         Standard orientation:
 ---------------------------------------------------------------------
 Center     Atomic      Atomic             Coordinates (Angstroms)
 Number     Number       Type             X           Y           Z
 ---------------------------------------------------------------------
      1          6           0       -3.664112    0.553123   -0.240403
      2          6           0       -3.375365    1.917560    0.386431
      3          6           0       -4.271700    3.024822   -0.168861
      4          1           0       -3.532928    0.621671   -1.328997
      5          1           0       -4.717959    0.293944   -0.068276
      6          1           0       -2.322025    2.173462    0.214371
      7          1           0       -3.507065    1.845708    1.473679
      8          1           0       -5.326209    2.795917    0.016114
      9          1           0       -4.134435    3.125534   -1.250349
     10          1           0       -4.048330    3.991615    0.292959
     11          6           0       -2.776039   -0.564061    0.304531
     12          6           0       -3.064787   -1.928499   -0.322303
     13          6           0       -2.168452   -3.035760    0.232989
     14          1           0       -1.722193   -0.304883    0.132403
     15          1           0       -2.907223   -0.632609    1.393125
     16          1           0       -2.933086   -1.856646   -1.409551
     17          1           0       -4.118127   -2.184401   -0.150243
     18          1           0       -2.305717   -3.136472    1.314477
     19          1           0       -1.113943   -2.806855    0.048014
     20          1           0       -2.391821   -4.002553   -0.228831
     21          6           0        3.738451    0.546051    0.117906
     22          6           0        3.254097    1.958552   -0.211075
     23          6           0        4.302225    3.029030    0.094377
     24          1           0        4.014786    0.498143    1.180115
     25          1           0        4.653923    0.337614   -0.452936
     26          1           0        2.339040    2.163752    0.359170
     27          1           0        2.978703    2.003050   -1.272580
     28          1           0        5.213916    2.852036   -0.485358
     29          1           0        4.570620    3.013651    1.155663
     30          1           0        3.935098    4.031137   -0.148232
     31          6           0        2.701701   -0.535113   -0.182033
     32          6           0        3.186055   -1.947613    0.146947
     33          6           0        2.137927   -3.018091   -0.158504
     34          1           0        1.786229   -0.326676    0.388808
     35          1           0        2.425366   -0.487204   -1.244243
     36          1           0        3.461449   -1.992112    1.208452
     37          1           0        4.101112   -2.152813   -0.423297
     38          1           0        1.869533   -3.002712   -1.219790
     39          1           0        1.226236   -2.841097    0.421231
     40          1           0        2.505053   -4.020199    0.084104
 ---------------------------------------------------------------------

 SCF Done:  E(RHF) =  -470.733322075     A.U. after   11 cycles
 E2 =    -0.1582601239D+01 EUMP2 =    -0.47231592331406D+03

 The electronic state is 1-A.
 Alpha  occ. eigenvalues --  -11.21629 -11.21624 -11.21594 -11.21565 -11.21441
 Alpha  occ. eigenvalues --  -11.21391 -11.21380 -11.21332 -11.21090 -11.21077
 Alpha  occ. eigenvalues --  -11.21064 -11.20990  -1.08461  -1.08410  -1.03560
 Alpha  occ. eigenvalues --   -1.03499  -0.96022  -0.95938  -0.87056  -0.86939
 Alpha  occ. eigenvalues --   -0.79659  -0.79532  -0.78289  -0.78212  -0.65106
 Alpha  occ. eigenvalues --   -0.65026  -0.61011  -0.60856  -0.59378  -0.59315
 Alpha  occ. eigenvalues --   -0.57699  -0.57506  -0.55407  -0.55145  -0.52703
 Alpha  occ. eigenvalues --   -0.52646  -0.52570  -0.52246  -0.50073  -0.49766
 Alpha  occ. eigenvalues --   -0.48065  -0.47763  -0.46731  -0.46505  -0.45912
 Alpha  occ. eigenvalues --   -0.45771  -0.45735  -0.45533  -0.43811  -0.43761
 Alpha virt. eigenvalues --    0.21506   0.23198   0.23484   0.24855   0.25551
 Alpha virt. eigenvalues --    0.26606   0.26935   0.27178   0.28530   0.29075
 Alpha virt. eigenvalues --    0.30517   0.31668   0.31758   0.31871   0.32035

 Mulliken charges:
               1
     1  C   -0.298193
     2  C   -0.299712
     3  C   -0.475682
     4  H    0.149766
     5  H    0.149543
     6  H    0.151985
     7  H    0.151745
     8  H    0.155162
     9  H    0.155236
    10  H    0.160183
    11  C   -0.299093
    12  C   -0.299047
    13  C   -0.483006
    14  H    0.149871
    15  H    0.149287
    16  H    0.151918
    17  H    0.151697
    18  H    0.154313
    19  H    0.162897
    20  H    0.160404
    21  C   -0.298230
    22  C   -0.299731
    23  C   -0.475722
    24  H    0.149909
    25  H    0.149719
    26  H    0.151902
    27  H    0.151779
    28  H    0.155237
    29  H    0.155318
    30  H    0.160320
    31  C   -0.299168
    32  C   -0.299392
    33  C   -0.481515
    34  H    0.149633
    35  H    0.149364
    36  H    0.152180
    37  H    0.152044
    38  H    0.154931
    39  H    0.161197
    40  H    0.160949
 Sum of Mulliken charges =  -0.00000

 Dipole moment (field-independent basis, Debye):
    X=              0.0293    Y=             -0.0104    Z=             -0.0010  Tot=              0.0311
 Quadrupole moment (field-independent basis, Debye-Ang):
   XX=            -84.9455   YY=            -86.3306   ZZ=            -83.4488
   XY=             -0.0083   XZ=             -1.1106   YZ=              0.0740

 Normal termination of Gaussian 16 at Thu May  6 05:35:55 2021.
