 Gaussian 16, Revision A.03,
 Gaussian 16:  EM64L-G16RevA.03 25-Dec-2016

 -------------
 #p 6-31g* mp2
 -------------

 ------------------------------------------------------
 Input file generated by CHIRIPA (05-May-2021 14:51:10)
 ------------------------------------------------------
 Symbolic Z-matrix:
 Charge =  0 Multiplicity = 1

                         Standard orientation:
 ---------------------------------------------------------------------
 Center     Atomic      Atomic             Coordinates (Angstroms)
 Number     Number       Type             X           Y           Z
 ---------------------------------------------------------------------
      1          6           0       -2.887487   -0.799949    0.477597
      2          6           0       -1.797913   -1.631393   -0.200277
      3          6           0       -1.360653   -2.831146    0.640670
      4          1           0       -2.520688   -0.451760    1.452875
      5          1           0       -3.755597   -1.442062    0.681239
      6          1           0       -0.932648   -0.987578   -0.403831
      7          1           0       -2.167279   -1.977484   -1.174138
      8          1           0       -2.208590   -3.496515    0.832727
      9          1           0       -0.966944   -2.500985    1.607411
     10          1           0       -0.581197   -3.411561    0.137255
     11          6           0       -3.335107    0.402989   -0.350839
     12          6           0       -4.424682    1.234433    0.327034
     13          6           0       -4.861941    2.434186   -0.513913
     14          1           0       -2.466997    1.045102   -0.554482
     15          1           0       -3.701906    0.054800   -1.326117
     16          1           0       -4.055316    1.580524    1.300896
     17          1           0       -5.289946    0.590618    0.530589
     18          1           0       -5.255650    2.104025   -1.480654
     19          1           0       -4.014004    3.099555   -0.705970
     20          1           0       -5.641398    3.014601   -0.010498
     21          6           0        3.317504   -0.528664   -0.173703
     22          6           0        2.132857   -1.494184   -0.222367
     23          6           0        2.561464   -2.945089   -0.443652
     24          1           0        3.884227   -0.606096   -1.111666
     25          1           0        4.000093   -0.837015    0.630280
     26          1           0        1.452010   -1.183293   -1.025118
     27          1           0        1.568779   -1.414306    0.715743
     28          1           0        3.222958   -3.278590    0.362451
     29          1           0        3.105525   -3.046264   -1.388301
     30          1           0        1.698985   -3.618141   -0.475116
     31          6           0        2.905090    0.925624    0.046945
     32          6           0        4.089737    1.891144    0.095610
     33          6           0        3.661131    3.342049    0.316895
     34          1           0        2.222501    1.233975   -0.757037
     35          1           0        2.338367    1.003055    0.984908
     36          1           0        4.653815    1.811267   -0.842500
     37          1           0        4.770584    1.580253    0.898361
     38          1           0        3.117069    3.443223    1.261544
     39          1           0        2.999636    3.675550   -0.489209
     40          1           0        4.523610    4.015101    0.348359
 ---------------------------------------------------------------------

 SCF Done:  E(RHF) =  -470.732270359     A.U. after   11 cycles
 E2 =    -0.1584043180D+01 EUMP2 =    -0.47231631353960D+03

 The electronic state is 1-A.
 Alpha  occ. eigenvalues --  -11.21634 -11.21589 -11.21577 -11.21486 -11.21439
 Alpha  occ. eigenvalues --  -11.21373 -11.21363 -11.21301 -11.21103 -11.21074
 Alpha  occ. eigenvalues --  -11.21053 -11.21010  -1.08474  -1.08373  -1.03610
 Alpha  occ. eigenvalues --   -1.03433  -0.96059  -0.95892  -0.87051  -0.86935
 Alpha  occ. eigenvalues --   -0.79696  -0.79495  -0.78335  -0.78141  -0.65091
 Alpha  occ. eigenvalues --   -0.65021  -0.60983  -0.60902  -0.59759  -0.59054
 Alpha  occ. eigenvalues --   -0.57850  -0.57233  -0.55310  -0.55198  -0.52933
 Alpha  occ. eigenvalues --   -0.52569  -0.52447  -0.52151  -0.49985  -0.49852
 Alpha  occ. eigenvalues --   -0.48186  -0.47690  -0.46779  -0.46484  -0.45963
 Alpha  occ. eigenvalues --   -0.45748  -0.45718  -0.45384  -0.43897  -0.43630
 Alpha virt. eigenvalues --    0.21214   0.23193   0.23292   0.25158   0.25541
 Alpha virt. eigenvalues --    0.26234   0.26838   0.27398   0.28263   0.29219
 Alpha virt. eigenvalues --    0.29738   0.30885   0.31351   0.31912   0.32729

 Mulliken charges:
               1
     1  C   -0.297801
     2  C   -0.305161
     3  C   -0.479389
     4  H    0.149096
     5  H    0.149128
     6  H    0.159165
     7  H    0.150761
     8  H    0.154695
     9  H    0.154241
    10  H    0.164484
    11  C   -0.298270
    12  C   -0.299562
    13  C   -0.475698
    14  H    0.149471
    15  H    0.149427
    16  H    0.151874
    17  H    0.151876
    18  H    0.155076
    19  H    0.155160
    20  H    0.160174
    21  C   -0.297924
    22  C   -0.303710
    23  C   -0.479518
    24  H    0.149622
    25  H    0.149521
    26  H    0.154949
    27  H    0.155100
    28  H    0.155392
    29  H    0.155134
    30  H    0.163401
    31  C   -0.298504
    32  C   -0.299557
    33  C   -0.475747
    34  H    0.149057
    35  H    0.149139
    36  H    0.152145
    37  H    0.152100
    38  H    0.155059
    39  H    0.155149
    40  H    0.160444
 Sum of Mulliken charges =  -0.00000

 Dipole moment (field-independent basis, Debye):
    X=              0.0419    Y=             -0.0018    Z=             -0.0054  Tot=              0.0422
 Quadrupole moment (field-independent basis, Debye-Ang):
   XX=            -84.6015   YY=            -86.4929   ZZ=            -83.8203
   XY=              0.9110   XZ=              0.2323   YZ=              0.4100

 Normal termination of Gaussian 16 at Thu May  6 00:38:33 2021.
