 Gaussian 16, Revision A.03,
 Gaussian 16:  EM64L-G16RevA.03 25-Dec-2016

 -------------
 #p 6-31g* mp2
 -------------

 ------------------------------------------------------
 Input file generated by CHIRIPA (05-May-2021 14:53:18)
 ------------------------------------------------------
 Symbolic Z-matrix:
 Charge =  0 Multiplicity = 1

                         Standard orientation:
 ---------------------------------------------------------------------
 Center     Atomic      Atomic             Coordinates (Angstroms)
 Number     Number       Type             X           Y           Z
 ---------------------------------------------------------------------
      1          6           0        4.290606   -0.166667    0.004838
      2          6           0        4.618162    1.319776   -0.140696
      3          6           0        6.075037    1.639734    0.195362
      4          1           0        4.509563   -0.484878    1.033305
      5          1           0        4.954971   -0.747226   -0.650116
      6          1           0        3.952443    1.897462    0.513302
      7          1           0        4.398219    1.634530   -1.168885
      8          1           0        6.752637    1.088817   -0.464903
      9          1           0        6.304328    1.353242    1.226841
     10          1           0        6.287355    2.707692    0.084700
     11          6           0        2.837840   -0.502265   -0.327686
     12          6           0        2.510285   -1.988708   -0.182152
     13          6           0        1.053409   -2.308666   -0.518210
     14          1           0        2.173475    0.078294    0.327268
     15          1           0        2.618884   -0.184054   -1.356153
     16          1           0        2.730227   -2.303463    0.846036
     17          1           0        3.176003   -2.566394   -0.836150
     18          1           0        0.824118   -2.022174   -1.549689
     19          1           0        0.375810   -1.757749    0.142055
     20          1           0        0.841091   -3.376625   -0.407548
     21          6           0       -2.541807   -2.224453    0.483918
     22          6           0       -2.055410   -1.328578    1.441702
     23          6           0       -2.184423    0.050784    1.253921
     24          6           0       -2.808017    0.501616    0.091521
     25          6           0       -3.302883   -0.365762   -0.881133
     26          6           0       -3.162896   -1.741038   -0.672403
     27          1           0       -2.437324   -3.294387    0.637928
     28          1           0       -1.572622   -1.701155    2.340671
     29          1           0       -1.816923    0.766581    1.979176
     30          1           0       -3.779485    0.035667   -1.767205
     31          1           0       -3.541587   -2.434454   -1.417931
     32          7           0       -2.950406    1.959721   -0.118363
     33          8           0       -3.503731    2.331555   -1.150936
     34          8           0       -2.505989    2.703143    0.753679
 ---------------------------------------------------------------------

 SCF Done:  E(RHF) =  -669.534484304     A.U. after   15 cycles
 E2 =    -0.2092688167D+01 EUMP2 =    -0.67162717247123D+03

 The electronic state is 1-A.
 Alpha  occ. eigenvalues --  -20.60789 -20.60784 -15.85845 -11.31224 -11.27807
 Alpha  occ. eigenvalues --  -11.27800 -11.27523 -11.26800 -11.26786 -11.21834
 Alpha  occ. eigenvalues --  -11.21592 -11.21526 -11.21447 -11.21275 -11.21057
 Alpha  occ. eigenvalues --   -1.59865  -1.39418  -1.19409  -1.08800  -1.08544
 Alpha  occ. eigenvalues --   -1.04820  -1.03650  -0.96113  -0.95620  -0.87134
 Alpha  occ. eigenvalues --   -0.86206  -0.82458  -0.79721  -0.78347  -0.77504
 Alpha  occ. eigenvalues --   -0.72063  -0.71188  -0.70502  -0.65190  -0.65055
 Alpha  occ. eigenvalues --   -0.64812  -0.62161  -0.61068  -0.59490  -0.57731
 Alpha  occ. eigenvalues --   -0.55477  -0.55299  -0.53387  -0.52901  -0.52782
 Alpha  occ. eigenvalues --   -0.52322  -0.50013  -0.48823  -0.48817  -0.48011
 Alpha  occ. eigenvalues --   -0.46749  -0.45887  -0.45813  -0.44821  -0.43918
 Alpha  occ. eigenvalues --   -0.37293  -0.36378
 Alpha virt. eigenvalues --    0.05018   0.11186   0.16458   0.21166   0.22820
 Alpha virt. eigenvalues --    0.24254   0.26508   0.27184   0.27375   0.27666
 Alpha virt. eigenvalues --    0.28636   0.30480   0.31420   0.31907   0.32178

 Mulliken charges:
               1
     1  C   -0.298292
     2  C   -0.300103
     3  C   -0.475839
     4  H    0.148364
     5  H    0.149408
     6  H    0.153654
     7  H    0.153314
     8  H    0.154748
     9  H    0.154506
    10  H    0.161600
    11  C   -0.298085
    12  C   -0.299270
    13  C   -0.482032
    14  H    0.149300
    15  H    0.151530
    16  H    0.148614
    17  H    0.151860
    18  H    0.156099
    19  H    0.163470
    20  H    0.151278
    21  C   -0.163771
    22  C   -0.223719
    23  C   -0.170714
    24  C    0.159191
    25  C   -0.170399
    26  C   -0.218065
    27  H    0.226553
    28  H    0.224216
    29  H    0.275613
    30  H    0.275840
    31  H    0.223817
    32  N    0.488143
    33  O   -0.460319
    34  O   -0.460510
 Sum of Mulliken charges =  -0.00000

 Dipole moment (field-independent basis, Debye):
    X=              0.4185    Y=             -5.0789    Z=              0.7202  Tot=              5.1468
 Quadrupole moment (field-independent basis, Debye-Ang):
   XX=            -98.1158   YY=           -100.7927   ZZ=            -90.0600
   XY=             15.2526   XZ=             -0.2237   YZ=              0.7692

 Normal termination of Gaussian 16 at Thu May  6 09:09:03 2021.
