 Gaussian 16, Revision A.03,
 Gaussian 16:  EM64L-G16RevA.03 25-Dec-2016

 -------------
 #p 6-31g* mp2
 -------------

 ------------------------------------------------------
 Input file generated by CHIRIPA (05-May-2021 14:51:10)
 ------------------------------------------------------
 Symbolic Z-matrix:
 Charge =  0 Multiplicity = 1

                         Standard orientation:
 ---------------------------------------------------------------------
 Center     Atomic      Atomic             Coordinates (Angstroms)
 Number     Number       Type             X           Y           Z
 ---------------------------------------------------------------------
      1          6           0        2.411721   -0.094380   -0.408469
      2          6           0        2.709233   -1.334443    0.435163
      3          6           0        2.891018   -2.595149   -0.410631
      4          1           0        1.505485   -0.272290   -1.003472
      5          1           0        3.230895    0.058441   -1.124706
      6          1           0        1.890408   -1.484082    1.150530
      7          1           0        3.614759   -1.153488    1.028370
      8          1           0        3.720635   -2.470788   -1.114101
      9          1           0        1.986487   -2.803261   -0.991248
     10          1           0        3.102815   -3.469591    0.212549
     11          6           0        2.227448    1.173958    0.422849
     12          6           0        1.929936    2.414021   -0.420784
     13          6           0        1.748151    3.674728    0.425011
     14          1           0        1.408274    1.021138    1.139085
     15          1           0        3.133684    1.351869    1.017852
     16          1           0        1.024410    2.233066   -1.013991
     17          1           0        2.748761    2.563660   -1.136151
     18          1           0        2.652682    3.882839    1.005627
     19          1           0        0.918534    3.550367    1.128481
     20          1           0        1.536354    4.549170   -0.198169
     21          6           0       -1.854156   -1.096779   -0.245036
     22          6           0       -2.035364   -2.407180    0.521774
     23          6           0       -1.097275   -3.511855    0.034458
     24          1           0       -2.024460   -1.278879   -1.314981
     25          1           0       -0.811677   -0.763662   -0.146720
     26          1           0       -3.077530   -2.737007    0.423189
     27          1           0       -1.864797   -2.221899    1.590041
     28          1           0       -0.051809   -3.207522    0.148410
     29          1           0       -1.271433   -3.725556   -1.025071
     30          1           0       -1.243690   -4.439674    0.596217
     31          6           0       -2.785013    0.017201    0.230656
     32          6           0       -2.603805    1.327602   -0.536153
     33          6           0       -3.541894    2.432276   -0.048837
     34          1           0       -3.827492   -0.315917    0.132341
     35          1           0       -2.614710    0.199301    1.300601
     36          1           0       -2.774373    1.142321   -1.604420
     37          1           0       -1.561639    1.657428   -0.437570
     38          1           0       -3.367736    2.645978    1.010692
     39          1           0       -4.587360    2.127944   -0.162789
     40          1           0       -3.395480    3.360096   -0.610596
 ---------------------------------------------------------------------

 SCF Done:  E(RHF) =  -470.732618583     A.U. after   11 cycles
 E2 =    -0.1585328686D+01 EUMP2 =    -0.47231794726906D+03

 The electronic state is 1-A.
 Alpha  occ. eigenvalues --  -11.21663 -11.21655 -11.21639 -11.21634 -11.21465
 Alpha  occ. eigenvalues --  -11.21447 -11.21406 -11.21379 -11.21112 -11.21104
 Alpha  occ. eigenvalues --  -11.21058 -11.21050  -1.08535  -1.08434  -1.03630
 Alpha  occ. eigenvalues --   -1.03518  -0.96089  -0.95951  -0.87108  -0.86963
 Alpha  occ. eigenvalues --   -0.79707  -0.79568  -0.78385  -0.78220  -0.65495
 Alpha  occ. eigenvalues --   -0.64769  -0.61359  -0.60642  -0.59404  -0.59344
 Alpha  occ. eigenvalues --   -0.57710  -0.57585  -0.55683  -0.54968  -0.52728
 Alpha  occ. eigenvalues --   -0.52683  -0.52550  -0.52317  -0.50196  -0.49664
 Alpha  occ. eigenvalues --   -0.48151  -0.47784  -0.46820  -0.46462  -0.46284
 Alpha  occ. eigenvalues --   -0.45817  -0.45768  -0.45290  -0.43840  -0.43808
 Alpha virt. eigenvalues --    0.18745   0.21464   0.23758   0.25542   0.25725
 Alpha virt. eigenvalues --    0.26299   0.26637   0.27786   0.29160   0.29895
 Alpha virt. eigenvalues --    0.30724   0.31527   0.31637   0.31760   0.32349

 Mulliken charges:
               1
     1  C   -0.302500
     2  C   -0.302731
     3  C   -0.479567
     4  H    0.153439
     5  H    0.150504
     6  H    0.152010
     7  H    0.152794
     8  H    0.155904
     9  H    0.158782
    10  H    0.160526
    11  C   -0.299344
    12  C   -0.303639
    13  C   -0.475937
    14  H    0.149017
    15  H    0.150156
    16  H    0.155490
    17  H    0.152441
    18  H    0.155362
    19  H    0.155121
    20  H    0.160581
    21  C   -0.306820
    22  C   -0.298777
    23  C   -0.484588
    24  H    0.149604
    25  H    0.156859
    26  H    0.152193
    27  H    0.151483
    28  H    0.165596
    29  H    0.154641
    30  H    0.160518
    31  C   -0.297516
    32  C   -0.305344
    33  C   -0.475415
    34  H    0.150100
    35  H    0.149357
    36  H    0.152141
    37  H    0.156353
    38  H    0.155126
    39  H    0.155432
    40  H    0.160649
 Sum of Mulliken charges =  -0.00000

 Dipole moment (field-independent basis, Debye):
    X=              0.0114    Y=             -0.0021    Z=             -0.0178  Tot=              0.0213
 Quadrupole moment (field-independent basis, Debye-Ang):
   XX=            -83.6290   YY=            -86.3964   ZZ=            -84.5981
   XY=              1.0723   XZ=              0.6187   YZ=             -0.4973

 Normal termination of Gaussian 16 at Wed May  5 18:13:21 2021.
