 Gaussian 16, Revision A.03,
 Gaussian 16:  EM64L-G16RevA.03 25-Dec-2016

 -------------
 #p 6-31g* mp2
 -------------

 ------------------------------------------------------
 Input file generated by CHIRIPA (05-May-2021 14:53:16)
 ------------------------------------------------------
 Symbolic Z-matrix:
 Charge =  0 Multiplicity = 1

                         Standard orientation:
 ---------------------------------------------------------------------
 Center     Atomic      Atomic             Coordinates (Angstroms)
 Number     Number       Type             X           Y           Z
 ---------------------------------------------------------------------
      1          6           0        2.839140   -0.201359   -0.324065
      2          6           0        3.734627   -1.361516    0.111968
      3          6           0        3.720956   -2.524299   -0.880777
      4          1           0        1.810680   -0.567055   -0.448486
      5          1           0        3.166038    0.154110   -1.311067
      6          1           0        3.407007   -1.713787    1.098470
      7          1           0        4.761038   -0.992975    0.235551
      8          1           0        4.068321   -2.194453   -1.865227
      9          1           0        2.706597   -2.919361   -0.997405
     10          1           0        4.367760   -3.342672   -0.549460
     11          6           0        2.842263    0.968654    0.658171
     12          6           0        1.946777    2.128811    0.222138
     13          6           0        1.960447    3.291594    1.214883
     14          1           0        2.515365    0.613185    1.645173
     15          1           0        3.870724    1.334350    0.782592
     16          1           0        0.920365    1.760270    0.098554
     17          1           0        2.274397    2.481082   -0.764364
     18          1           0        2.974807    3.686656    1.331511
     19          1           0        1.613082    2.961748    2.199332
     20          1           0        1.313643    4.109967    0.883566
     21          6           0       -2.004389   -2.622930    0.829934
     22          6           0       -3.081846   -1.810325    1.197735
     23          6           0       -3.211011   -0.521406    0.671852
     24          6           0       -2.240074   -0.075126   -0.223362
     25          6           0       -1.155172   -0.860853   -0.609248
     26          6           0       -1.046180   -2.146441   -0.070796
     27          1           0       -1.911886   -3.622900    1.243333
     28          1           0       -3.827507   -2.177740    1.897049
     29          1           0       -4.035078    0.128769    0.939440
     30          1           0       -0.427695   -0.466860   -1.308509
     31          1           0       -0.208357   -2.775312   -0.358234
     32          7           0       -2.366137    1.287632   -0.786745
     33          8           0       -1.497373    1.657390   -1.573615
     34          8           0       -3.331322    1.960201   -0.430784
 ---------------------------------------------------------------------

 SCF Done:  E(RHF) =  -669.535328618     A.U. after   15 cycles
 E2 =    -0.2093848624D+01 EUMP2 =    -0.67162917724140D+03

 The electronic state is 1-A.
 Alpha  occ. eigenvalues --  -20.60915 -20.60901 -15.85930 -11.31272 -11.27844
 Alpha  occ. eigenvalues --  -11.27809 -11.27580 -11.26855 -11.26844 -11.21989
 Alpha  occ. eigenvalues --  -11.21672 -11.21663 -11.21318 -11.21107 -11.20610
 Alpha  occ. eigenvalues --   -1.59966  -1.39521  -1.19450  -1.08847  -1.08520
 Alpha  occ. eigenvalues --   -1.04850  -1.03545  -0.96044  -0.95685  -0.87061
 Alpha  occ. eigenvalues --   -0.86246  -0.82523  -0.79658  -0.78311  -0.77524
 Alpha  occ. eigenvalues --   -0.72153  -0.71281  -0.70560  -0.65223  -0.65080
 Alpha  occ. eigenvalues --   -0.64845  -0.62185  -0.60947  -0.59443  -0.57605
 Alpha  occ. eigenvalues --   -0.55403  -0.55326  -0.53179  -0.52956  -0.52695
 Alpha  occ. eigenvalues --   -0.52443  -0.50022  -0.48934  -0.48914  -0.47949
 Alpha  occ. eigenvalues --   -0.46733  -0.45894  -0.45707  -0.44731  -0.43803
 Alpha  occ. eigenvalues --   -0.37426  -0.36414
 Alpha virt. eigenvalues --    0.04908   0.11115   0.16291   0.19357   0.23055
 Alpha virt. eigenvalues --    0.23774   0.25356   0.26541   0.27065   0.28438
 Alpha virt. eigenvalues --    0.29279   0.30555   0.31544   0.32070   0.32454

 Mulliken charges:
               1
     1  C   -0.301352
     2  C   -0.299747
     3  C   -0.475223
     4  H    0.141235
     5  H    0.152840
     6  H    0.150800
     7  H    0.155438
     8  H    0.158949
     9  H    0.144164
    10  H    0.162140
    11  C   -0.298281
    12  C   -0.303077
    13  C   -0.476895
    14  H    0.147613
    15  H    0.149692
    16  H    0.159160
    17  H    0.154993
    18  H    0.152392
    19  H    0.151929
    20  H    0.167323
    21  C   -0.171123
    22  C   -0.218372
    23  C   -0.171001
    24  C    0.157840
    25  C   -0.173353
    26  C   -0.221264
    27  H    0.226316
    28  H    0.223864
    29  H    0.275852
    30  H    0.279464
    31  H    0.226989
    32  N    0.487771
    33  O   -0.458028
    34  O   -0.459045
 Sum of Mulliken charges =  -0.00000

 Dipole moment (field-independent basis, Debye):
    X=              0.3779    Y=             -4.6700    Z=              1.9487  Tot=              5.0744
 Quadrupole moment (field-independent basis, Debye-Ang):
   XX=            -92.4985   YY=            -95.0781   ZZ=            -95.0657
   XY=             10.6557   XZ=             -7.6783   YZ=              0.2857

 Normal termination of Gaussian 16 at Thu May  6 13:55:40 2021.
