 Gaussian 16, Revision A.03,
 Gaussian 16:  EM64L-G16RevA.03 25-Dec-2016

 -------------
 #p 6-31g* mp2
 -------------

 ------------------------------------------------------
 Input file generated by CHIRIPA (05-May-2021 14:55:21)
 ------------------------------------------------------
 Symbolic Z-matrix:
 Charge =  0 Multiplicity = 1

                         Standard orientation:
 ---------------------------------------------------------------------
 Center     Atomic      Atomic             Coordinates (Angstroms)
 Number     Number       Type             X           Y           Z
 ---------------------------------------------------------------------
      1          6           0        2.336222    2.270307    0.074926
      2          6           0        3.213182    1.764399   -0.890226
      3          6           0        3.537211    0.404591   -0.912019
      4          6           0        2.963471   -0.424550    0.050601
      5          6           0        2.086421    0.049424    1.024984
      6          6           0        1.776627    1.412717    1.027771
      7          1           0        2.090038    3.327992    0.084473
      8          1           0        3.649269    2.428075   -1.631446
      9          1           0        4.213201   -0.013603   -1.647934
     10          1           0        1.667497   -0.636816    1.750929
     11          1           0        1.095262    1.802830    1.778503
     12          7           0        3.298971   -1.865963    0.037590
     13          8           0        2.780175   -2.575622    0.896584
     14          8           0        4.074379   -2.258789   -0.831356
     15          6           0       -3.119894    0.597806    0.235543
     16          6           0       -2.881055    1.987780   -0.355143
     17          6           0       -1.672115    2.692288    0.261240
     18          1           0       -3.260031    0.687004    1.321523
     19          1           0       -2.220914   -0.016030    0.085764
     20          1           0       -3.780723    2.598377   -0.205522
     21          1           0       -2.741661    1.895284   -1.439869
     22          1           0       -0.761274    2.106755    0.099618
     23          1           0       -1.806240    2.813842    1.340978
     24          1           0       -1.519737    3.684207   -0.175495
     25          6           0       -4.325039   -0.119117   -0.370571
     26          6           0       -4.563877   -1.509092    0.220116
     27          6           0       -5.772818   -2.213598   -0.396267
     28          1           0       -5.224019    0.494720   -0.220792
     29          1           0       -4.184902   -0.208316   -1.456550
     30          1           0       -4.703271   -1.416595    1.304841
     31          1           0       -3.664210   -2.119687    0.070494
     32          1           0       -5.638693   -2.335153   -1.476006
     33          1           0       -6.683659   -1.628066   -0.234646
     34          1           0       -5.925195   -3.205518    0.040467
 ---------------------------------------------------------------------

 SCF Done:  E(RHF) =  -669.534927420     A.U. after   15 cycles
 E2 =    -0.2092195824D+01 EUMP2 =    -0.67162712324395D+03

 The electronic state is 1-A.
 Alpha  occ. eigenvalues --  -20.60791 -20.60786 -15.85844 -11.31220 -11.27783
 Alpha  occ. eigenvalues --  -11.27770 -11.27506 -11.26798 -11.26751 -11.22089
 Alpha  occ. eigenvalues --  -11.21756 -11.21737 -11.21723 -11.21598 -11.21140
 Alpha  occ. eigenvalues --   -1.59866  -1.39419  -1.19395  -1.08797  -1.08736
 Alpha  occ. eigenvalues --   -1.04800  -1.03866  -0.96347  -0.95613  -0.87386
 Alpha  occ. eigenvalues --   -0.86181  -0.82443  -0.79955  -0.78540  -0.77490
 Alpha  occ. eigenvalues --   -0.72062  -0.71190  -0.70481  -0.65381  -0.65039
 Alpha  occ. eigenvalues --   -0.64798  -0.62153  -0.61257  -0.59723  -0.57944
 Alpha  occ. eigenvalues --   -0.55664  -0.55276  -0.53291  -0.53023  -0.52942
 Alpha  occ. eigenvalues --   -0.52570  -0.50265  -0.48825  -0.48817  -0.48246
 Alpha  occ. eigenvalues --   -0.46961  -0.46089  -0.45985  -0.44823  -0.44118
 Alpha  occ. eigenvalues --   -0.37326  -0.36361
 Alpha virt. eigenvalues --    0.05028   0.11157   0.16507   0.21009   0.22629
 Alpha virt. eigenvalues --    0.24083   0.26142   0.26526   0.27207   0.28052
 Alpha virt. eigenvalues --    0.28842   0.30296   0.31466   0.31768   0.31851

 Mulliken charges:
               1
     1  C   -0.170353
     2  C   -0.218576
     3  C   -0.171075
     4  C    0.158474
     5  C   -0.173324
     6  C   -0.220211
     7  H    0.227467
     8  H    0.223654
     9  H    0.275681
    10  H    0.276049
    11  H    0.228947
    12  N    0.488059
    13  O   -0.460301
    14  O   -0.460372
    15  C   -0.299513
    16  C   -0.297826
    17  C   -0.487923
    18  H    0.148189
    19  H    0.151031
    20  H    0.153032
    21  H    0.153885
    22  H    0.162660
    23  H    0.150758
    24  H    0.157606
    25  C   -0.298539
    26  C   -0.300500
    27  C   -0.475976
    28  H    0.149569
    29  H    0.150801
    30  H    0.151578
    31  H    0.154673
    32  H    0.155874
    33  H    0.154679
    34  H    0.161824
 Sum of Mulliken charges =  -0.00000

 Dipole moment (field-independent basis, Debye):
    X=             -1.1975    Y=              5.0179    Z=              0.0088  Tot=              5.1589
 Quadrupole moment (field-independent basis, Debye-Ang):
   XX=           -100.6576   YY=           -100.0268   ZZ=            -91.5399
   XY=             15.7324   XZ=             -3.2668   YZ=             -0.4255

 Normal termination of Gaussian 16 at Wed May  5 18:58:08 2021.
