 Gaussian 16, Revision A.03,
 Gaussian 16:  EM64L-G16RevA.03 25-Dec-2016

 -------------
 #p 6-31g* mp2
 -------------

 ------------------------------------------------------
 Input file generated by CHIRIPA (05-May-2021 14:55:25)
 ------------------------------------------------------
 Symbolic Z-matrix:
 Charge =  0 Multiplicity = 1

                         Standard orientation:
 ---------------------------------------------------------------------
 Center     Atomic      Atomic             Coordinates (Angstroms)
 Number     Number       Type             X           Y           Z
 ---------------------------------------------------------------------
      1          6           0       -4.035859    2.139656    0.697418
      2          6           0       -4.775506    1.251545   -0.090429
      3          6           0       -4.180925    0.096603   -0.607275
      4          6           0       -2.838583   -0.140163   -0.315125
      5          6           0       -2.075192    0.725492    0.466646
      6          6           0       -2.690435    1.874263    0.972954
      7          1           0       -4.505769    3.034446    1.094823
      8          1           0       -5.820553    1.455096   -0.306045
      9          1           0       -4.730185   -0.607878   -1.220005
     10          1           0       -1.035252    0.495634    0.664405
     11          1           0       -2.113568    2.562207    1.584512
     12          7           0       -2.198190   -1.359582   -0.856710
     13          8           0       -1.014054   -1.545422   -0.584824
     14          8           0       -2.892512   -2.106433   -1.542835
     15          6           0        3.419119   -0.735755    0.457997
     16          6           0        2.432544   -0.617508    1.620182
     17          6           0        1.741587   -1.941940    1.946144
     18          1           0        2.886869   -1.101731   -0.430663
     19          1           0        4.175318   -1.494128    0.703817
     20          1           0        1.679233    0.141405    1.372820
     21          1           0        2.967165   -0.251588    2.506127
     22          1           0        2.478724   -2.704212    2.218486
     23          1           0        1.183473   -2.308986    1.078740
     24          1           0        1.040713   -1.834570    2.779875
     25          6           0        4.117849    0.580076    0.120219
     26          6           0        5.104423    0.461829   -1.041965
     27          6           0        5.795381    1.786262   -1.367926
     28          1           0        3.361649    1.338449   -0.125600
     29          1           0        4.650098    0.946052    1.008880
     30          1           0        4.569802    0.095910   -1.927911
     31          1           0        5.857736   -0.297084   -0.794604
     32          1           0        6.353494    2.153307   -0.500524
     33          1           0        5.058244    2.548534   -1.640270
     34          1           0        6.496254    1.678892   -2.201659
 ---------------------------------------------------------------------

 SCF Done:  E(RHF) =  -669.536102293     A.U. after   15 cycles
 E2 =    -0.2091478267D+01 EUMP2 =    -0.67162758055956D+03

 The electronic state is 1-A.
 Alpha  occ. eigenvalues --  -20.60918 -20.60907 -15.85959 -11.31265 -11.27830
 Alpha  occ. eigenvalues --  -11.27823 -11.27567 -11.26836 -11.26824 -11.21294
 Alpha  occ. eigenvalues --  -11.21216 -11.21067 -11.20859 -11.20853 -11.20202
 Alpha  occ. eigenvalues --   -1.59980  -1.39537  -1.19434  -1.08841  -1.08022
 Alpha  occ. eigenvalues --   -1.04829  -1.03098  -0.95693  -0.95507  -0.86527
 Alpha  occ. eigenvalues --   -0.86230  -0.82522  -0.79182  -0.77841  -0.77575
 Alpha  occ. eigenvalues --   -0.72194  -0.71295  -0.70545  -0.65096  -0.64846
 Alpha  occ. eigenvalues --   -0.64630  -0.62183  -0.60470  -0.58918  -0.57147
 Alpha  occ. eigenvalues --   -0.55336  -0.54765  -0.53162  -0.52921  -0.52226
 Alpha  occ. eigenvalues --   -0.51936  -0.49438  -0.48939  -0.48909  -0.47488
 Alpha  occ. eigenvalues --   -0.46216  -0.45392  -0.45284  -0.44924  -0.43363
 Alpha  occ. eigenvalues --   -0.37414  -0.36430
 Alpha virt. eigenvalues --    0.04947   0.11223   0.16437   0.20087   0.22954
 Alpha virt. eigenvalues --    0.24052   0.26187   0.27439   0.27852   0.28427
 Alpha virt. eigenvalues --    0.29056   0.30569   0.31495   0.32126   0.32475

 Mulliken charges:
               1
     1  C   -0.170334
     2  C   -0.218910
     3  C   -0.170127
     4  C    0.156891
     5  C   -0.175232
     6  C   -0.220433
     7  H    0.225943
     8  H    0.223710
     9  H    0.275731
    10  H    0.283220
    11  H    0.224204
    12  N    0.492565
    13  O   -0.466272
    14  O   -0.459076
    15  C   -0.300329
    16  C   -0.297472
    17  C   -0.485074
    18  H    0.159996
    19  H    0.149122
    20  H    0.141431
    21  H    0.147707
    22  H    0.151620
    23  H    0.184054
    24  H    0.152590
    25  C   -0.297353
    26  C   -0.299770
    27  C   -0.475377
    28  H    0.145732
    29  H    0.147232
    30  H    0.154321
    31  H    0.152050
    32  H    0.153935
    33  H    0.153698
    34  H    0.160003
 Sum of Mulliken charges =  -0.00000

 Dipole moment (field-independent basis, Debye):
    X=             -2.4016    Y=              4.1565    Z=              1.7706  Tot=              5.1165
 Quadrupole moment (field-independent basis, Debye-Ang):
   XX=            -78.4011   YY=            -96.8332   ZZ=            -95.7998
   XY=            -11.8671   XZ=             -2.1910   YZ=             -0.5869

 Normal termination of Gaussian 16 at Thu May  6 00:05:17 2021.
