 Gaussian 16, Revision A.03,
 Gaussian 16:  EM64L-G16RevA.03 25-Dec-2016

 -------------
 #p 6-31g* mp2
 -------------

 ------------------------------------------------------
 Input file generated by CHIRIPA (05-May-2021 14:51:14)
 ------------------------------------------------------
 Symbolic Z-matrix:
 Charge =  0 Multiplicity = 1

                         Standard orientation:
 ---------------------------------------------------------------------
 Center     Atomic      Atomic             Coordinates (Angstroms)
 Number     Number       Type             X           Y           Z
 ---------------------------------------------------------------------
      1          6           0       -3.569059    0.586125    0.287127
      2          6           0       -4.256217    0.760209   -1.067677
      3          6           0       -5.099362    2.033447   -1.143610
      4          1           0       -4.331103    0.570706    1.078327
      5          1           0       -2.932947    1.460458    0.482825
      6          1           0       -4.889771   -0.114835   -1.261386
      7          1           0       -3.492463    0.775023   -1.855760
      8          1           0       -4.476840    2.918298   -0.975960
      9          1           0       -5.882088    2.023385   -0.378209
     10          1           0       -5.581517    2.138002   -2.120572
     11          6           0       -2.722473   -0.682210    0.378492
     12          6           0       -2.035316   -0.856294    1.733296
     13          6           0       -1.192171   -2.129532    1.809229
     14          1           0       -3.358586   -1.556543    0.182794
     15          1           0       -1.960430   -0.666791   -0.412708
     16          1           0       -2.799070   -0.871108    2.521379
     17          1           0       -1.401761    0.018749    1.927005
     18          1           0       -0.409445   -2.119470    1.043828
     19          1           0       -1.814693   -3.014384    1.641579
     20          1           0       -0.710016   -2.234087    2.786191
     21          6           0        3.142770   -0.509827   -0.854542
     22          6           0        2.128422   -1.614223   -0.555558
     23          6           0        2.134324   -2.723088   -1.608257
     24          1           0        2.927298   -0.080529   -1.842581
     25          1           0        4.147016   -0.951279   -0.917809
     26          1           0        1.126564   -1.170609   -0.491502
     27          1           0        2.346216   -2.040811    0.431967
     28          1           0        3.121607   -3.192478   -1.667821
     29          1           0        1.895025   -2.317331   -2.596538
     30          1           0        1.401827   -3.502095   -1.374899
     31          6           0        3.148764    0.605912    0.188923
     32          6           0        4.163111    1.710308   -0.110062
     33          6           0        4.157208    2.819174    0.942639
     34          1           0        2.144516    1.047365    0.252190
     35          1           0        3.364234    0.176614    1.176962
     36          1           0        3.945317    2.136897   -1.097586
     37          1           0        5.164969    1.266694   -0.174116
     38          1           0        4.396508    2.413418    1.930919
     39          1           0        3.169926    3.288563    1.002202
     40          1           0        4.889706    3.598180    0.709280
 ---------------------------------------------------------------------

 SCF Done:  E(RHF) =  -470.733068253     A.U. after   11 cycles
 E2 =    -0.1583047096D+01 EUMP2 =    -0.47231611534857D+03

 The electronic state is 1-A.
 Alpha  occ. eigenvalues --  -11.21659 -11.21637 -11.21612 -11.21566 -11.21452
 Alpha  occ. eigenvalues --  -11.21410 -11.21392 -11.21351 -11.21113 -11.21101
 Alpha  occ. eigenvalues --  -11.21081 -11.20938  -1.08484  -1.08421  -1.03592
 Alpha  occ. eigenvalues --   -1.03495  -0.96028  -0.95948  -0.87043  -0.86967
 Alpha  occ. eigenvalues --   -0.79712  -0.79519  -0.78326  -0.78210  -0.65157
 Alpha  occ. eigenvalues --   -0.65017  -0.61051  -0.60856  -0.59411  -0.59308
 Alpha  occ. eigenvalues --   -0.57706  -0.57505  -0.55316  -0.55229  -0.52717
 Alpha  occ. eigenvalues --   -0.52643  -0.52446  -0.52377  -0.49989  -0.49903
 Alpha  occ. eigenvalues --   -0.48086  -0.47782  -0.46764  -0.46540  -0.45935
 Alpha  occ. eigenvalues --   -0.45778  -0.45734  -0.45501  -0.43826  -0.43768
 Alpha virt. eigenvalues --    0.20809   0.23240   0.23512   0.24716   0.25974
 Alpha virt. eigenvalues --    0.26537   0.27097   0.27584   0.28219   0.28919
 Alpha virt. eigenvalues --    0.30707   0.31046   0.31687   0.31832   0.32020

 Mulliken charges:
               1
     1  C   -0.298201
     2  C   -0.299612
     3  C   -0.475694
     4  H    0.149894
     5  H    0.149242
     6  H    0.152045
     7  H    0.151662
     8  H    0.155086
     9  H    0.155271
    10  H    0.160264
    11  C   -0.299647
    12  C   -0.299176
    13  C   -0.484060
    14  H    0.149784
    15  H    0.149481
    16  H    0.151804
    17  H    0.151581
    18  H    0.165868
    19  H    0.154134
    20  H    0.159523
    21  C   -0.297451
    22  C   -0.304720
    23  C   -0.476836
    24  H    0.149563
    25  H    0.149853
    26  H    0.154168
    27  H    0.153729
    28  H    0.155702
    29  H    0.155215
    30  H    0.161497
    31  C   -0.298308
    32  C   -0.299690
    33  C   -0.475708
    34  H    0.148853
    35  H    0.150047
    36  H    0.151940
    37  H    0.152118
    38  H    0.155324
    39  H    0.155051
    40  H    0.160404
 Sum of Mulliken charges =  -0.00000

 Dipole moment (field-independent basis, Debye):
    X=              0.0426    Y=             -0.0115    Z=             -0.0120  Tot=              0.0457
 Quadrupole moment (field-independent basis, Debye-Ang):
   XX=            -83.9827   YY=            -85.7992   ZZ=            -84.9349
   XY=              0.4660   XZ=             -0.0720   YZ=             -0.8225

 Normal termination of Gaussian 16 at Thu May  6 00:50:37 2021.
