 Gaussian 16, Revision A.03,
 Gaussian 16:  EM64L-G16RevA.03 25-Dec-2016

 -------------
 #p 6-31g* mp2
 -------------

 ------------------------------------------------------
 Input file generated by CHIRIPA (05-May-2021 14:51:08)
 ------------------------------------------------------
 Symbolic Z-matrix:
 Charge =  0 Multiplicity = 1

                         Standard orientation:
 ---------------------------------------------------------------------
 Center     Atomic      Atomic             Coordinates (Angstroms)
 Number     Number       Type             X           Y           Z
 ---------------------------------------------------------------------
      1          6           0       -2.331515    0.009082   -0.602492
      2          6           0       -3.294052   -1.174820   -0.503079
      3          6           0       -3.065645   -2.216052   -1.599191
      4          1           0       -2.442266    0.481745   -1.588022
      5          1           0       -1.298542   -0.361569   -0.547907
      6          1           0       -4.324927   -0.801908   -0.556446
      7          1           0       -3.181134   -1.644603    0.482400
      8          1           0       -2.047908   -2.615855   -1.544702
      9          1           0       -3.198201   -1.768372   -2.589450
     10          1           0       -3.764428   -3.053588   -1.509211
     11          6           0       -2.547420    1.058485    0.486483
     12          6           0       -1.584883    2.242387    0.387071
     13          6           0       -1.813290    3.283619    1.483183
     14          1           0       -3.580393    1.429136    0.431898
     15          1           0       -2.436670    0.585821    1.472013
     16          1           0       -1.697801    2.712170   -0.598409
     17          1           0       -0.554008    1.869474    0.440437
     18          1           0       -1.680734    2.835939    2.473442
     19          1           0       -2.831027    3.683422    1.428693
     20          1           0       -1.114507    4.121155    1.393203
     21          6           0        2.395885    0.010582   -0.476036
     22          6           0        3.552226    1.009415   -0.419531
     23          6           0        3.450985    2.092366   -1.494129
     24          1           0        2.372508   -0.457755   -1.469544
     25          1           0        1.446633    0.552482   -0.363516
     26          1           0        4.499086    0.465628   -0.530739
     27          1           0        3.572970    1.475289    0.574022
     28          1           0        2.521750    2.660360   -1.382305
     29          1           0        3.453128    1.644963   -2.493342
     30          1           0        4.287591    2.795582   -1.435488
     31          6           0        2.483050   -1.078149    0.592044
     32          6           0        1.326709   -2.076982    0.535540
     33          6           0        1.427950   -3.159933    1.610138
     34          1           0        3.432302   -1.620049    0.479524
     35          1           0        2.506427   -0.609812    1.585553
     36          1           0        1.305965   -2.542855   -0.458013
     37          1           0        0.379848   -1.533196    0.646747
     38          1           0        1.425807   -2.712530    2.609351
     39          1           0        2.357185   -3.727927    1.498314
     40          1           0        0.591344   -3.863149    1.551496
 ---------------------------------------------------------------------

 SCF Done:  E(RHF) =  -470.732988856     A.U. after   11 cycles
 E2 =    -0.1584422037D+01 EUMP2 =    -0.47231741089347D+03

 The electronic state is 1-A.
 Alpha  occ. eigenvalues --  -11.21682 -11.21661 -11.21626 -11.21589 -11.21455
 Alpha  occ. eigenvalues --  -11.21415 -11.21387 -11.21320 -11.21138 -11.21120
 Alpha  occ. eigenvalues --  -11.21074 -11.21044  -1.08509  -1.08425  -1.03588
 Alpha  occ. eigenvalues --   -1.03538  -0.96022  -0.95990  -0.87047  -0.87000
 Alpha  occ. eigenvalues --   -0.79691  -0.79573  -0.78461  -0.78110  -0.65351
 Alpha  occ. eigenvalues --   -0.64870  -0.61069  -0.60872  -0.59417  -0.59331
 Alpha  occ. eigenvalues --   -0.57638  -0.57596  -0.55331  -0.55264  -0.52724
 Alpha  occ. eigenvalues --   -0.52687  -0.52467  -0.52395  -0.50053  -0.49862
 Alpha  occ. eigenvalues --   -0.48082  -0.47842  -0.46796  -0.46632  -0.46399
 Alpha  occ. eigenvalues --   -0.45791  -0.45768  -0.44964  -0.43829  -0.43791
 Alpha virt. eigenvalues --    0.19780   0.22325   0.23879   0.24694   0.25090
 Alpha virt. eigenvalues --    0.26630   0.26978   0.27349   0.28254   0.29811
 Alpha virt. eigenvalues --    0.31151   0.31544   0.31783   0.31845   0.32148

 Mulliken charges:
               1
     1  C   -0.307702
     2  C   -0.299319
     3  C   -0.476558
     4  H    0.149810
     5  H    0.158759
     6  H    0.151922
     7  H    0.151561
     8  H    0.156412
     9  H    0.155095
    10  H    0.159994
    11  C   -0.298004
    12  C   -0.306391
    13  C   -0.475338
    14  H    0.149947
    15  H    0.149000
    16  H    0.152436
    17  H    0.156638
    18  H    0.155058
    19  H    0.155643
    20  H    0.160237
    21  C   -0.307988
    22  C   -0.299240
    23  C   -0.476056
    24  H    0.150051
    25  H    0.158096
    26  H    0.152115
    27  H    0.151747
    28  H    0.155784
    29  H    0.155305
    30  H    0.160244
    31  C   -0.297682
    32  C   -0.306645
    33  C   -0.475338
    34  H    0.150011
    35  H    0.149326
    36  H    0.152131
    37  H    0.157684
    38  H    0.155171
    39  H    0.155651
    40  H    0.160431
 Sum of Mulliken charges =  -0.00000

 Dipole moment (field-independent basis, Debye):
    X=              0.0180    Y=             -0.0026    Z=             -0.0080  Tot=              0.0199
 Quadrupole moment (field-independent basis, Debye-Ang):
   XX=            -84.0832   YY=            -85.6018   ZZ=            -85.0443
   XY=             -0.7093   XZ=              0.1268   YZ=              0.0663

 Normal termination of Gaussian 16 at Thu May  6 02:04:43 2021.
