 Gaussian 16, Revision A.03,
 Gaussian 16:  EM64L-G16RevA.03 25-Dec-2016

 -------------
 #p 6-31g* mp2
 -------------

 ------------------------------------------------------
 Input file generated by CHIRIPA (05-May-2021 14:55:25)
 ------------------------------------------------------
 Symbolic Z-matrix:
 Charge =  0 Multiplicity = 1

                         Standard orientation:
 ---------------------------------------------------------------------
 Center     Atomic      Atomic             Coordinates (Angstroms)
 Number     Number       Type             X           Y           Z
 ---------------------------------------------------------------------
      1          6           0       -0.685902   -1.551832    0.408127
      2          6           0       -0.898673   -0.909765   -0.816209
      3          6           0       -2.078783   -0.197085   -1.048540
      4          6           0       -3.029094   -0.146877   -0.029875
      5          6           0       -2.846340   -0.776044    1.200589
      6          6           0       -1.658699   -1.483043    1.410851
      7          1           0        0.233760   -2.103252    0.580035
      8          1           0       -0.144935   -0.961492   -1.596753
      9          1           0       -2.269300    0.309282   -1.987003
     10          1           0       -3.616133   -0.706618    1.959546
     11          1           0       -1.496162   -1.980706    2.362670
     12          7           0       -4.282409    0.604598   -0.264151
     13          8           0       -5.104074    0.633751    0.649443
     14          8           0       -4.419361    1.150222   -1.356934
     15          6           0        4.058840   -0.268982   -0.086396
     16          6           0        3.273698   -1.566763   -0.279532
     17          6           0        4.179817   -2.789280   -0.428511
     18          1           0        4.733311   -0.125218   -0.941595
     19          1           0        4.697384   -0.363798    0.802798
     20          1           0        2.635792   -1.469019   -1.167304
     21          1           0        2.600879   -1.707356    0.576134
     22          1           0        4.806618   -2.914819    0.460287
     23          1           0        4.841730   -2.675129   -1.293058
     24          1           0        3.597867   -3.706030   -0.565488
     25          6           0        3.166842    0.962050    0.064029
     26          6           0        3.951985    2.259830    0.257165
     27          6           0        3.045866    3.482347    0.406144
     28          1           0        2.528298    1.056866   -0.825165
     29          1           0        2.492371    0.818286    0.919229
     30          1           0        4.624804    2.400424   -0.598500
     31          1           0        4.589890    2.162088    1.144937
     32          1           0        2.383952    3.368197    1.270690
     33          1           0        2.419064    3.607888   -0.482653
     34          1           0        3.627815    4.399098    0.543122
 ---------------------------------------------------------------------

 SCF Done:  E(RHF) =  -669.535421875     A.U. after   15 cycles
 E2 =    -0.2091898244D+01 EUMP2 =    -0.67162732011956D+03

 The electronic state is 1-A.
 Alpha  occ. eigenvalues --  -20.60709 -20.60704 -15.85763 -11.31111 -11.27684
 Alpha  occ. eigenvalues --  -11.27678 -11.27363 -11.26686 -11.26671 -11.22890
 Alpha  occ. eigenvalues --  -11.22289 -11.22167 -11.22102 -11.22093 -11.21468
 Alpha  occ. eigenvalues --   -1.59785  -1.39339  -1.19280  -1.09293  -1.08669
 Alpha  occ. eigenvalues --   -1.04684  -1.04354  -0.96751  -0.95512  -0.87772
 Alpha  occ. eigenvalues --   -0.86079  -0.82353  -0.80487  -0.79075  -0.77400
 Alpha  occ. eigenvalues --   -0.71980  -0.71108  -0.70386  -0.65923  -0.64929
 Alpha  occ. eigenvalues --   -0.64691  -0.62043  -0.61747  -0.60167  -0.58376
 Alpha  occ. eigenvalues --   -0.56019  -0.55189  -0.53465  -0.53161  -0.53006
 Alpha  occ. eigenvalues --   -0.52778  -0.50694  -0.48764  -0.48740  -0.48721
 Alpha  occ. eigenvalues --   -0.47514  -0.46594  -0.46501  -0.44749  -0.44594
 Alpha  occ. eigenvalues --   -0.37238  -0.36289
 Alpha virt. eigenvalues --    0.05120   0.11329   0.16556   0.19553   0.22552
 Alpha virt. eigenvalues --    0.23645   0.24047   0.25667   0.27072   0.28121
 Alpha virt. eigenvalues --    0.29227   0.29825   0.30981   0.31505   0.31735

 Mulliken charges:
               1
     1  C   -0.173881
     2  C   -0.221163
     3  C   -0.171257
     4  C    0.158448
     5  C   -0.170868
     6  C   -0.220087
     7  H    0.232755
     8  H    0.224743
     9  H    0.275185
    10  H    0.275194
    11  H    0.222933
    12  N    0.488061
    13  O   -0.460702
    14  O   -0.460702
    15  C   -0.297995
    16  C   -0.305335
    17  C   -0.475898
    18  H    0.152992
    19  H    0.152580
    20  H    0.147167
    21  H    0.146367
    22  H    0.158856
    23  H    0.159705
    24  H    0.159323
    25  C   -0.298935
    26  C   -0.300494
    27  C   -0.476111
    28  H    0.147273
    29  H    0.150541
    30  H    0.153022
    31  H    0.152978
    32  H    0.156646
    33  H    0.156277
    34  H    0.162383
 Sum of Mulliken charges =  -0.00000

 Dipole moment (field-independent basis, Debye):
    X=              4.6509    Y=             -2.5751    Z=              0.8408  Tot=              5.3822
 Quadrupole moment (field-independent basis, Debye-Ang):
   XX=           -121.2150   YY=            -95.1362   ZZ=            -89.6866
   XY=              8.3619   XZ=             -4.2720   YZ=             -1.5524

 Normal termination of Gaussian 16 at Thu May  6 20:58:19 2021.
