 Gaussian 16, Revision A.03,
 Gaussian 16:  EM64L-G16RevA.03 25-Dec-2016

 -------------
 #p 6-31g* mp2
 -------------

 ------------------------------------------------------
 Input file generated by CHIRIPA (05-May-2021 14:57:22)
 ------------------------------------------------------
 Symbolic Z-matrix:
 Charge =  0 Multiplicity = 1

                         Standard orientation:
 ---------------------------------------------------------------------
 Center     Atomic      Atomic             Coordinates (Angstroms)
 Number     Number       Type             X           Y           Z
 ---------------------------------------------------------------------
      1          6           0        3.439946    2.548730    0.274358
      2          6           0        4.335603    1.787986   -0.484318
      3          6           0        4.102030    0.427319   -0.704720
      4          6           0        2.957687   -0.142813   -0.149095
      5          6           0        2.046543    0.588567    0.611293
      6          6           0        2.300284    1.947652    0.818782
      7          1           0        3.629224    3.605114    0.440556
      8          1           0        5.221499    2.252133   -0.908346
      9          1           0        4.778848   -0.185066   -1.288090
     10          1           0        1.172082    0.097877    1.021119
     11          1           0        1.602969    2.535999    1.408396
     12          7           0        2.699739   -1.582453   -0.375590
     13          8           0        1.684273   -2.061095    0.124778
     14          8           0        3.517909   -2.204940   -1.049196
     15          6           0       -1.542356   -1.730479    1.362385
     16          6           0       -2.199860   -2.129844    0.194173
     17          6           0       -3.010137   -1.231804   -0.506913
     18          6           0       -3.141139    0.063707   -0.009139
     19          6           0       -2.499040    0.491629    1.151844
     20          6           0       -1.693778   -0.423322    1.836655
     21          1           0       -0.914862   -2.434666    1.900685
     22          1           0       -2.084101   -3.144366   -0.176487
     23          1           0       -3.530615   -1.514487   -1.413893
     24          1           0       -2.633792    1.509623    1.496731
     25          1           0       -1.184353   -0.110393    2.743633
     26          7           0       -3.996289    1.023374   -0.742734
     27          8           0       -4.095359    2.159091   -0.283420
     28          8           0       -4.551292    0.621671   -1.763147
 ---------------------------------------------------------------------

 SCF Done:  E(RHF) =  -868.339187192     A.U. after   16 cycles
 E2 =    -0.2600871550D+01 EUMP2 =    -0.87094005874199D+03

 The electronic state is 1-A.
 Alpha  occ. eigenvalues --  -20.61387 -20.61340 -20.60684 -20.60663 -15.86409
 Alpha  occ. eigenvalues --  -15.85732 -11.31564 -11.30990 -11.28115 -11.28088
 Alpha  occ. eigenvalues --  -11.27828 -11.27714 -11.27529 -11.27189 -11.27105
 Alpha  occ. eigenvalues --  -11.27078 -11.26632 -11.26356  -1.60433  -1.59756
 Alpha  occ. eigenvalues --   -1.39996  -1.39313  -1.19726  -1.19176  -1.09159
 Alpha  occ. eigenvalues --   -1.08542  -1.05107  -1.04584  -0.96033  -0.95390
 Alpha  occ. eigenvalues --   -0.86516  -0.85957  -0.82887  -0.82240  -0.77955
 Alpha  occ. eigenvalues --   -0.77340  -0.72669  -0.71950  -0.71740  -0.71083
 Alpha  occ. eigenvalues --   -0.70837  -0.70164  -0.65387  -0.65128  -0.64810
 Alpha  occ. eigenvalues --   -0.64563  -0.62478  -0.61927  -0.55615  -0.54934
 Alpha  occ. eigenvalues --   -0.53441  -0.53311  -0.52763  -0.52649  -0.49401
 Alpha  occ. eigenvalues --   -0.49370  -0.48712  -0.48695  -0.45448  -0.44744
 Alpha  occ. eigenvalues --   -0.37694  -0.37026  -0.36707  -0.36195
 Alpha virt. eigenvalues --    0.04578   0.05233   0.10955   0.11303   0.16108
 Alpha virt. eigenvalues --    0.16750   0.20628   0.22046   0.26361   0.27609
 Alpha virt. eigenvalues --    0.28367   0.28992   0.30811   0.31311   0.32056

 Mulliken charges:
               1
     1  C   -0.169265
     2  C   -0.218971
     3  C   -0.169615
     4  C    0.155943
     5  C   -0.173654
     6  C   -0.220737
     7  H    0.227672
     8  H    0.225013
     9  H    0.276114
    10  H    0.278304
    11  H    0.222372
    12  N    0.490739
    13  O   -0.471129
    14  O   -0.457672
    15  C   -0.154288
    16  C   -0.215540
    17  C   -0.170473
    18  C    0.157125
    19  C   -0.172741
    20  C   -0.236120
    21  H    0.236899
    22  H    0.230083
    23  H    0.276100
    24  H    0.271226
    25  H    0.217973
    26  N    0.488374
    27  O   -0.463956
    28  O   -0.459774
 Sum of Mulliken charges =  -0.00000

 Dipole moment (field-independent basis, Debye):
    X=              4.0379    Y=              1.4320    Z=              3.2585  Tot=              5.3827
 Quadrupole moment (field-independent basis, Debye-Ang):
   XX=           -115.4832   YY=           -104.4146   ZZ=           -102.5162
   XY=             27.3197   XZ=             -7.7876   YZ=              2.0940

 Normal termination of Gaussian 16 at Fri May  7 00:11:43 2021.
