 Gaussian 16, Revision A.03,
 Gaussian 16:  EM64L-G16RevA.03 25-Dec-2016

 -------------
 #p 6-31g* mp2
 -------------

 ------------------------------------------------------
 Input file generated by CHIRIPA (05-May-2021 14:53:16)
 ------------------------------------------------------
 Symbolic Z-matrix:
 Charge =  0 Multiplicity = 1

                         Standard orientation:
 ---------------------------------------------------------------------
 Center     Atomic      Atomic             Coordinates (Angstroms)
 Number     Number       Type             X           Y           Z
 ---------------------------------------------------------------------
      1          6           0        3.799980    0.182291   -0.064973
      2          6           0        3.615776   -1.267974   -0.513065
      3          6           0        4.912251   -2.075908   -0.448339
      4          1           0        4.563111    0.659828   -0.694682
      5          1           0        4.189907    0.194643    0.962256
      6          1           0        3.225006   -1.277573   -1.538649
      7          1           0        2.852857   -1.742059    0.117660
      8          1           0        5.302941   -2.096102    0.574185
      9          1           0        5.677204   -1.628977   -1.091534
     10          1           0        4.757722   -3.109642   -0.772954
     11          6           0        2.512725    1.002782   -0.124106
     12          6           0        2.696929    2.453047    0.323986
     13          6           0        1.400454    3.260981    0.259259
     14          1           0        2.122798    0.990430   -1.151335
     15          1           0        1.749594    0.525245    0.505602
     16          1           0        3.459848    2.927132   -0.306739
     17          1           0        3.087699    2.462646    1.349569
     18          1           0        0.635501    2.814050    0.902455
     19          1           0        1.009764    3.281175   -0.763265
     20          1           0        1.554983    4.294715    0.583874
     21          6           0       -0.281135   -1.329395    0.991432
     22          6           0       -0.426223   -1.112074   -0.382700
     23          6           0       -1.632200   -0.632200   -0.902208
     24          6           0       -2.677116   -0.379152   -0.014849
     25          6           0       -2.563439   -0.585598    1.359105
     26          6           0       -1.348325   -1.065928    1.856425
     27          1           0        0.659247   -1.702349    1.386380
     28          1           0        0.400874   -1.315812   -1.056828
     29          1           0       -1.771768   -0.455067   -1.961719
     30          1           0       -3.405816   -0.373293    2.006211
     31          1           0       -1.238503   -1.233771    2.924045
     32          7           0       -3.958666    0.129110   -0.553083
     33          8           0       -4.864138    0.344273    0.249702
     34          8           0       -4.033409    0.302699   -1.767545
 ---------------------------------------------------------------------

 SCF Done:  E(RHF) =  -669.533454234     A.U. after   15 cycles
 E2 =    -0.2094766291D+01 EUMP2 =    -0.67162822052568D+03

 The electronic state is 1-A.
 Alpha  occ. eigenvalues --  -20.60738 -20.60732 -15.85789 -11.31160 -11.27717
 Alpha  occ. eigenvalues --  -11.27678 -11.27432 -11.26763 -11.26664 -11.22861
 Alpha  occ. eigenvalues --  -11.22267 -11.22122 -11.22020 -11.22019 -11.21399
 Alpha  occ. eigenvalues --   -1.59812  -1.39366  -1.19329  -1.09297  -1.08719
 Alpha  occ. eigenvalues --   -1.04723  -1.04303  -0.96706  -0.95569  -0.87726
 Alpha  occ. eigenvalues --   -0.86138  -0.82393  -0.80441  -0.79107  -0.77413
 Alpha  occ. eigenvalues --   -0.72009  -0.71134  -0.70480  -0.65932  -0.64964
 Alpha  occ. eigenvalues --   -0.64718  -0.62074  -0.61711  -0.60106  -0.58332
 Alpha  occ. eigenvalues --   -0.55992  -0.55253  -0.53431  -0.53335  -0.52898
 Alpha  occ. eigenvalues --   -0.52805  -0.50658  -0.48782  -0.48766  -0.48702
 Alpha  occ. eigenvalues --   -0.47492  -0.46551  -0.46496  -0.44771  -0.44546
 Alpha  occ. eigenvalues --   -0.37215  -0.36281
 Alpha virt. eigenvalues --    0.05044   0.11299   0.16431   0.19477   0.22774
 Alpha virt. eigenvalues --    0.23644   0.24246   0.25561   0.27280   0.28196
 Alpha virt. eigenvalues --    0.29524   0.30250   0.31129   0.31382   0.31631

 Mulliken charges:
               1
     1  C   -0.297586
     2  C   -0.305383
     3  C   -0.475395
     4  H    0.153770
     5  H    0.150311
     6  H    0.151340
     7  H    0.141823
     8  H    0.157109
     9  H    0.159844
    10  H    0.161893
    11  C   -0.305902
    12  C   -0.299524
    13  C   -0.476284
    14  H    0.146522
    15  H    0.155053
    16  H    0.153123
    17  H    0.151376
    18  H    0.157166
    19  H    0.156822
    20  H    0.162168
    21  C   -0.178226
    22  C   -0.214795
    23  C   -0.173079
    24  C    0.159059
    25  C   -0.171566
    26  C   -0.219607
    27  H    0.228524
    28  H    0.230391
    29  H    0.275286
    30  H    0.275372
    31  H    0.223314
    32  N    0.488025
    33  O   -0.460526
    34  O   -0.460416
 Sum of Mulliken charges =  -0.00000

 Dipole moment (field-independent basis, Debye):
    X=              4.6438    Y=             -1.7111    Z=              1.8704  Tot=              5.2906
 Quadrupole moment (field-independent basis, Debye-Ang):
   XX=           -118.9789   YY=            -94.4794   ZZ=            -89.7007
   XY=              3.6745   XZ=             -7.5040   YZ=             -0.8394

 Normal termination of Gaussian 16 at Wed May  5 23:34:55 2021.
