 Gaussian 16, Revision A.03,
 Gaussian 16:  EM64L-G16RevA.03 25-Dec-2016

 -------------
 #p 6-31g* mp2
 -------------

 ------------------------------------------------------
 Input file generated by CHIRIPA (05-May-2021 14:57:25)
 ------------------------------------------------------
 Symbolic Z-matrix:
 Charge =  0 Multiplicity = 1

                         Standard orientation:
 ---------------------------------------------------------------------
 Center     Atomic      Atomic             Coordinates (Angstroms)
 Number     Number       Type             X           Y           Z
 ---------------------------------------------------------------------
      1          6           0        2.042892    1.851080    0.628642
      2          6           0        2.233376    0.789394    1.519181
      3          6           0        3.110853   -0.252520    1.204541
      4          6           0        3.784549   -0.200490   -0.014769
      5          6           0        3.616056    0.843589   -0.922954
      6          6           0        2.733622    1.874747   -0.587439
      7          1           0        1.359321    2.656286    0.881170
      8          1           0        1.698287    0.768382    2.464317
      9          1           0        3.277106   -1.086535    1.875508
     10          1           0        4.163586    0.836808   -1.857610
     11          1           0        2.587658    2.697999   -1.280978
     12          7           0        4.716118   -1.297825   -0.358914
     13          8           0        5.297719   -1.228579   -1.439462
     14          8           0        4.847043   -2.206383    0.458409
     15          6           0       -1.889736    1.834606    0.157430
     16          6           0       -2.146042    0.988342    1.241249
     17          6           0       -3.108611   -0.020702    1.142064
     18          6           0       -3.799356   -0.155828   -0.061225
     19          6           0       -3.566691    0.671533   -1.158782
     20          6           0       -2.599627    1.673784   -1.037020
     21          1           0       -1.140242    2.615818    0.243248
     22          1           0       -1.596261    1.110916    2.170099
     23          1           0       -3.327065   -0.689788    1.965484
     24          1           0       -4.130857    0.524878   -2.071813
     25          1           0       -2.402675    2.329544   -1.880368
     26          7           0       -4.820764   -1.220463   -0.178179
     27          8           0       -5.415703   -1.318853   -1.249161
     28          8           0       -5.007065   -1.936374    0.803351
 ---------------------------------------------------------------------

 SCF Done:  E(RHF) =  -868.335840040     A.U. after   16 cycles
 E2 =    -0.2600558513D+01 EUMP2 =    -0.87093639855245D+03

 The electronic state is 1-A.
 Alpha  occ. eigenvalues --  -20.61253 -20.61247 -20.61177 -20.61171 -15.86313
 Alpha  occ. eigenvalues --  -15.86237 -11.31858 -11.31748 -11.28442 -11.28437
 Alpha  occ. eigenvalues --  -11.28375 -11.28356 -11.28322 -11.28240 -11.27583
 Alpha  occ. eigenvalues --  -11.27552 -11.27486 -11.27404  -1.60323  -1.60248
 Alpha  occ. eigenvalues --   -1.39872  -1.39798  -1.20065  -1.19954  -1.09469
 Alpha  occ. eigenvalues --   -1.09339  -1.05491  -1.05381  -0.96279  -0.96133
 Alpha  occ. eigenvalues --   -0.86910  -0.86785  -0.83103  -0.82959  -0.78067
 Alpha  occ. eigenvalues --   -0.77974  -0.72531  -0.72455  -0.71647  -0.71572
 Alpha  occ. eigenvalues --   -0.71505  -0.70918  -0.65739  -0.65627  -0.65567
 Alpha  occ. eigenvalues --   -0.65371  -0.62843  -0.62716  -0.56397  -0.55698
 Alpha  occ. eigenvalues --   -0.53864  -0.53632  -0.53616  -0.53485  -0.49305
 Alpha  occ. eigenvalues --   -0.49271  -0.49225  -0.49197  -0.45237  -0.45170
 Alpha  occ. eigenvalues --   -0.38295  -0.37761  -0.37103  -0.36933
 Alpha virt. eigenvalues --    0.04312   0.04695   0.10353   0.10847   0.15586
 Alpha virt. eigenvalues --    0.16214   0.17889   0.22244   0.24413   0.25364
 Alpha virt. eigenvalues --    0.27567   0.29012   0.30136   0.31370   0.33235

 Mulliken charges:
               1
     1  C   -0.171255
     2  C   -0.216940
     3  C   -0.169284
     4  C    0.159923
     5  C   -0.169537
     6  C   -0.218163
     7  H    0.216149
     8  H    0.220010
     9  H    0.278220
    10  H    0.277907
    11  H    0.222545
    12  N    0.487950
    13  O   -0.458518
    14  O   -0.458090
    15  C   -0.167406
    16  C   -0.217078
    17  C   -0.169667
    18  C    0.159427
    19  C   -0.169452
    20  C   -0.218275
    21  H    0.215691
    22  H    0.216646
    23  H    0.277115
    24  H    0.277828
    25  H    0.223682
    26  N    0.488015
    27  O   -0.458503
    28  O   -0.458941
 Sum of Mulliken charges =  -0.00000

 Dipole moment (field-independent basis, Debye):
    X=              0.3516    Y=              7.3771    Z=              1.4984  Tot=              7.5360
 Quadrupole moment (field-independent basis, Debye-Ang):
   XX=           -156.7473   YY=           -107.7567   ZZ=            -96.8976
   XY=              0.6368   XZ=              2.8899   YZ=             -4.6820

 Normal termination of Gaussian 16 at Thu May  6 08:18:22 2021.
