 Gaussian 16, Revision A.03,
 Gaussian 16:  EM64L-G16RevA.03 25-Dec-2016

 -------------
 #p 6-31g* mp2
 -------------

 ------------------------------------------------------
 Input file generated by CHIRIPA (05-May-2021 14:51:13)
 ------------------------------------------------------
 Symbolic Z-matrix:
 Charge =  0 Multiplicity = 1

                         Standard orientation:
 ---------------------------------------------------------------------
 Center     Atomic      Atomic             Coordinates (Angstroms)
 Number     Number       Type             X           Y           Z
 ---------------------------------------------------------------------
      1          6           0        3.614451    0.560425   -0.696211
      2          6           0        2.634862    1.526882   -0.029615
      3          6           0        2.053698    2.547976   -1.008087
      4          1           0        4.430083    1.134624   -1.156630
      5          1           0        3.101506    0.035363   -1.513886
      6          1           0        3.149116    2.048958    0.787450
      7          1           0        1.821568    0.950304    0.429436
      8          1           0        1.516323    2.043338   -1.817513
      9          1           0        2.851415    3.148235   -1.457464
     10          1           0        1.356045    3.228842   -0.510532
     11          6           0        4.203904   -0.466407    0.269133
     12          6           0        5.183493   -1.432864   -0.397463
     13          6           0        5.764657   -2.453959    0.581010
     14          1           0        4.716849    0.058655    1.086808
     15          1           0        3.388272   -1.040606    0.729552
     16          1           0        5.996787   -0.856286   -0.856514
     17          1           0        4.669239   -1.954940   -1.214528
     18          1           0        4.966940   -3.054217    1.030387
     19          1           0        6.302032   -1.949320    1.390435
     20          1           0        6.462310   -3.134825    0.083454
     21          6           0       -4.615429   -0.303500    0.350845
     22          6           0       -5.233405   -1.043100   -0.836203
     23          6           0       -6.646382   -1.550196   -0.546126
     24          1           0       -4.594649   -0.973238    1.221457
     25          1           0       -5.261105    0.542932    0.622968
     26          1           0       -4.586046   -1.887063   -1.106886
     27          1           0       -5.252540   -0.371586   -1.704142
     28          1           0       -7.311275   -0.716760   -0.297322
     29          1           0       -6.640994   -2.240848    0.303328
     30          1           0       -7.069123   -2.075798   -1.408038
     31          6           0       -3.202926    0.209482    0.076232
     32          6           0       -2.584950    0.949083    1.263280
     33          6           0       -1.171973    1.456178    0.973204
     34          1           0       -2.557250   -0.636950   -0.195891
     35          1           0       -3.223706    0.879220   -0.794379
     36          1           0       -2.565814    0.277569    2.131220
     37          1           0       -3.232309    1.793045    1.533964
     38          1           0       -1.177361    2.146830    0.123750
     39          1           0       -0.507080    0.622743    0.724399
     40          1           0       -0.749231    1.981779    1.835116
 ---------------------------------------------------------------------

 SCF Done:  E(RHF) =  -470.732828441     A.U. after   11 cycles
 E2 =    -0.1582954828D+01 EUMP2 =    -0.47231578326903D+03

 The electronic state is 1-A.
 Alpha  occ. eigenvalues --  -11.21617 -11.21611 -11.21574 -11.21451 -11.21424
 Alpha  occ. eigenvalues --  -11.21365 -11.21353 -11.21284 -11.21084 -11.21073
 Alpha  occ. eigenvalues --  -11.21054 -11.20955  -1.08450  -1.08366  -1.03566
 Alpha  occ. eigenvalues --   -1.03442  -0.96033  -0.95882  -0.87028  -0.86925
 Alpha  occ. eigenvalues --   -0.79649  -0.79498  -0.78274  -0.78166  -0.65096
 Alpha  occ. eigenvalues --   -0.64994  -0.61008  -0.60823  -0.59389  -0.59270
 Alpha  occ. eigenvalues --   -0.57655  -0.57475  -0.55314  -0.55207  -0.52741
 Alpha  occ. eigenvalues --   -0.52600  -0.52391  -0.52300  -0.50068  -0.49774
 Alpha  occ. eigenvalues --   -0.47966  -0.47811  -0.46780  -0.46419  -0.45853
 Alpha  occ. eigenvalues --   -0.45751  -0.45693  -0.45507  -0.43793  -0.43711
 Alpha virt. eigenvalues --    0.21832   0.22995   0.23564   0.24812   0.25982
 Alpha virt. eigenvalues --    0.26602   0.27144   0.27560   0.27609   0.29229
 Alpha virt. eigenvalues --    0.30335   0.31242   0.31482   0.31927   0.32357

 Mulliken charges:
               1
     1  C   -0.297986
     2  C   -0.305560
     3  C   -0.475707
     4  H    0.149283
     5  H    0.148949
     6  H    0.151034
     7  H    0.159495
     8  H    0.154414
     9  H    0.154021
    10  H    0.162094
    11  C   -0.298039
    12  C   -0.299562
    13  C   -0.475652
    14  H    0.149512
    15  H    0.148894
    16  H    0.151969
    17  H    0.151762
    18  H    0.154975
    19  H    0.155163
    20  H    0.160148
    21  C   -0.298254
    22  C   -0.299649
    23  C   -0.475715
    24  H    0.149656
    25  H    0.149638
    26  H    0.151823
    27  H    0.151993
    28  H    0.155238
    29  H    0.155187
    30  H    0.160291
    31  C   -0.298393
    32  C   -0.300537
    33  C   -0.477864
    34  H    0.149157
    35  H    0.149797
    36  H    0.151816
    37  H    0.151898
    38  H    0.157621
    39  H    0.156549
    40  H    0.160541
 Sum of Mulliken charges =  -0.00000

 Dipole moment (field-independent basis, Debye):
    X=             -0.0385    Y=              0.0143    Z=              0.0121  Tot=              0.0429
 Quadrupole moment (field-independent basis, Debye-Ang):
   XX=            -85.5282   YY=            -84.4272   ZZ=            -85.0156
   XY=              0.0905   XZ=              0.1149   YZ=              0.3404

 Normal termination of Gaussian 16 at Wed May  5 21:34:07 2021.
