 Gaussian 16, Revision A.03,
 Gaussian 16:  EM64L-G16RevA.03 25-Dec-2016

 -------------
 #p 6-31g* mp2
 -------------

 ------------------------------------------------------
 Input file generated by CHIRIPA (05-May-2021 14:53:16)
 ------------------------------------------------------
 Symbolic Z-matrix:
 Charge =  0 Multiplicity = 1

                         Standard orientation:
 ---------------------------------------------------------------------
 Center     Atomic      Atomic             Coordinates (Angstroms)
 Number     Number       Type             X           Y           Z
 ---------------------------------------------------------------------
      1          6           0       -3.082158    0.785881   -0.432983
      2          6           0       -2.508592    2.155060   -0.066438
      3          6           0       -2.478390    3.119998   -1.252093
      4          1           0       -2.485125    0.351107   -1.246291
      5          1           0       -4.099577    0.915884   -0.827131
      6          1           0       -1.493073    2.022382    0.328193
      7          1           0       -3.106943    2.586542    0.746221
      8          1           0       -3.488182    3.281823   -1.642903
      9          1           0       -1.865142    2.714459   -2.063306
     10          1           0       -2.064754    4.092578   -0.967746
     11          6           0       -3.118903   -0.189811    0.741923
     12          6           0       -3.692469   -1.558990    0.375377
     13          6           0       -3.722671   -2.523927    1.561032
     14          1           0       -2.101484   -0.319813    1.136070
     15          1           0       -3.715935    0.244964    1.555230
     16          1           0       -3.094117   -1.990471   -0.437282
     17          1           0       -4.707988   -1.426312   -0.019254
     18          1           0       -4.335918   -2.118388    2.372245
     19          1           0       -2.712878   -2.685753    1.951842
     20          1           0       -4.136307   -3.496507    1.276685
     21          6           0        3.775333    1.263166    1.394960
     22          6           0        4.361641    0.126897    0.827813
     23          6           0        3.621469   -0.709164   -0.013433
     24          6           0        2.291482   -0.377469   -0.267206
     25          6           0        1.679019    0.747567    0.282772
     26          6           0        2.438250    1.569335    1.121112
     27          1           0        4.357719    1.907088    2.047332
     28          1           0        5.399836   -0.113342    1.038723
     29          1           0        4.050391   -1.595054   -0.465809
     30          1           0        0.641971    0.961074    0.053943
     31          1           0        1.980297    2.451123    1.560170
     32          7           0        1.497807   -1.255003   -1.156257
     33          8           0        0.327880   -0.940849   -1.364142
     34          8           0        2.060679   -2.240353   -1.628377
 ---------------------------------------------------------------------

 SCF Done:  E(RHF) =  -669.536027052     A.U. after   15 cycles
 E2 =    -0.2092343386D+01 EUMP2 =    -0.67162837043845D+03

 The electronic state is 1-A.
 Alpha  occ. eigenvalues --  -20.60946 -20.60934 -15.85982 -11.31269 -11.27832
 Alpha  occ. eigenvalues --  -11.27812 -11.27565 -11.26837 -11.26821 -11.21631
 Alpha  occ. eigenvalues --  -11.21011 -11.20909 -11.20856 -11.20801 -11.20507
 Alpha  occ. eigenvalues --   -1.60005  -1.39562  -1.19437  -1.08848  -1.07989
 Alpha  occ. eigenvalues --   -1.04831  -1.03166  -0.95697  -0.95588  -0.86623
 Alpha  occ. eigenvalues --   -0.86233  -0.82531  -0.79256  -0.77771  -0.77587
 Alpha  occ. eigenvalues --   -0.72211  -0.71320  -0.70556  -0.65101  -0.64914
 Alpha  occ. eigenvalues --   -0.64533  -0.62189  -0.60541  -0.58995  -0.57206
 Alpha  occ. eigenvalues --   -0.55339  -0.54852  -0.53163  -0.52933  -0.52344
 Alpha  occ. eigenvalues --   -0.52021  -0.49544  -0.48962  -0.48953  -0.47566
 Alpha  occ. eigenvalues --   -0.46270  -0.45349  -0.45152  -0.44965  -0.43381
 Alpha  occ. eigenvalues --   -0.37417  -0.36428
 Alpha virt. eigenvalues --    0.04926   0.11203   0.16438   0.19543   0.23017
 Alpha virt. eigenvalues --    0.24473   0.25880   0.27349   0.27952   0.28356
 Alpha virt. eigenvalues --    0.29367   0.31181   0.31614   0.31978   0.32335

 Mulliken charges:
               1
     1  C   -0.305427
     2  C   -0.299315
     3  C   -0.477027
     4  H    0.171854
     5  H    0.147716
     6  H    0.136150
     7  H    0.151547
     8  H    0.157575
     9  H    0.160318
    10  H    0.155447
    11  C   -0.295334
    12  C   -0.302804
    13  C   -0.475374
    14  H    0.147124
    15  H    0.144340
    16  H    0.166205
    17  H    0.148959
    18  H    0.151277
    19  H    0.154944
    20  H    0.160092
    21  C   -0.170426
    22  C   -0.219053
    23  C   -0.169846
    24  C    0.158231
    25  C   -0.181982
    26  C   -0.222064
    27  H    0.226046
    28  H    0.223801
    29  H    0.275717
    30  H    0.291234
    31  H    0.224159
    32  N    0.490314
    33  O   -0.465504
    34  O   -0.458892
 Sum of Mulliken charges =  -0.00000

 Dipole moment (field-independent basis, Debye):
    X=              2.8634    Y=              2.9534    Z=              2.9458  Tot=              5.0596
 Quadrupole moment (field-independent basis, Debye-Ang):
   XX=            -78.1313   YY=            -96.6142   ZZ=            -97.6888
   XY=              3.1990   XZ=              6.5008   YZ=             -0.7538

 Normal termination of Gaussian 16 at Thu May  6 09:04:31 2021.
