 Gaussian 16, Revision A.03,
 Gaussian 16:  EM64L-G16RevA.03 25-Dec-2016

 -------------
 #p 6-31g* mp2
 -------------

 ------------------------------------------------------
 Input file generated by CHIRIPA (05-May-2021 14:57:22)
 ------------------------------------------------------
 Symbolic Z-matrix:
 Charge =  0 Multiplicity = 1

                         Standard orientation:
 ---------------------------------------------------------------------
 Center     Atomic      Atomic             Coordinates (Angstroms)
 Number     Number       Type             X           Y           Z
 ---------------------------------------------------------------------
      1          6           0       -1.889605   -2.426529    0.761317
      2          6           0       -2.490186   -2.142295   -0.469550
      3          6           0       -2.852486   -0.832341   -0.797130
      4          6           0       -2.598427    0.173530    0.133981
      5          6           0       -2.001613   -0.077873    1.368444
      6          6           0       -1.647661   -1.395230    1.674775
      7          1           0       -1.611404   -3.447008    1.007535
      8          1           0       -2.679285   -2.941214   -1.180897
      9          1           0       -3.318812   -0.584249   -1.742862
     10          1           0       -1.825784    0.739617    2.057074
     11          1           0       -1.181386   -1.613030    2.631433
     12          7           0       -2.977559    1.564238   -0.201566
     13          8           0       -2.743033    2.432608    0.636030
     14          8           0       -3.502070    1.759571   -1.295810
     15          6           0        3.042309    2.496536    0.200221
     16          6           0        1.783799    2.109358   -0.271761
     17          6           0        1.492150    0.759787   -0.491185
     18          6           0        2.486989   -0.180298   -0.226938
     19          6           0        3.750355    0.174017    0.243864
     20          6           0        4.019847    1.529335    0.456076
     21          1           0        3.260262    3.547148    0.367874
     22          1           0        1.022697    2.858320   -0.471323
     23          1           0        0.526220    0.432305   -0.856087
     24          1           0        4.488698   -0.595548    0.433703
     25          1           0        4.998099    1.827115    0.822674
     26          7           0        2.189961   -1.612071   -0.455416
     27          8           0        3.083606   -2.420901   -0.214936
     28          8           0        1.069131   -1.898354   -0.870650
 ---------------------------------------------------------------------

 SCF Done:  E(RHF) =  -868.339589082     A.U. after   16 cycles
 E2 =    -0.2601542761D+01 EUMP2 =    -0.87094113184232D+03

 The electronic state is 1-A.
 Alpha  occ. eigenvalues --  -20.61074 -20.61051 -20.60892 -20.60868 -15.86085
 Alpha  occ. eigenvalues --  -15.85924 -11.31232 -11.30921 -11.27798 -11.27707
 Alpha  occ. eigenvalues --  -11.27491 -11.27442 -11.27426 -11.26990 -11.26762
 Alpha  occ. eigenvalues --  -11.26629 -11.26328 -11.26232  -1.60143  -1.59981
 Alpha  occ. eigenvalues --   -1.39699  -1.39537  -1.19378  -1.19043  -1.08813
 Alpha  occ. eigenvalues --   -1.08465  -1.04735  -1.04379  -0.95690  -0.95373
 Alpha  occ. eigenvalues --   -0.86137  -0.85789  -0.82522  -0.82226  -0.77600
 Alpha  occ. eigenvalues --   -0.77349  -0.72340  -0.72135  -0.71466  -0.71334
 Alpha  occ. eigenvalues --   -0.70469  -0.70084  -0.65023  -0.64712  -0.64673
 Alpha  occ. eigenvalues --   -0.64363  -0.62080  -0.61752  -0.55241  -0.54812
 Alpha  occ. eigenvalues --   -0.53109  -0.52968  -0.52512  -0.52463  -0.49088
 Alpha  occ. eigenvalues --   -0.49071  -0.48915  -0.48862  -0.45156  -0.45019
 Alpha  occ. eigenvalues --   -0.37378  -0.36842  -0.36402  -0.35864
 Alpha virt. eigenvalues --    0.04840   0.05198   0.11273   0.11736   0.16378
 Alpha virt. eigenvalues --    0.16860   0.21467   0.21902   0.27181   0.27748
 Alpha virt. eigenvalues --    0.28206   0.28790   0.31105   0.31524   0.32252

 Mulliken charges:
               1
     1  C   -0.151670
     2  C   -0.208235
     3  C   -0.174139
     4  C    0.148770
     5  C   -0.175825
     6  C   -0.220152
     7  H    0.230705
     8  H    0.226108
     9  H    0.273956
    10  H    0.271622
    11  H    0.222409
    12  N    0.486077
    13  O   -0.466175
    14  O   -0.460802
    15  C   -0.170717
    16  C   -0.221300
    17  C   -0.173576
    18  C    0.155406
    19  C   -0.172142
    20  C   -0.219133
    21  H    0.227786
    22  H    0.234290
    23  H    0.277960
    24  H    0.273980
    25  H    0.223170
    26  N    0.488292
    27  O   -0.462854
    28  O   -0.463809
 Sum of Mulliken charges =  -0.00000

 Dipole moment (field-independent basis, Debye):
    X=              2.3829    Y=             -0.1362    Z=              1.9489  Tot=              3.0814
 Quadrupole moment (field-independent basis, Debye-Ang):
   XX=           -103.0431   YY=           -107.7822   ZZ=           -101.5394
   XY=             26.0452   XZ=              2.3945   YZ=             -0.7159

 Normal termination of Gaussian 16 at Thu May  6 03:22:04 2021.
