 Gaussian 16, Revision A.03,
 Gaussian 16:  EM64L-G16RevA.03 25-Dec-2016

 -------------
 #p 6-31g* mp2
 -------------

 ------------------------------------------------------
 Input file generated by CHIRIPA (05-May-2021 14:53:12)
 ------------------------------------------------------
 Symbolic Z-matrix:
 Charge =  0 Multiplicity = 1

                         Standard orientation:
 ---------------------------------------------------------------------
 Center     Atomic      Atomic             Coordinates (Angstroms)
 Number     Number       Type             X           Y           Z
 ---------------------------------------------------------------------
      1          6           0        4.732524   -0.214799    0.172309
      2          6           0        4.644671   -1.741016    0.202821
      3          6           0        5.996127   -2.405789    0.466331
      4          1           0        5.449660    0.089431   -0.602355
      5          1           0        5.136933    0.141456    1.129874
      6          1           0        4.239251   -2.094200   -0.754003
      7          1           0        3.927517   -2.041642    0.977372
      8          1           0        6.403534   -2.081811    1.429482
      9          1           0        6.717039   -2.134667   -0.311731
     10          1           0        5.910254   -3.496740    0.483987
     11          6           0        3.389461    0.464200   -0.090122
     12          6           0        3.477313    1.990416   -0.120634
     13          6           0        2.125857    2.655189   -0.384144
     14          1           0        2.985052    0.107945   -1.047687
     15          1           0        2.672324    0.159970    0.684542
     16          1           0        4.194467    2.291043   -0.895185
     17          1           0        3.882733    2.343601    0.836190
     18          1           0        1.404945    2.384068    0.393918
     19          1           0        1.718450    2.331211   -1.347294
     20          1           0        2.211730    3.746140   -0.401800
     21          6           0       -5.460288   -1.120778    0.260093
     22          6           0       -5.100028    0.010776    0.999227
     23          6           0       -3.835201    0.586202    0.845452
     24          6           0       -2.951490    0.001512   -0.060353
     25          6           0       -3.280923   -1.125867   -0.811204
     26          6           0       -4.551189   -1.684495   -0.641174
     27          1           0       -6.444948   -1.561258    0.385863
     28          1           0       -5.804006    0.450698    1.699889
     29          1           0       -3.530267    1.462227    1.404929
     30          1           0       -2.557675   -1.541945   -1.502009
     31          1           0       -4.828242   -2.563273   -1.216530
     32          7           0       -1.609596    0.601797   -0.231752
     33          8           0       -0.849185    0.067724   -1.036226
     34          8           0       -1.343638    1.595008    0.441625
 ---------------------------------------------------------------------

 SCF Done:  E(RHF) =  -669.536183607     A.U. after   15 cycles
 E2 =    -0.2091478885D+01 EUMP2 =    -0.67162766249234D+03

 The electronic state is 1-A.
 Alpha  occ. eigenvalues --  -20.60983 -20.60978 -15.86003 -11.31321 -11.27880
 Alpha  occ. eigenvalues --  -11.27876 -11.27615 -11.26884 -11.26875 -11.20744
 Alpha  occ. eigenvalues --  -11.20401 -11.20313 -11.20051 -11.19903 -11.18904
 Alpha  occ. eigenvalues --   -1.60030  -1.39587  -1.19485  -1.08890  -1.07196
 Alpha  occ. eigenvalues --   -1.04880  -1.02236  -0.95734  -0.94653  -0.86281
 Alpha  occ. eigenvalues --   -0.85659  -0.82567  -0.78358  -0.77620  -0.76909
 Alpha  occ. eigenvalues --   -0.72217  -0.71344  -0.70593  -0.65140  -0.64882
 Alpha  occ. eigenvalues --   -0.63845  -0.62227  -0.59646  -0.58132  -0.56259
 Alpha  occ. eigenvalues --   -0.55381  -0.53940  -0.53212  -0.52971  -0.51388
 Alpha  occ. eigenvalues --   -0.51088  -0.49073  -0.48977  -0.48474  -0.46558
 Alpha  occ. eigenvalues --   -0.45406  -0.45001  -0.44410  -0.44352  -0.42502
 Alpha  occ. eigenvalues --   -0.37464  -0.36480
 Alpha virt. eigenvalues --    0.04905   0.11175   0.16406   0.21312   0.23979
 Alpha virt. eigenvalues --    0.25660   0.27230   0.27857   0.28182   0.28680
 Alpha virt. eigenvalues --    0.29446   0.30895   0.32375   0.32730   0.32807

 Mulliken charges:
               1
     1  C   -0.297635
     2  C   -0.298276
     3  C   -0.474878
     4  H    0.146580
     5  H    0.146154
     6  H    0.151584
     7  H    0.150586
     8  H    0.153649
     9  H    0.153877
    10  H    0.156997
    11  C   -0.295706
    12  C   -0.300524
    13  C   -0.478397
    14  H    0.154472
    15  H    0.151589
    16  H    0.144617
    17  H    0.145060
    18  H    0.176666
    19  H    0.159906
    20  H    0.147949
    21  C   -0.170553
    22  C   -0.218553
    23  C   -0.170802
    24  C    0.158198
    25  C   -0.170711
    26  C   -0.218580
    27  H    0.226075
    28  H    0.223901
    29  H    0.275843
    30  H    0.275887
    31  H    0.223912
    32  N    0.488874
    33  O   -0.458835
    34  O   -0.458927
 Sum of Mulliken charges =  -0.00000

 Dipole moment (field-independent basis, Debye):
    X=             -5.1882    Y=             -2.1483    Z=              0.5818  Tot=              5.6455
 Quadrupole moment (field-independent basis, Debye-Ang):
   XX=            -69.6859   YY=            -93.7794   ZZ=            -92.0563
   XY=              5.8798   XZ=             -2.9283   YZ=              3.2156

 Normal termination of Gaussian 16 at Wed May  5 15:27:52 2021.
