 Gaussian 16, Revision A.03,
 Gaussian 16:  EM64L-G16RevA.03 25-Dec-2016

 -------------
 #p 6-31g* mp2
 -------------

 ------------------------------------------------------
 Input file generated by CHIRIPA (05-May-2021 14:57:21)
 ------------------------------------------------------
 Symbolic Z-matrix:
 Charge =  0 Multiplicity = 1

                         Standard orientation:
 ---------------------------------------------------------------------
 Center     Atomic      Atomic             Coordinates (Angstroms)
 Number     Number       Type             X           Y           Z
 ---------------------------------------------------------------------
      1          6           0        1.909166    1.868733    0.497828
      2          6           0        2.942155    2.216341   -0.378883
      3          6           0        3.997362    1.331301   -0.619283
      4          6           0        3.987743    0.101427    0.036924
      5          6           0        2.973015   -0.273855    0.916004
      6          6           0        1.927860    0.626934    1.141339
      7          1           0        1.093360    2.562371    0.678726
      8          1           0        2.930250    3.180058   -0.880035
      9          1           0        4.809831    1.574860   -1.293070
     10          1           0        3.012409   -1.241710    1.400899
     11          1           0        1.126964    0.354300    1.822722
     12          7           0        5.099522   -0.843862   -0.209603
     13          8           0        5.067809   -1.921326    0.380908
     14          8           0        5.981597   -0.489416   -0.988673
     15          6           0       -1.439178   -1.132968   -0.012729
     16          6           0       -2.510538   -2.020585   -0.157101
     17          6           0       -3.825247   -1.546550   -0.194272
     18          6           0       -4.033179   -0.172558   -0.083821
     19          6           0       -2.986767    0.737023    0.061007
     20          6           0       -1.680286    0.240581    0.095673
     21          1           0       -0.421076   -1.509912    0.015174
     22          1           0       -2.326277   -3.087808   -0.241513
     23          1           0       -4.673197   -2.211455   -0.305170
     24          1           0       -3.201917    1.795532    0.142768
     25          1           0       -0.850197    0.932249    0.207886
     26          7           0       -5.420648    0.341142   -0.121847
     27          8           0       -5.577269    1.556149   -0.022526
     28          8           0       -6.325250   -0.480954   -0.250253
 ---------------------------------------------------------------------

 SCF Done:  E(RHF) =  -868.336509887     A.U. after   16 cycles
 E2 =    -0.2601756706D+01 EUMP2 =    -0.87093826659307D+03

 The electronic state is 1-A.
 Alpha  occ. eigenvalues --  -20.61619 -20.61608 -20.61210 -20.61199 -15.86676
 Alpha  occ. eigenvalues --  -15.86264 -11.32253 -11.31710 -11.28878 -11.28784
 Alpha  occ. eigenvalues --  -11.28664 -11.28339 -11.28261 -11.28035 -11.27961
 Alpha  occ. eigenvalues --  -11.27843 -11.27354 -11.27267  -1.60687  -1.60281
 Alpha  occ. eigenvalues --   -1.40235  -1.39832  -1.20454  -1.19895  -1.09831
 Alpha  occ. eigenvalues --   -1.09269  -1.05879  -1.05318  -0.96621  -0.96091
 Alpha  occ. eigenvalues --   -0.87307  -0.86686  -0.83441  -0.82926  -0.78443
 Alpha  occ. eigenvalues --   -0.77967  -0.72890  -0.72481  -0.72014  -0.71605
 Alpha  occ. eigenvalues --   -0.71600  -0.70996  -0.66172  -0.65993  -0.65538
 Alpha  occ. eigenvalues --   -0.65201  -0.63209  -0.62631  -0.56426  -0.55788
 Alpha  occ. eigenvalues --   -0.54240  -0.53972  -0.53614  -0.53349  -0.49664
 Alpha  occ. eigenvalues --   -0.49632  -0.49245  -0.49230  -0.45593  -0.45220
 Alpha  occ. eigenvalues --   -0.38445  -0.37880  -0.37469  -0.36925
 Alpha virt. eigenvalues --    0.04028   0.04579   0.10014   0.10653   0.15356
 Alpha virt. eigenvalues --    0.16047   0.19158   0.22025   0.25159   0.25918
 Alpha virt. eigenvalues --    0.28218   0.28765   0.29555   0.31051   0.31817

 Mulliken charges:
               1
     1  C   -0.176222
     2  C   -0.217658
     3  C   -0.169222
     4  C    0.160167
     5  C   -0.174509
     6  C   -0.225777
     7  H    0.225013
     8  H    0.228437
     9  H    0.279712
    10  H    0.277172
    11  H    0.226538
    12  N    0.487915
    13  O   -0.459022
    14  O   -0.456673
    15  C   -0.175717
    16  C   -0.218062
    17  C   -0.170068
    18  C    0.159218
    19  C   -0.172237
    20  C   -0.223364
    21  H    0.227043
    22  H    0.226527
    23  H    0.277650
    24  H    0.274342
    25  H    0.219740
    26  N    0.488086
    27  O   -0.460557
    28  O   -0.458472
 Sum of Mulliken charges =  -0.00000

 Dipole moment (field-independent basis, Debye):
    X=              1.2150    Y=              1.4788    Z=              0.8941  Tot=              2.1124
 Quadrupole moment (field-independent basis, Debye-Ang):
   XX=           -173.3808   YY=            -97.0169   ZZ=           -104.0918
   XY=             23.4031   XZ=              0.9485   YZ=             -1.5591

 Normal termination of Gaussian 16 at Thu May  6 16:10:26 2021.
