 Gaussian 16, Revision A.03,
 Gaussian 16:  EM64L-G16RevA.03 25-Dec-2016

 -------------
 #p 6-31g* mp2
 -------------

 ------------------------------------------------------
 Input file generated by CHIRIPA (05-May-2021 14:51:13)
 ------------------------------------------------------
 Symbolic Z-matrix:
 Charge =  0 Multiplicity = 1

                         Standard orientation:
 ---------------------------------------------------------------------
 Center     Atomic      Atomic             Coordinates (Angstroms)
 Number     Number       Type             X           Y           Z
 ---------------------------------------------------------------------
      1          6           0        1.014571    1.919692    0.313232
      2          6           0        0.342986    2.797546   -0.743334
      3          6           0       -0.789345    3.650445   -0.170461
      4          1           0        0.259270    1.267854    0.773202
      5          1           0        1.406260    2.559302    1.116272
      6          1           0       -0.046104    2.156579   -1.544824
      7          1           0        1.100009    3.447236   -1.200977
      8          1           0       -0.412673    4.313509    0.615074
      9          1           0       -1.565298    3.015519    0.269273
     10          1           0       -1.255454    4.270129   -0.942856
     11          6           0        2.148585    1.061175   -0.244162
     12          6           0        2.820170    0.183321    0.812404
     13          6           0        3.952501   -0.669577    0.239532
     14          1           0        1.756896    0.421565   -1.047202
     15          1           0        2.903886    1.713014   -0.704132
     16          1           0        2.063147   -0.466368    1.270047
     17          1           0        3.209260    0.824289    1.613894
     18          1           0        4.728454   -0.034651   -0.200203
     19          1           0        3.575829   -1.332641   -0.546004
     20          1           0        4.418611   -1.289261    1.011927
     21          6           0       -2.334821   -1.429034    0.076306
     22          6           0       -2.818711    0.018742    0.164524
     23          6           0       -4.327764    0.125189    0.386384
     24          1           0       -2.863867   -1.936556   -0.741910
     25          1           0       -2.608637   -1.956774    1.000380
     26          1           0       -2.542845    0.543965   -0.758869
     27          1           0       -2.288313    0.522930    0.982501
     28          1           0       -4.616477   -0.373968    1.317023
     29          1           0       -4.872454   -0.352813   -0.434243
     30          1           0       -4.652095    1.168774    0.446397
     31          6           0       -0.828335   -1.551834   -0.145376
     32          6           0       -0.344445   -2.999610   -0.233594
     33          6           0        1.164607   -3.106058   -0.455454
     34          1           0       -0.554519   -1.024094   -1.069450
     35          1           0       -0.299289   -1.044312    0.672839
     36          1           0       -0.874843   -3.503798   -1.051572
     37          1           0       -0.620312   -3.524834    0.689798
     38          1           0        1.709298   -2.628055    0.365171
     39          1           0        1.453320   -2.606900   -1.386093
     40          1           0        1.488939   -4.149642   -0.515467
 ---------------------------------------------------------------------

 SCF Done:  E(RHF) =  -470.729972972     A.U. after   11 cycles
 E2 =    -0.1588313114D+01 EUMP2 =    -0.47231828608600D+03

 The electronic state is 1-A.
 Alpha  occ. eigenvalues --  -11.21710 -11.21673 -11.21517 -11.21516 -11.21500
 Alpha  occ. eigenvalues --  -11.21440 -11.21276 -11.21206 -11.21148 -11.21089
 Alpha  occ. eigenvalues --  -11.20958 -11.20911  -1.08605  -1.08274  -1.03691
 Alpha  occ. eigenvalues --   -1.03382  -0.96152  -0.95808  -0.87124  -0.86869
 Alpha  occ. eigenvalues --   -0.79719  -0.79517  -0.78491  -0.78090  -0.65314
 Alpha  occ. eigenvalues --   -0.64858  -0.61241  -0.60819  -0.59362  -0.59220
 Alpha  occ. eigenvalues --   -0.57814  -0.57498  -0.55479  -0.55036  -0.52759
 Alpha  occ. eigenvalues --   -0.52580  -0.52492  -0.52202  -0.50012  -0.49830
 Alpha  occ. eigenvalues --   -0.48229  -0.47543  -0.46980  -0.46703  -0.46326
 Alpha  occ. eigenvalues --   -0.46086  -0.45305  -0.44771  -0.43869  -0.43668
 Alpha virt. eigenvalues --    0.20310   0.21597   0.23432   0.23881   0.24926
 Alpha virt. eigenvalues --    0.25573   0.26793   0.28190   0.29121   0.29440
 Alpha virt. eigenvalues --    0.30054   0.31434   0.31686   0.31982   0.32655

 Mulliken charges:
               1
     1  C   -0.304928
     2  C   -0.299178
     3  C   -0.480647
     4  H    0.157165
     5  H    0.148543
     6  H    0.151097
     7  H    0.151532
     8  H    0.154445
     9  H    0.161019
    10  H    0.159295
    11  C   -0.300054
    12  C   -0.304629
    13  C   -0.481055
    14  H    0.152210
    15  H    0.149555
    16  H    0.153502
    17  H    0.152092
    18  H    0.154888
    19  H    0.162388
    20  H    0.158847
    21  C   -0.297723
    22  C   -0.305370
    23  C   -0.476287
    24  H    0.150046
    25  H    0.149691
    26  H    0.154650
    27  H    0.154488
    28  H    0.155528
    29  H    0.155652
    30  H    0.161111
    31  C   -0.306339
    32  C   -0.299655
    33  C   -0.482361
    34  H    0.150895
    35  H    0.155898
    36  H    0.151952
    37  H    0.151871
    38  H    0.164633
    39  H    0.154462
    40  H    0.160775
 Sum of Mulliken charges =  -0.00000

 Dipole moment (field-independent basis, Debye):
    X=             -0.0567    Y=             -0.0764    Z=              0.0014  Tot=              0.0952
 Quadrupole moment (field-independent basis, Debye-Ang):
   XX=            -86.2580   YY=            -84.9173   ZZ=            -83.8291
   XY=              1.1967   XZ=              0.5991   YZ=             -0.0859

 Normal termination of Gaussian 16 at Thu May  6 07:10:07 2021.
