 Gaussian 16, Revision A.03,
 Gaussian 16:  EM64L-G16RevA.03 25-Dec-2016

 -------------
 #p 6-31g* mp2
 -------------

 ------------------------------------------------------
 Input file generated by CHIRIPA (05-May-2021 14:51:10)
 ------------------------------------------------------
 Symbolic Z-matrix:
 Charge =  0 Multiplicity = 1

                         Standard orientation:
 ---------------------------------------------------------------------
 Center     Atomic      Atomic             Coordinates (Angstroms)
 Number     Number       Type             X           Y           Z
 ---------------------------------------------------------------------
      1          6           0       -3.101137    0.763861    0.091387
      2          6           0       -2.914813    2.098479   -0.631151
      3          6           0       -3.109959    3.302288    0.291105
      4          1           0       -4.106674    0.730314    0.532653
      5          1           0       -2.390718    0.705268    0.927609
      6          1           0       -3.624428    2.153947   -1.466606
      7          1           0       -1.909671    2.128774   -1.070911
      8          1           0       -2.392796    3.274463    1.117848
      9          1           0       -4.117296    3.299778    0.719904
     10          1           0       -2.972186    4.245947   -0.245910
     11          6           0       -2.909233   -0.448996   -0.817392
     12          6           0       -3.095558   -1.783614   -0.094854
     13          6           0       -2.900411   -2.987423   -1.017110
     14          1           0       -3.619652   -0.390403   -1.653614
     15          1           0       -1.903696   -0.415449   -1.258658
     16          1           0       -4.100699   -1.813909    0.344906
     17          1           0       -2.385942   -1.839082    0.740601
     18          1           0       -1.893075   -2.984913   -1.445909
     19          1           0       -3.617575   -2.959598   -1.843852
     20          1           0       -3.038185   -3.931082   -0.480095
     21          6           0        2.442536    0.021392    0.847646
     22          6           0        1.471021   -1.131854    1.100956
     23          6           0        0.350980   -0.758683    2.072576
     24          1           0        2.876930    0.343265    1.804017
     25          1           0        1.884566    0.881590    0.452522
     26          1           0        2.030869   -1.990083    1.494184
     27          1           0        1.039034   -1.451146    0.143848
     28          1           0       -0.232660    0.081770    1.683213
     29          1           0        0.764811   -0.460231    3.041221
     30          1           0       -0.331894   -1.597570    2.239343
     31          6           0        3.567835   -0.336258   -0.121641
     32          6           0        4.539349    0.816989   -0.374951
     33          6           0        5.659390    0.443818   -1.346571
     34          1           0        4.125805   -1.196455    0.273484
     35          1           0        3.133440   -0.658130   -1.078012
     36          1           0        4.971336    1.136281    0.582157
     37          1           0        3.979501    1.675219   -0.768180
     38          1           0        5.245560    0.145366   -2.315215
     39          1           0        6.243030   -0.396634   -0.957207
     40          1           0        6.342265    1.282705   -1.513339
 ---------------------------------------------------------------------

 SCF Done:  E(RHF) =  -470.732874023     A.U. after   11 cycles
 E2 =    -0.1583771994D+01 EUMP2 =    -0.47231664601727D+03

 The electronic state is 1-A.
 Alpha  occ. eigenvalues --  -11.21695 -11.21643 -11.21609 -11.21538 -11.21472
 Alpha  occ. eigenvalues --  -11.21409 -11.21382 -11.21317 -11.21162 -11.21102
 Alpha  occ. eigenvalues --  -11.21078 -11.21053  -1.08504  -1.08409  -1.03603
 Alpha  occ. eigenvalues --   -1.03513  -0.96058  -0.95963  -0.87074  -0.86984
 Alpha  occ. eigenvalues --   -0.79672  -0.79578  -0.78323  -0.78210  -0.65280
 Alpha  occ. eigenvalues --   -0.64938  -0.61023  -0.60909  -0.59441  -0.59303
 Alpha  occ. eigenvalues --   -0.57695  -0.57548  -0.55466  -0.55142  -0.52778
 Alpha  occ. eigenvalues --   -0.52645  -0.52522  -0.52351  -0.50057  -0.49874
 Alpha  occ. eigenvalues --   -0.48039  -0.47848  -0.46772  -0.46589  -0.45894
 Alpha  occ. eigenvalues --   -0.45823  -0.45735  -0.45482  -0.43831  -0.43762
 Alpha virt. eigenvalues --    0.19730   0.23241   0.23318   0.24928   0.25972
 Alpha virt. eigenvalues --    0.26052   0.27235   0.27845   0.28014   0.29050
 Alpha virt. eigenvalues --    0.30440   0.30870   0.31812   0.32104   0.32388

 Mulliken charges:
               1
     1  C   -0.305203
     2  C   -0.299521
     3  C   -0.475609
     4  H    0.149940
     5  H    0.156152
     6  H    0.152103
     7  H    0.150884
     8  H    0.154904
     9  H    0.155440
    10  H    0.160219
    11  C   -0.297770
    12  C   -0.305729
    13  C   -0.475571
    14  H    0.149527
    15  H    0.148822
    16  H    0.151636
    17  H    0.158988
    18  H    0.154728
    19  H    0.155055
    20  H    0.160036
    21  C   -0.298558
    22  C   -0.300397
    23  C   -0.483233
    24  H    0.150066
    25  H    0.149285
    26  H    0.152582
    27  H    0.152149
    28  H    0.160019
    29  H    0.155944
    30  H    0.162524
    31  C   -0.298351
    32  C   -0.299727
    33  C   -0.475758
    34  H    0.149778
    35  H    0.149634
    36  H    0.152064
    37  H    0.151985
    38  H    0.155266
    39  H    0.155271
    40  H    0.160424
 Sum of Mulliken charges =  -0.00000

 Dipole moment (field-independent basis, Debye):
    X=              0.0290    Y=             -0.0040    Z=              0.0356  Tot=              0.0461
 Quadrupole moment (field-independent basis, Debye-Ang):
   XX=            -84.1836   YY=            -85.6904   ZZ=            -84.8515
   XY=             -0.0123   XZ=              1.3020   YZ=             -0.8905

 Normal termination of Gaussian 16 at Wed May  5 15:12:00 2021.
