 Gaussian 16, Revision A.03,
 Gaussian 16:  EM64L-G16RevA.03 25-Dec-2016

 -------------
 #p 6-31g* mp2
 -------------

 ------------------------------------------------------
 Input file generated by CHIRIPA (05-May-2021 14:51:07)
 ------------------------------------------------------
 Symbolic Z-matrix:
 Charge =  0 Multiplicity = 1

                         Standard orientation:
 ---------------------------------------------------------------------
 Center     Atomic      Atomic             Coordinates (Angstroms)
 Number     Number       Type             X           Y           Z
 ---------------------------------------------------------------------
      1          6           0       -3.019311   -0.607644   -0.028613
      2          6           0       -2.020436   -0.831605    1.107202
      3          6           0       -0.889659   -1.785340    0.720515
      4          1           0       -3.441652   -1.575066   -0.333027
      5          1           0       -2.486175   -0.210184   -0.903362
      6          1           0       -2.555524   -1.227223    1.980004
      7          1           0       -1.600565    0.136484    1.409077
      8          1           0       -0.330361   -1.392966   -0.134956
      9          1           0       -1.290745   -2.764422    0.439215
     10          1           0       -0.187207   -1.931213    1.547039
     11          6           0       -4.155607    0.343512    0.342683
     12          6           0       -5.154482    0.567473   -0.793132
     13          6           0       -6.285259    1.521208   -0.406445
     14          1           0       -4.688743   -0.053948    1.217432
     15          1           0       -3.733265    1.310934    0.647097
     16          1           0       -5.574352   -0.400616   -1.095007
     17          1           0       -4.619393    0.963091   -1.665934
     18          1           0       -5.884172    2.500290   -0.125145
     19          1           0       -6.844556    1.128834    0.449026
     20          1           0       -6.987710    1.667081   -1.232969
     21          6           0        3.788916   -0.598475   -0.252724
     22          6           0        2.595376   -1.550351   -0.338641
     23          6           0        3.014534   -3.008246   -0.530057
     24          1           0        4.390532   -0.691470   -1.167248
     25          1           0        4.436073   -0.907245    0.579889
     26          1           0        1.949942   -1.239049   -1.169978
     27          1           0        1.996427   -1.454939    0.576111
     28          1           0        3.640226   -3.341895    0.304084
     29          1           0        3.593478   -3.124778   -1.451928
     30          1           0        2.145791   -3.671331   -0.588914
     31          6           0        3.386001    0.862607   -0.061346
     32          6           0        4.579541    1.814482    0.024571
     33          6           0        4.160383    3.272378    0.215987
     34          1           0        2.738845    1.171377   -0.893959
     35          1           0        2.784386    0.955602    0.853178
     36          1           0        5.178491    1.719071   -0.890181
     37          1           0        5.224975    1.503181    0.855908
     38          1           0        3.581440    3.388909    1.137858
     39          1           0        3.534692    3.606026   -0.618154
     40          1           0        5.029127    3.935462    0.274844
 ---------------------------------------------------------------------

 SCF Done:  E(RHF) =  -470.731681447     A.U. after   11 cycles
 E2 =    -0.1583458589D+01 EUMP2 =    -0.47231514003599D+03

 The electronic state is 1-A.
 Alpha  occ. eigenvalues --  -11.21594 -11.21594 -11.21559 -11.21451 -11.21390
 Alpha  occ. eigenvalues --  -11.21376 -11.21331 -11.21294 -11.21074 -11.21065
 Alpha  occ. eigenvalues --  -11.20997 -11.20952  -1.08425  -1.08378  -1.03560
 Alpha  occ. eigenvalues --   -1.03437  -0.96007  -0.95896  -0.87031  -0.86917
 Alpha  occ. eigenvalues --   -0.79767  -0.79400  -0.78283  -0.78136  -0.65057
 Alpha  occ. eigenvalues --   -0.65018  -0.60966  -0.60878  -0.59427  -0.59220
 Alpha  occ. eigenvalues --   -0.57614  -0.57525  -0.55258  -0.55218  -0.52719
 Alpha  occ. eigenvalues --   -0.52595  -0.52374  -0.52365  -0.49981  -0.49870
 Alpha  occ. eigenvalues --   -0.47984  -0.47761  -0.46641  -0.46549  -0.45843
 Alpha  occ. eigenvalues --   -0.45733  -0.45675  -0.45475  -0.43770  -0.43665
 Alpha virt. eigenvalues --    0.22144   0.23102   0.23689   0.24747   0.25797
 Alpha virt. eigenvalues --    0.26635   0.26884   0.27595   0.27935   0.29240
 Alpha virt. eigenvalues --    0.29821   0.31154   0.31294   0.32022   0.32264

 Mulliken charges:
               1
     1  C   -0.298531
     2  C   -0.299804
     3  C   -0.479688
     4  H    0.149563
     5  H    0.149407
     6  H    0.151364
     7  H    0.151665
     8  H    0.163171
     9  H    0.153916
    10  H    0.159424
    11  C   -0.298264
    12  C   -0.299623
    13  C   -0.475694
    14  H    0.149506
    15  H    0.149662
    16  H    0.151895
    17  H    0.151842
    18  H    0.155185
    19  H    0.155167
    20  H    0.160206
    21  C   -0.297480
    22  C   -0.303743
    23  C   -0.476705
    24  H    0.148931
    25  H    0.149022
    26  H    0.150139
    27  H    0.159888
    28  H    0.154617
    29  H    0.154634
    30  H    0.161545
    31  C   -0.298250
    32  C   -0.299489
    33  C   -0.475675
    34  H    0.148719
    35  H    0.149238
    36  H    0.151997
    37  H    0.151961
    38  H    0.155039
    39  H    0.154973
    40  H    0.160267
 Sum of Mulliken charges =  -0.00000

 Dipole moment (field-independent basis, Debye):
    X=             -0.0058    Y=             -0.0133    Z=              0.0043  Tot=              0.0152
 Quadrupole moment (field-independent basis, Debye-Ang):
   XX=            -85.5386   YY=            -85.8333   ZZ=            -83.7093
   XY=              1.1706   XZ=              0.0498   YZ=             -0.6408

 Normal termination of Gaussian 16 at Thu May  6 00:28:50 2021.
