 Gaussian 16, Revision A.03,
 Gaussian 16:  EM64L-G16RevA.03 25-Dec-2016

 -------------
 #p 6-31g* mp2
 -------------

 ------------------------------------------------------
 Input file generated by CHIRIPA (05-May-2021 14:55:23)
 ------------------------------------------------------
 Symbolic Z-matrix:
 Charge =  0 Multiplicity = 1

                         Standard orientation:
 ---------------------------------------------------------------------
 Center     Atomic      Atomic             Coordinates (Angstroms)
 Number     Number       Type             X           Y           Z
 ---------------------------------------------------------------------
      1          6           0        5.692922   -0.106161    0.187154
      2          6           0        4.927824    1.046305   -0.020131
      3          6           0        3.538602    0.961982   -0.152414
      4          6           0        2.944665   -0.296606   -0.071889
      5          6           0        3.679665   -1.463104    0.133899
      6          6           0        5.067504   -1.354986    0.263373
      7          1           0        6.771566   -0.031415    0.288824
      8          1           0        5.410834    2.017487   -0.079748
      9          1           0        2.922212    1.838065   -0.313536
     10          1           0        3.169736   -2.417237    0.188857
     11          1           0        5.659165   -2.251696    0.424285
     12          7           0        1.474690   -0.398471   -0.210444
     13          8           0        0.975443   -1.519098   -0.135727
     14          8           0        0.849605    0.644245   -0.391137
     15          6           0       -4.222896   -0.389794    0.004822
     16          6           0       -5.711715   -0.729240    0.083433
     17          6           0       -5.983020   -2.229368   -0.034058
     18          1           0       -3.817726   -0.763820   -0.945382
     19          1           0       -3.689596   -0.923473    0.803679
     20          1           0       -6.242250   -0.193994   -0.714477
     21          1           0       -6.113430   -0.354193    1.033477
     22          1           0       -5.479517   -2.776036    0.769832
     23          1           0       -5.609069   -2.614927   -0.988054
     24          1           0       -7.053501   -2.449553    0.024653
     25          6           0       -3.935658    1.106128    0.120754
     26          6           0       -2.446838    1.445573    0.042142
     27          6           0       -2.175534    2.945701    0.159634
     28          1           0       -4.468958    1.639806   -0.678103
     29          1           0       -4.340827    1.480153    1.070958
     30          1           0       -2.045123    1.070527   -0.907901
     31          1           0       -1.916304    0.910327    0.840053
     32          1           0       -2.549485    3.331260    1.113629
     33          1           0       -2.679036    3.492369   -0.644256
     34          1           0       -1.105052    3.165886    0.100923
 ---------------------------------------------------------------------

 SCF Done:  E(RHF) =  -669.535738982     A.U. after   15 cycles
 E2 =    -0.2091525088D+01 EUMP2 =    -0.67162726407035D+03

 The electronic state is 1-A.
 Alpha  occ. eigenvalues --  -20.60964 -20.60956 -15.85994 -11.31316 -11.27880
 Alpha  occ. eigenvalues --  -11.27875 -11.27615 -11.26885 -11.26875 -11.20607
 Alpha  occ. eigenvalues --  -11.20213 -11.20097 -11.19961 -11.19672 -11.19596
 Alpha  occ. eigenvalues --   -1.60023  -1.39579  -1.19484  -1.08888  -1.07086
 Alpha  occ. eigenvalues --   -1.04880  -1.02191  -0.95731  -0.94713  -0.86280
 Alpha  occ. eigenvalues --   -0.85747  -0.82565  -0.78268  -0.77618  -0.76805
 Alpha  occ. eigenvalues --   -0.72204  -0.71339  -0.70592  -0.65139  -0.64882
 Alpha  occ. eigenvalues --   -0.63737  -0.62227  -0.59608  -0.58088  -0.56262
 Alpha  occ. eigenvalues --   -0.55380  -0.54044  -0.53211  -0.52971  -0.51436
 Alpha  occ. eigenvalues --   -0.51125  -0.49026  -0.48964  -0.48704  -0.46524
 Alpha  occ. eigenvalues --   -0.45338  -0.44986  -0.44314  -0.44243  -0.42452
 Alpha  occ. eigenvalues --   -0.37462  -0.36481
 Alpha virt. eigenvalues --    0.04900   0.11174   0.16394   0.21281   0.24087
 Alpha virt. eigenvalues --    0.25488   0.27210   0.27961   0.28031   0.28910
 Alpha virt. eigenvalues --    0.29205   0.30825   0.32116   0.32616   0.33001

 Mulliken charges:
               1
     1  C   -0.170590
     2  C   -0.218516
     3  C   -0.170756
     4  C    0.157612
     5  C   -0.170619
     6  C   -0.218576
     7  H    0.226072
     8  H    0.223930
     9  H    0.275512
    10  H    0.275905
    11  H    0.223884
    12  N    0.490752
    13  O   -0.458965
    14  O   -0.460690
    15  C   -0.296659
    16  C   -0.298603
    17  C   -0.474745
    18  H    0.151876
    19  H    0.151551
    20  H    0.149157
    21  H    0.148993
    22  H    0.154790
    23  H    0.154930
    24  H    0.156296
    25  C   -0.299806
    26  C   -0.290316
    27  C   -0.477631
    28  H    0.143524
    29  H    0.143130
    30  H    0.163265
    31  H    0.157123
    32  H    0.146822
    33  H    0.147743
    34  H    0.163608
 Sum of Mulliken charges =  -0.00000

 Dipole moment (field-independent basis, Debye):
    X=              5.6120    Y=              0.2279    Z=              0.4340  Tot=              5.6334
 Quadrupole moment (field-independent basis, Debye-Ang):
   XX=            -66.7558   YY=            -91.8478   ZZ=            -94.7096
   XY=             -0.8017   XZ=              1.3727   YZ=             -1.1279

 Normal termination of Gaussian 16 at Wed May  5 19:06:01 2021.
