 Gaussian 16, Revision A.03,
 Gaussian 16:  EM64L-G16RevA.03 25-Dec-2016

 -------------
 #p 6-31g* mp2
 -------------

 ------------------------------------------------------
 Input file generated by CHIRIPA (05-May-2021 14:57:25)
 ------------------------------------------------------
 Symbolic Z-matrix:
 Charge =  0 Multiplicity = 1

                         Standard orientation:
 ---------------------------------------------------------------------
 Center     Atomic      Atomic             Coordinates (Angstroms)
 Number     Number       Type             X           Y           Z
 ---------------------------------------------------------------------
      1          6           0       -1.515773    1.823746    0.284725
      2          6           0       -2.404307    2.070811   -0.766934
      3          6           0       -3.543935    1.278536   -0.934553
      4          6           0       -3.765122    0.242940   -0.027961
      5          6           0       -2.898623   -0.028247    1.029832
      6          6           0       -1.765327    0.776851    1.178176
      7          1           0       -0.632942    2.444184    0.407449
      8          1           0       -2.213039    2.883154   -1.462319
      9          1           0       -4.248369    1.447720   -1.739889
     10          1           0       -3.116039   -0.845293    1.707020
     11          1           0       -1.077015    0.582662    1.995833
     12          7           0       -4.968244   -0.602593   -0.195209
     13          8           0       -5.140525   -1.508822    0.617013
     14          8           0       -5.716188   -0.343083   -1.135353
     15          6           0        5.573995    1.123115   -0.265998
     16          6           0        4.651462    1.361147    0.758109
     17          6           0        3.535700    0.533519    0.915130
     18          6           0        3.372789   -0.527832    0.026151
     19          6           0        4.274283   -0.790857   -1.004099
     20          6           0        5.382798    0.049765   -1.142288
     21          1           0        6.437931    1.771083   -0.380661
     22          1           0        4.797396    2.193979    1.440118
     23          1           0        2.805935    0.694969    1.699218
     24          1           0        4.101928   -1.628916   -1.668456
     25          1           0        6.097618   -0.137487   -1.938539
     26          7           0        2.195417   -1.410883    0.182414
     27          8           0        2.074586   -2.339308   -0.613868
     28          8           0        1.415718   -1.157873    1.098215
 ---------------------------------------------------------------------

 SCF Done:  E(RHF) =  -868.338327421     A.U. after   16 cycles
 E2 =    -0.2599266725D+01 EUMP2 =    -0.87093759414638D+03

 The electronic state is 1-A.
 Alpha  occ. eigenvalues --  -20.61510 -20.61462 -20.60080 -20.60064 -15.86535
 Alpha  occ. eigenvalues --  -15.85122 -11.31867 -11.30405 -11.28478 -11.28380
 Alpha  occ. eigenvalues --  -11.28129 -11.27447 -11.27385 -11.26992 -11.26864
 Alpha  occ. eigenvalues --  -11.26730 -11.26063 -11.25857  -1.60546  -1.59149
 Alpha  occ. eigenvalues --   -1.40108  -1.38705  -1.20026  -1.18559  -1.09420
 Alpha  occ. eigenvalues --   -1.07991  -1.05426  -1.03934  -0.96266  -0.94842
 Alpha  occ. eigenvalues --   -0.86822  -0.85352  -0.83105  -0.81662  -0.78165
 Alpha  occ. eigenvalues --   -0.76707  -0.72763  -0.71862  -0.71347  -0.71127
 Alpha  occ. eigenvalues --   -0.70466  -0.69725  -0.65681  -0.65421  -0.64221
 Alpha  occ. eigenvalues --   -0.63936  -0.62779  -0.61279  -0.55907  -0.54518
 Alpha  occ. eigenvalues --   -0.53754  -0.53514  -0.52280  -0.52029  -0.49526
 Alpha  occ. eigenvalues --   -0.49485  -0.48105  -0.48096  -0.45516  -0.44129
 Alpha  occ. eigenvalues --   -0.37992  -0.37032  -0.36565  -0.35496
 Alpha virt. eigenvalues --    0.04364   0.05803   0.10620   0.12130   0.15878
 Alpha virt. eigenvalues --    0.17322   0.20594   0.22098   0.26451   0.27217
 Alpha virt. eigenvalues --    0.28462   0.28905   0.30493   0.31521   0.32055

 Mulliken charges:
               1
     1  C   -0.173034
     2  C   -0.218382
     3  C   -0.172516
     4  C    0.158583
     5  C   -0.169640
     6  C   -0.208328
     7  H    0.217866
     8  H    0.218783
     9  H    0.272725
    10  H    0.276994
    11  H    0.230871
    12  N    0.488199
    13  O   -0.459949
    14  O   -0.463299
    15  C   -0.170642
    16  C   -0.218444
    17  C   -0.172839
    18  C    0.159331
    19  C   -0.170493
    20  C   -0.218209
    21  H    0.227571
    22  H    0.223739
    23  H    0.269624
    24  H    0.277907
    25  H    0.225940
    26  N    0.490393
    27  O   -0.454315
    28  O   -0.468437
 Sum of Mulliken charges =  -0.00000

 Dipole moment (field-independent basis, Debye):
    X=              8.6972    Y=              5.8906    Z=              0.0503  Tot=             10.5045
 Quadrupole moment (field-independent basis, Debye-Ang):
   XX=           -109.0451   YY=           -105.0114   ZZ=            -99.1535
   XY=             -3.2312   XZ=             -4.9693   YZ=              0.5585

 Normal termination of Gaussian 16 at Thu May  6 19:40:02 2021.
