 Gaussian 16, Revision A.03,
 Gaussian 16:  EM64L-G16RevA.03 25-Dec-2016

 -------------
 #p 6-31g* mp2
 -------------

 ------------------------------------------------------
 Input file generated by CHIRIPA (05-May-2021 14:55:18)
 ------------------------------------------------------
 Symbolic Z-matrix:
 Charge =  0 Multiplicity = 1

                         Standard orientation:
 ---------------------------------------------------------------------
 Center     Atomic      Atomic             Coordinates (Angstroms)
 Number     Number       Type             X           Y           Z
 ---------------------------------------------------------------------
      1          6           0       -4.246496    2.110392    0.200162
      2          6           0       -3.066417    1.977307    0.939231
      3          6           0       -2.300660    0.811008    0.850284
      4          6           0       -2.746569   -0.206900    0.008668
      5          6           0       -3.917777   -0.104267   -0.740351
      6          6           0       -4.667667    1.071013   -0.635796
      7          1           0       -4.835191    3.019889    0.275320
      8          1           0       -2.736898    2.782870    1.589255
      9          1           0       -1.383082    0.681540    1.411271
     10          1           0       -4.220640   -0.924495   -1.379818
     11          1           0       -5.583712    1.171597   -1.210939
     12          7           0       -1.944296   -1.446362   -0.093758
     13          8           0       -2.358770   -2.328616   -0.842407
     14          8           0       -0.916191   -1.512128    0.576549
     15          6           0        3.566429    0.757874   -0.043090
     16          6           0        4.819220    1.563600   -0.388496
     17          6           0        4.566335    3.071433   -0.405324
     18          1           0        2.776511    0.990531   -0.770308
     19          1           0        3.191728    1.078736    0.938766
     20          1           0        5.192239    1.240343   -1.368790
     21          1           0        5.606309    1.328854    0.339517
     22          1           0        4.215967    3.414237    0.573619
     23          1           0        3.799545    3.325222   -1.144394
     24          1           0        5.475100    3.628162   -0.654440
     25          6           0        3.803283   -0.751164   -0.022314
     26          6           0        2.550492   -1.556889    0.323091
     27          6           0        2.803377   -3.064722    0.339920
     28          1           0        4.177984   -1.072026   -1.004171
     29          1           0        4.593201   -0.983820    0.704904
     30          1           0        1.763403   -1.322143   -0.404921
     31          1           0        2.177473   -1.233632    1.303385
     32          1           0        3.570167   -3.318512    1.078990
     33          1           0        3.153745   -3.407526   -0.639023
     34          1           0        1.894613   -3.621451    0.589037
 ---------------------------------------------------------------------

 SCF Done:  E(RHF) =  -669.535833371     A.U. after   15 cycles
 E2 =    -0.2091358137D+01 EUMP2 =    -0.67162719150798D+03

 The electronic state is 1-A.
 Alpha  occ. eigenvalues --  -20.60933 -20.60909 -15.85948 -11.31277 -11.27842
 Alpha  occ. eigenvalues --  -11.27835 -11.27580 -11.26849 -11.26839 -11.21197
 Alpha  occ. eigenvalues --  -11.20841 -11.20820 -11.20469 -11.20164 -11.19689
 Alpha  occ. eigenvalues --   -1.59987  -1.39542  -1.19446  -1.08851  -1.07662
 Alpha  occ. eigenvalues --   -1.04842  -1.02665  -0.95694  -0.95167  -0.86242
 Alpha  occ. eigenvalues --   -0.86200  -0.82529  -0.78805  -0.77617  -0.77327
 Alpha  occ. eigenvalues --   -0.72166  -0.71301  -0.70554  -0.65101  -0.64845
 Alpha  occ. eigenvalues --   -0.64310  -0.62189  -0.60077  -0.58586  -0.56702
 Alpha  occ. eigenvalues --   -0.55347  -0.54499  -0.53175  -0.52933  -0.51841
 Alpha  occ. eigenvalues --   -0.51591  -0.49171  -0.48937  -0.48929  -0.47100
 Alpha  occ. eigenvalues --   -0.45887  -0.45225  -0.44864  -0.44526  -0.42931
 Alpha  occ. eigenvalues --   -0.37425  -0.36444
 Alpha virt. eigenvalues --    0.04932   0.11211   0.16414   0.21304   0.23492
 Alpha virt. eigenvalues --    0.25147   0.27055   0.27410   0.27774   0.28694
 Alpha virt. eigenvalues --    0.28782   0.30908   0.32006   0.32259   0.32864

 Mulliken charges:
               1
     1  C   -0.170624
     2  C   -0.218547
     3  C   -0.170701
     4  C    0.157701
     5  C   -0.170802
     6  C   -0.218606
     7  H    0.225959
     8  H    0.223925
     9  H    0.276165
    10  H    0.275749
    11  H    0.223727
    12  N    0.490140
    13  O   -0.459709
    14  O   -0.460411
    15  C   -0.296283
    16  C   -0.298685
    17  C   -0.475037
    18  H    0.147611
    19  H    0.145425
    20  H    0.151799
    21  H    0.151382
    22  H    0.152662
    23  H    0.153431
    24  H    0.159025
    25  C   -0.299134
    26  C   -0.293505
    27  C   -0.478162
    28  H    0.146879
    29  H    0.145744
    30  H    0.161775
    31  H    0.150605
    32  H    0.147160
    33  H    0.149968
    34  H    0.173375
 Sum of Mulliken charges =  -0.00000

 Dipole moment (field-independent basis, Debye):
    X=             -3.1339    Y=              4.2648    Z=              0.3657  Tot=              5.3050
 Quadrupole moment (field-independent basis, Debye-Ang):
   XX=            -78.5302   YY=            -97.8163   ZZ=            -92.2315
   XY=            -10.2756   XZ=              1.7139   YZ=              1.5477

 Normal termination of Gaussian 16 at Wed May  5 17:19:26 2021.
