 Gaussian 16, Revision A.03,
 Gaussian 16:  EM64L-G16RevA.03 25-Dec-2016

 -------------
 #p 6-31g* mp2
 -------------

 ------------------------------------------------------
 Input file generated by CHIRIPA (05-May-2021 14:57:24)
 ------------------------------------------------------
 Symbolic Z-matrix:
 Charge =  0 Multiplicity = 1

                         Standard orientation:
 ---------------------------------------------------------------------
 Center     Atomic      Atomic             Coordinates (Angstroms)
 Number     Number       Type             X           Y           Z
 ---------------------------------------------------------------------
      1          6           0        3.653422    2.303698   -0.088378
      2          6           0        4.515739    1.206849    0.010884
      3          6           0        4.024686   -0.096048   -0.115102
      4          6           0        2.659658   -0.266309   -0.340936
      5          6           0        1.775172    0.806173   -0.444645
      6          6           0        2.288297    2.100218   -0.315426
      7          1           0        4.043457    3.312382    0.010746
      8          1           0        5.576368    1.361871    0.187177
      9          1           0        4.669905   -0.963135   -0.042501
     10          1           0        0.722678    0.619993   -0.620752
     11          1           0        1.616267    2.950164   -0.392959
     12          7           0        2.128119   -1.640943   -0.476023
     13          8           0        0.921480   -1.764226   -0.674673
     14          8           0        2.928201   -2.569069   -0.380697
     15          6           0       -4.278102    0.629502   -1.598265
     16          6           0       -3.878067    1.617425   -0.692450
     17          6           0       -3.030096    1.302065    0.373402
     18          6           0       -2.599267   -0.017261    0.503995
     19          6           0       -2.980248   -1.023842   -0.381974
     20          6           0       -3.828708   -0.685660   -1.440415
     21          1           0       -4.937017    0.883345   -2.423366
     22          1           0       -4.225508    2.639629   -0.812572
     23          1           0       -2.704887    2.047216    1.089229
     24          1           0       -2.617420   -2.034055   -0.236231
     25          1           0       -4.137755   -1.454955   -2.142355
     26          7           0       -1.701300   -0.363199    1.628442
     27          8           0       -1.335653   -1.532931    1.721543
     28          8           0       -1.380121    0.541937    2.395391
 ---------------------------------------------------------------------

 SCF Done:  E(RHF) =  -868.337619792     A.U. after   16 cycles
 E2 =    -0.2601268708D+01 EUMP2 =    -0.87093888850011D+03

 The electronic state is 1-A.
 Alpha  occ. eigenvalues --  -20.60442 -20.60297 -20.60262 -20.60214 -15.85409
 Alpha  occ. eigenvalues --  -15.85286 -11.30922 -11.30699 -11.27600 -11.27384
 Alpha  occ. eigenvalues --  -11.27311 -11.27291 -11.27272 -11.27050 -11.26607
 Alpha  occ. eigenvalues --  -11.26465 -11.26332 -11.26315  -1.59447  -1.59289
 Alpha  occ. eigenvalues --   -1.38989  -1.38847  -1.19112  -1.18876  -1.08486
 Alpha  occ. eigenvalues --   -1.08266  -1.04517  -1.04301  -0.95292  -0.95098
 Alpha  occ. eigenvalues --   -0.85907  -0.85705  -0.82114  -0.81938  -0.77149
 Alpha  occ. eigenvalues --   -0.76967  -0.71668  -0.71533  -0.70839  -0.70490
 Alpha  occ. eigenvalues --   -0.70198  -0.70014  -0.64751  -0.64549  -0.64509
 Alpha  occ. eigenvalues --   -0.64328  -0.61841  -0.61669  -0.55024  -0.54821
 Alpha  occ. eigenvalues --   -0.52870  -0.52602  -0.52597  -0.52409  -0.48427
 Alpha  occ. eigenvalues --   -0.48386  -0.48292  -0.48249  -0.44635  -0.43920
 Alpha  occ. eigenvalues --   -0.37119  -0.36851  -0.36125  -0.35887
 Alpha virt. eigenvalues --    0.05352   0.05626   0.11513   0.11756   0.16797
 Alpha virt. eigenvalues --    0.17107   0.21607   0.21760   0.27366   0.27609
 Alpha virt. eigenvalues --    0.28436   0.28624   0.30972   0.31300   0.32501

 Mulliken charges:
               1
     1  C   -0.170706
     2  C   -0.218279
     3  C   -0.170314
     4  C    0.161659
     5  C   -0.166192
     6  C   -0.216293
     7  H    0.223745
     8  H    0.222037
     9  H    0.275000
    10  H    0.269483
    11  H    0.220383
    12  N    0.490625
    13  O   -0.461463
    14  O   -0.461358
    15  C   -0.171324
    16  C   -0.219740
    17  C   -0.177598
    18  C    0.153222
    19  C   -0.163692
    20  C   -0.219676
    21  H    0.224496
    22  H    0.220558
    23  H    0.271808
    24  H    0.286417
    25  H    0.225194
    26  N    0.486868
    27  O   -0.445026
    28  O   -0.469833
 Sum of Mulliken charges =  -0.00000

 Dipole moment (field-independent basis, Debye):
    X=             -1.2800    Y=              5.6776    Z=             -3.4637  Tot=              6.7729
 Quadrupole moment (field-independent basis, Debye-Ang):
   XX=            -75.2631   YY=           -102.7584   ZZ=           -110.3406
   XY=              7.9733   XZ=             10.5149   YZ=              0.1589

 Normal termination of Gaussian 16 at Wed May  5 19:28:07 2021.
