 Gaussian 16, Revision A.03,
 Gaussian 16:  EM64L-G16RevA.03 25-Dec-2016

 -------------
 #p 6-31g* mp2
 -------------

 ------------------------------------------------------
 Input file generated by CHIRIPA (05-May-2021 14:51:14)
 ------------------------------------------------------
 Symbolic Z-matrix:
 Charge =  0 Multiplicity = 1

                         Standard orientation:
 ---------------------------------------------------------------------
 Center     Atomic      Atomic             Coordinates (Angstroms)
 Number     Number       Type             X           Y           Z
 ---------------------------------------------------------------------
      1          6           0        2.505649   -0.161291    0.695110
      2          6           0        2.036085    0.950998    1.633358
      3          6           0        0.671475    0.660096    2.258666
      4          1           0        1.759418   -0.301974   -0.098799
      5          1           0        2.550898   -1.107039    1.252701
      6          1           0        1.993064    1.894635    1.074507
      7          1           0        2.783614    1.089180    2.425016
      8          1           0        0.703903   -0.266981    2.840111
      9          1           0       -0.091139    0.543050    1.481929
     10          1           0        0.355090    1.468043    2.925735
     11          6           0        3.868314    0.115017    0.062237
     12          6           0        4.337878   -0.997271   -0.876011
     13          6           0        5.702488   -0.706369   -1.501319
     14          1           0        3.823065    1.060765   -0.495354
     15          1           0        4.614546    0.255701    0.856145
     16          1           0        3.590349   -1.135454   -1.667669
     17          1           0        4.380899   -1.940909   -0.317161
     18          1           0        6.465102   -0.589324   -0.724582
     19          1           0        5.670060    0.220707   -2.082764
     20          1           0        6.018873   -1.514316   -2.168389
     21          6           0       -3.690359   -0.551344   -0.382572
     22          6           0       -3.105579   -1.873349    0.115744
     23          6           0       -4.124728   -3.013060    0.102045
     24          1           0       -4.553228   -0.281064    0.241408
     25          1           0       -4.073635   -0.689489   -1.403067
     26          1           0       -2.722273   -1.732392    1.134481
     27          1           0       -2.243885   -2.140415   -0.509376
     28          1           0       -4.499610   -3.182454   -0.912534
     29          1           0       -4.980715   -2.772113    0.740662
     30          1           0       -3.685571   -3.948677    0.462077
     31          6           0       -2.683604    0.597618   -0.374774
     32          6           0       -3.268384    1.919622   -0.873091
     33          6           0       -2.249235    3.059333   -0.859391
     34          1           0       -2.300329    0.735762    0.645721
     35          1           0       -1.820735    0.327338   -0.998756
     36          1           0       -4.130078    2.186689   -0.247971
     37          1           0       -3.651691    1.778666   -1.891827
     38          1           0       -1.393249    2.818387   -1.498009
     39          1           0       -1.874354    3.228728    0.155187
     40          1           0       -2.688392    3.994950   -1.219423
 ---------------------------------------------------------------------

 SCF Done:  E(RHF) =  -470.733268311     A.U. after   11 cycles
 E2 =    -0.1582937887D+01 EUMP2 =    -0.47231620619793D+03

 The electronic state is 1-A.
 Alpha  occ. eigenvalues --  -11.21632 -11.21599 -11.21590 -11.21552 -11.21428
 Alpha  occ. eigenvalues --  -11.21377 -11.21367 -11.21317 -11.21102 -11.21069
 Alpha  occ. eigenvalues --  -11.21063 -11.20973  -1.08459  -1.08396  -1.03548
 Alpha  occ. eigenvalues --   -1.03493  -0.96006  -0.95940  -0.87027  -0.86955
 Alpha  occ. eigenvalues --   -0.79627  -0.79551  -0.78315  -0.78174  -0.65105
 Alpha  occ. eigenvalues --   -0.65015  -0.60964  -0.60876  -0.59365  -0.59315
 Alpha  occ. eigenvalues --   -0.57662  -0.57515  -0.55344  -0.55189  -0.52696
 Alpha  occ. eigenvalues --   -0.52642  -0.52495  -0.52308  -0.50007  -0.49848
 Alpha  occ. eigenvalues --   -0.47976  -0.47853  -0.46717  -0.46593  -0.45918
 Alpha  occ. eigenvalues --   -0.45752  -0.45697  -0.45414  -0.43804  -0.43754
 Alpha virt. eigenvalues --    0.21572   0.23166   0.23804   0.24756   0.25660
 Alpha virt. eigenvalues --    0.25911   0.27079   0.27842   0.28173   0.29293
 Alpha virt. eigenvalues --    0.31266   0.31422   0.31600   0.32002   0.32032

 Mulliken charges:
               1
     1  C   -0.298397
     2  C   -0.299021
     3  C   -0.484179
     4  H    0.149663
     5  H    0.149460
     6  H    0.152109
     7  H    0.151542
     8  H    0.154539
     9  H    0.164462
    10  H    0.158825
    11  C   -0.298328
    12  C   -0.299572
    13  C   -0.475684
    14  H    0.149500
    15  H    0.149639
    16  H    0.151654
    17  H    0.151923
    18  H    0.155203
    19  H    0.155153
    20  H    0.160159
    21  C   -0.297593
    22  C   -0.300388
    23  C   -0.475680
    24  H    0.149744
    25  H    0.149481
    26  H    0.153022
    27  H    0.151812
    28  H    0.155107
    29  H    0.155204
    30  H    0.160384
    31  C   -0.305007
    32  C   -0.299003
    33  C   -0.476460
    34  H    0.156807
    35  H    0.148647
    36  H    0.152133
    37  H    0.151962
    38  H    0.154557
    39  H    0.156090
    40  H    0.160533
 Sum of Mulliken charges =  -0.00000

 Dipole moment (field-independent basis, Debye):
    X=             -0.0398    Y=             -0.0002    Z=             -0.0038  Tot=              0.0399
 Quadrupole moment (field-independent basis, Debye-Ang):
   XX=            -85.8136   YY=            -85.3713   ZZ=            -83.6131
   XY=             -0.9520   XZ=              0.5848   YZ=             -0.0857

 Normal termination of Gaussian 16 at Thu May  6 05:37:26 2021.
