 Gaussian 16, Revision A.03,
 Gaussian 16:  EM64L-G16RevA.03 25-Dec-2016

 -------------
 #p 6-31g* mp2
 -------------

 ------------------------------------------------------
 Input file generated by CHIRIPA (05-May-2021 14:55:24)
 ------------------------------------------------------
 Symbolic Z-matrix:
 Charge =  0 Multiplicity = 1

                         Standard orientation:
 ---------------------------------------------------------------------
 Center     Atomic      Atomic             Coordinates (Angstroms)
 Number     Number       Type             X           Y           Z
 ---------------------------------------------------------------------
      1          6           0        5.358221   -0.831177   -0.955987
      2          6           0        4.835609   -1.585792    0.099453
      3          6           0        3.629291   -1.220437    0.704318
      4          6           0        2.969005   -0.089566    0.226362
      5          6           0        3.464038    0.682695   -0.823326
      6          6           0        4.671977    0.298666   -1.413202
      7          1           0        6.295947   -1.122246   -1.420039
      8          1           0        5.366387   -2.463722    0.456605
      9          1           0        3.202063   -1.786618    1.523057
     10          1           0        2.912093    1.552810   -1.157503
     11          1           0        5.075471    0.886599   -2.232698
     12          7           0        1.691072    0.307103    0.858771
     13          8           0        1.128641    1.307665    0.419243
     14          8           0        1.276058   -0.390060    1.782007
     15          6           0       -3.713237    0.811873   -0.438767
     16          6           0       -2.689735    1.414914    0.523922
     17          6           0       -1.984501    2.641641   -0.055367
     18          1           0       -3.209071    0.538348   -1.375755
     19          1           0       -4.458721    1.576803   -0.696704
     20          1           0       -1.947190    0.648673    0.781052
     21          1           0       -3.196360    1.686859    1.458799
     22          1           0       -2.710058    3.425596   -0.295333
     23          1           0       -1.453789    2.381511   -0.976931
     24          1           0       -1.257202    3.056693    0.649352
     25          6           0       -4.426599   -0.415222    0.126107
     26          6           0       -5.450100   -1.018263   -0.836583
     27          6           0       -6.155335   -2.244990   -0.257294
     28          1           0       -3.681115   -1.180151    0.384043
     29          1           0       -4.930765   -0.141697    1.063094
     30          1           0       -4.943475   -1.290207   -1.771459
     31          1           0       -6.192647   -0.252021   -1.093712
     32          1           0       -6.686047   -1.984860    0.664270
     33          1           0       -5.429778   -3.028945   -0.017328
     34          1           0       -6.882634   -2.660041   -0.962013
 ---------------------------------------------------------------------

 SCF Done:  E(RHF) =  -669.536173330     A.U. after   15 cycles
 E2 =    -0.2091573665D+01 EUMP2 =    -0.67162774699451D+03

 The electronic state is 1-A.
 Alpha  occ. eigenvalues --  -20.61020 -20.61011 -15.86032 -11.31340 -11.27899
 Alpha  occ. eigenvalues --  -11.27896 -11.27633 -11.26901 -11.26891 -11.20847
 Alpha  occ. eigenvalues --  -11.20450 -11.20391 -11.20167 -11.19879 -11.19250
 Alpha  occ. eigenvalues --   -1.60070  -1.39626  -1.19505  -1.08914  -1.07298
 Alpha  occ. eigenvalues --   -1.04898  -1.02304  -0.95761  -0.94771  -0.86300
 Alpha  occ. eigenvalues --   -0.85812  -0.82588  -0.78439  -0.77645  -0.77031
 Alpha  occ. eigenvalues --   -0.72252  -0.71383  -0.70613  -0.65161  -0.64901
 Alpha  occ. eigenvalues --   -0.63938  -0.62244  -0.59701  -0.58216  -0.56346
 Alpha  occ. eigenvalues --   -0.55400  -0.54089  -0.53230  -0.52988  -0.51463
 Alpha  occ. eigenvalues --   -0.51221  -0.49011  -0.48984  -0.48730  -0.46731
 Alpha  occ. eigenvalues --   -0.45494  -0.45033  -0.44595  -0.44438  -0.42566
 Alpha  occ. eigenvalues --   -0.37484  -0.36498
 Alpha virt. eigenvalues --    0.04860   0.11158   0.16357   0.21285   0.23904
 Alpha virt. eigenvalues --    0.25570   0.27211   0.27699   0.28167   0.28598
 Alpha virt. eigenvalues --    0.29210   0.30881   0.32333   0.32644   0.32767

 Mulliken charges:
               1
     1  C   -0.170498
     2  C   -0.218617
     3  C   -0.170562
     4  C    0.157849
     5  C   -0.170881
     6  C   -0.218572
     7  H    0.226174
     8  H    0.223970
     9  H    0.275927
    10  H    0.276081
    11  H    0.224044
    12  N    0.490741
    13  O   -0.460351
    14  O   -0.459705
    15  C   -0.297525
    16  C   -0.302715
    17  C   -0.467107
    18  H    0.145675
    19  H    0.144670
    20  H    0.168358
    21  H    0.145886
    22  H    0.140841
    23  H    0.151535
    24  H    0.170784
    25  C   -0.297525
    26  C   -0.298541
    27  C   -0.474985
    28  H    0.150665
    29  H    0.148370
    30  H    0.149653
    31  H    0.150136
    32  H    0.154540
    33  H    0.154419
    34  H    0.157266
 Sum of Mulliken charges =  -0.00000

 Dipole moment (field-independent basis, Debye):
    X=              4.9402    Y=             -1.4263    Z=             -2.1193  Tot=              5.5616
 Quadrupole moment (field-independent basis, Debye-Ang):
   XX=            -69.9023   YY=            -92.6746   ZZ=            -94.3249
   XY=             -5.7855   XZ=             -6.0382   YZ=             -2.3679

 Normal termination of Gaussian 16 at Thu May  6 15:59:49 2021.
