 Gaussian 16, Revision A.03,
 Gaussian 16:  EM64L-G16RevA.03 25-Dec-2016

 -------------
 #p 6-31g* mp2
 -------------

 ------------------------------------------------------
 Input file generated by CHIRIPA (05-May-2021 14:51:14)
 ------------------------------------------------------
 Symbolic Z-matrix:
 Charge =  0 Multiplicity = 1

                         Standard orientation:
 ---------------------------------------------------------------------
 Center     Atomic      Atomic             Coordinates (Angstroms)
 Number     Number       Type             X           Y           Z
 ---------------------------------------------------------------------
      1          6           0       -2.471803   -0.905993    0.770299
      2          6           0       -0.998586   -1.152054    0.443079
      3          6           0       -0.263273   -1.901329    1.554698
      4          1           0       -2.542596   -0.336634    1.707190
      5          1           0       -2.965761   -1.870451    0.952564
      6          1           0       -0.507871   -0.187510    0.260128
      7          1           0       -0.931287   -1.720727   -0.493242
      8          1           0       -0.726547   -2.877069    1.733332
      9          1           0       -0.300726   -1.335141    2.490982
     10          1           0        0.788238   -2.066554    1.299974
     11          6           0       -3.220337   -0.157923   -0.331433
     12          6           0       -4.693554    0.088138   -0.004214
     13          6           0       -5.428867    0.837414   -1.115832
     14          1           0       -2.726379    0.806535   -0.513698
     15          1           0       -3.149544   -0.727281   -1.268324
     16          1           0       -4.760853    0.656812    0.932107
     17          1           0       -5.184269   -0.876405    0.178738
     18          1           0       -5.391414    0.271226   -2.052116
     19          1           0       -4.965592    1.813154   -1.294466
     20          1           0       -6.480378    1.002639   -0.861109
     21          6           0        2.747948   -0.121139   -0.603189
     22          6           0        3.794344   -1.184478   -0.268000
     23          6           0        3.584721   -2.485325   -1.043660
     24          1           0        1.747119   -0.520314   -0.388842
     25          1           0        2.777664    0.085299   -1.682029
     26          1           0        3.763611   -1.387844    0.810106
     27          1           0        4.792811   -0.782657   -0.482989
     28          1           0        3.636320   -2.303441   -2.122018
     29          1           0        2.601273   -2.912068   -0.821576
     30          1           0        4.343741   -3.231498   -0.788761
     31          6           0        2.944191    1.185054    0.164323
     32          6           0        1.897796    2.248392   -0.170866
     33          6           0        2.107419    3.549240    0.604795
     34          1           0        2.914476    0.978617    1.243164
     35          1           0        3.945022    1.584229   -0.050024
     36          1           0        0.899329    1.846572    0.044124
     37          1           0        1.928528    2.451760   -1.248972
     38          1           0        3.090867    3.975983    0.382710
     39          1           0        2.055820    3.367357    1.683153
     40          1           0        1.348399    4.295413    0.349895
 ---------------------------------------------------------------------

 SCF Done:  E(RHF) =  -470.732218833     A.U. after   11 cycles
 E2 =    -0.1584852140D+01 EUMP2 =    -0.47231707097300D+03

 The electronic state is 1-A.
 Alpha  occ. eigenvalues --  -11.21672 -11.21628 -11.21621 -11.21576 -11.21455
 Alpha  occ. eigenvalues --  -11.21391 -11.21364 -11.21247 -11.21170 -11.21093
 Alpha  occ. eigenvalues --  -11.21088 -11.21067  -1.08514  -1.08389  -1.03606
 Alpha  occ. eigenvalues --   -1.03524  -0.96057  -0.95959  -0.87061  -0.86984
 Alpha  occ. eigenvalues --   -0.79686  -0.79593  -0.78429  -0.78092  -0.65290
 Alpha  occ. eigenvalues --   -0.64955  -0.61063  -0.60912  -0.59422  -0.59304
 Alpha  occ. eigenvalues --   -0.57715  -0.57526  -0.55378  -0.55193  -0.52740
 Alpha  occ. eigenvalues --   -0.52673  -0.52485  -0.52380  -0.49994  -0.49903
 Alpha  occ. eigenvalues --   -0.48053  -0.47881  -0.46882  -0.46575  -0.46105
 Alpha  occ. eigenvalues --   -0.45792  -0.45719  -0.45140  -0.43844  -0.43762
 Alpha virt. eigenvalues --    0.20111   0.22330   0.23536   0.24619   0.25871
 Alpha virt. eigenvalues --    0.26688   0.26841   0.27681   0.27888   0.29774
 Alpha virt. eigenvalues --    0.30128   0.31315   0.31604   0.31854   0.32393

 Mulliken charges:
               1
     1  C   -0.297088
     2  C   -0.309887
     3  C   -0.481295
     4  H    0.149607
     5  H    0.149774
     6  H    0.159343
     7  H    0.152810
     8  H    0.156426
     9  H    0.155433
    10  H    0.164209
    11  C   -0.298550
    12  C   -0.299722
    13  C   -0.475746
    14  H    0.149541
    15  H    0.149972
    16  H    0.151974
    17  H    0.152028
    18  H    0.155272
    19  H    0.155309
    20  H    0.160342
    21  C   -0.310417
    22  C   -0.299894
    23  C   -0.477375
    24  H    0.164460
    25  H    0.148980
    26  H    0.151666
    27  H    0.152028
    28  H    0.155404
    29  H    0.155842
    30  H    0.160352
    31  C   -0.297605
    32  C   -0.305561
    33  C   -0.475375
    34  H    0.149259
    35  H    0.149625
    36  H    0.155980
    37  H    0.152304
    38  H    0.155515
    39  H    0.155088
    40  H    0.159974
 Sum of Mulliken charges =  -0.00000

 Dipole moment (field-independent basis, Debye):
    X=             -0.0373    Y=             -0.0071    Z=             -0.0050  Tot=              0.0383
 Quadrupole moment (field-independent basis, Debye-Ang):
   XX=            -84.9025   YY=            -85.1782   ZZ=            -84.7759
   XY=              0.7939   XZ=             -0.8140   YZ=              0.0261

 Normal termination of Gaussian 16 at Thu May  6 00:51:49 2021.
