 Gaussian 16, Revision A.03,
 Gaussian 16:  EM64L-G16RevA.03 25-Dec-2016

 -------------
 #p 6-31g* mp2
 -------------

 ------------------------------------------------------
 Input file generated by CHIRIPA (05-May-2021 14:53:17)
 ------------------------------------------------------
 Symbolic Z-matrix:
 Charge =  0 Multiplicity = 1

                         Standard orientation:
 ---------------------------------------------------------------------
 Center     Atomic      Atomic             Coordinates (Angstroms)
 Number     Number       Type             X           Y           Z
 ---------------------------------------------------------------------
      1          6           0        4.685822   -0.295356    0.173706
      2          6           0        5.416384    0.928565   -0.379721
      3          6           0        6.911146    0.681637   -0.585898
      4          1           0        5.145454   -0.588596    1.127484
      5          1           0        4.827341   -1.140338   -0.514316
      6          1           0        5.272376    1.771361    0.308445
      7          1           0        4.954837    1.219042   -1.332199
      8          1           0        7.072166   -0.141747   -1.289256
      9          1           0        7.391510    0.413710    0.360710
     10          1           0        7.413821    1.569456   -0.982071
     11          6           0        3.190663   -0.064087    0.385231
     12          6           0        2.460101   -1.288008    0.938658
     13          6           0        0.965340   -1.041080    1.144835
     14          1           0        3.049145    0.780894    1.073252
     15          1           0        2.731031    0.229153   -0.568548
     16          1           0        2.921649   -1.578485    1.891136
     17          1           0        2.604109   -2.130804    0.250492
     18          1           0        0.484976   -0.773153    0.198227
     19          1           0        0.804319   -0.217696    1.848192
     20          1           0        0.462664   -1.928900    1.541008
     21          6           0       -2.848727   -2.333194   -0.660174
     22          6           0       -3.949090   -1.848260    0.054363
     23          6           0       -4.085711   -0.479669    0.305045
     24          6           0       -3.098797    0.379546   -0.175619
     25          6           0       -1.990959   -0.073000   -0.890593
     26          6           0       -1.874890   -1.445582   -1.129543
     27          1           0       -2.750578   -3.397899   -0.850353
     28          1           0       -4.706923   -2.535266    0.420086
     29          1           0       -4.927411   -0.077245    0.855512
     30          1           0       -1.251746    0.636338   -1.242475
     31          1           0       -1.019269   -1.819358   -1.684745
     32          7           0       -3.232553    1.830524    0.083557
     33          8           0       -2.349374    2.566813   -0.350621
     34          8           0       -4.218037    2.204037    0.715969
 ---------------------------------------------------------------------

 SCF Done:  E(RHF) =  -669.533600777     A.U. after   15 cycles
 E2 =    -0.2092847299D+01 EUMP2 =    -0.67162644807604D+03

 The electronic state is 1-A.
 Alpha  occ. eigenvalues --  -20.60749 -20.60744 -15.85803 -11.31170 -11.27736
 Alpha  occ. eigenvalues --  -11.27723 -11.27474 -11.26759 -11.26749 -11.21885
 Alpha  occ. eigenvalues --  -11.21706 -11.21617 -11.21540 -11.21297 -11.21161
 Alpha  occ. eigenvalues --   -1.59824  -1.39378  -1.19351  -1.08742  -1.08634
 Alpha  occ. eigenvalues --   -1.04780  -1.03725  -0.96182  -0.95575  -0.87201
 Alpha  occ. eigenvalues --   -0.86154  -0.82426  -0.79798  -0.78442  -0.77460
 Alpha  occ. eigenvalues --   -0.72023  -0.71147  -0.70461  -0.65291  -0.65004
 Alpha  occ. eigenvalues --   -0.64771  -0.62162  -0.61117  -0.59545  -0.57790
 Alpha  occ. eigenvalues --   -0.55542  -0.55246  -0.53319  -0.52866  -0.52772
 Alpha  occ. eigenvalues --   -0.52453  -0.50098  -0.48782  -0.48776  -0.48104
 Alpha  occ. eigenvalues --   -0.46838  -0.45984  -0.45908  -0.44781  -0.43981
 Alpha  occ. eigenvalues --   -0.37325  -0.36221
 Alpha virt. eigenvalues --    0.05064   0.11266   0.16466   0.20674   0.22816
 Alpha virt. eigenvalues --    0.24098   0.26071   0.26963   0.27485   0.28131
 Alpha virt. eigenvalues --    0.28842   0.30580   0.31425   0.31761   0.32205

 Mulliken charges:
               1
     1  C   -0.298243
     2  C   -0.299918
     3  C   -0.475838
     4  H    0.150454
     5  H    0.147827
     6  H    0.154013
     7  H    0.151894
     8  H    0.154376
     9  H    0.155443
    10  H    0.161298
    11  C   -0.297747
    12  C   -0.300409
    13  C   -0.474772
    14  H    0.153834
    15  H    0.145831
    16  H    0.153378
    17  H    0.147158
    18  H    0.150042
    19  H    0.160196
    20  H    0.158148
    21  C   -0.172168
    22  C   -0.218437
    23  C   -0.171649
    24  C    0.157921
    25  C   -0.168800
    26  C   -0.213863
    27  H    0.225398
    28  H    0.223311
    29  H    0.275459
    30  H    0.275444
    31  H    0.223301
    32  N    0.488076
    33  O   -0.460443
    34  O   -0.460515
 Sum of Mulliken charges =  -0.00000

 Dipole moment (field-independent basis, Debye):
    X=              0.4731    Y=             -5.0725    Z=             -0.8614  Tot=              5.1668
 Quadrupole moment (field-independent basis, Debye-Ang):
   XX=            -95.2976   YY=            -99.1242   ZZ=            -92.9839
   XY=             17.3539   XZ=              0.8281   YZ=              0.4575

 Normal termination of Gaussian 16 at Thu May  6 18:57:18 2021.
