 Gaussian 16, Revision A.03,
 Gaussian 16:  EM64L-G16RevA.03 25-Dec-2016

 -------------
 #p 6-31g* mp2
 -------------

 ------------------------------------------------------
 Input file generated by CHIRIPA (05-May-2021 14:53:16)
 ------------------------------------------------------
 Symbolic Z-matrix:
 Charge =  0 Multiplicity = 1

                         Standard orientation:
 ---------------------------------------------------------------------
 Center     Atomic      Atomic             Coordinates (Angstroms)
 Number     Number       Type             X           Y           Z
 ---------------------------------------------------------------------
      1          6           0       -2.856939   -1.183665    0.149258
      2          6           0       -1.635754   -1.701202   -0.611563
      3          6           0       -1.072750   -2.992657   -0.017456
      4          1           0       -2.582734   -1.016591    1.199898
      5          1           0       -3.635952   -1.958606    0.148964
      6          1           0       -0.859796   -0.924990   -0.611020
      7          1           0       -1.912848   -1.866881   -1.660556
      8          1           0       -1.828109   -3.784998   -0.032576
      9          1           0       -0.769074   -2.837757    1.022923
     10          1           0       -0.200354   -3.344896   -0.576664
     11          6           0       -3.431157    0.106805   -0.432713
     12          6           0       -4.652342    0.624342    0.328108
     13          6           0       -5.215346    1.915797   -0.265999
     14          1           0       -2.652145    0.881746   -0.432418
     15          1           0       -3.705362   -0.060269   -1.483352
     16          1           0       -4.375248    0.790020    1.377101
     17          1           0       -5.428300   -0.151870    0.327566
     18          1           0       -5.519022    1.760896   -1.306377
     19          1           0       -4.459987    2.708138   -0.250879
     20          1           0       -6.087742    2.268036    0.293209
     21          6           0        2.814986   -2.076728    0.130011
     22          6           0        3.406478   -1.292256   -0.865611
     23          6           0        3.214576    0.092411   -0.886110
     24          6           0        2.421610    0.662086    0.108860
     25          6           0        1.818863   -0.092609    1.114058
     26          6           0        2.024460   -1.475461    1.114932
     27          1           0        2.969380   -3.151665    0.138313
     28          1           0        4.020905   -1.756491   -1.631777
     29          1           0        3.660641    0.723452   -1.645209
     30          1           0        1.211582    0.398798    1.864488
     31          1           0        1.563859   -2.082204    1.889368
     32          7           0        2.211203    2.127009    0.097546
     33          8           0        1.508200    2.604718    0.985364
     34          8           0        2.753272    2.769769   -0.798923
 ---------------------------------------------------------------------

 SCF Done:  E(RHF) =  -669.535084015     A.U. after   15 cycles
 E2 =    -0.2093036169D+01 EUMP2 =    -0.67162812018370D+03

 The electronic state is 1-A.
 Alpha  occ. eigenvalues --  -20.60832 -20.60826 -15.85886 -11.31264 -11.27816
 Alpha  occ. eigenvalues --  -11.27802 -11.27537 -11.26835 -11.26820 -11.21816
 Alpha  occ. eigenvalues --  -11.21587 -11.21539 -11.21516 -11.21331 -11.20885
 Alpha  occ. eigenvalues --   -1.59908  -1.39461  -1.19429  -1.08821  -1.08509
 Alpha  occ. eigenvalues --   -1.04834  -1.03630  -0.96107  -0.95651  -0.87138
 Alpha  occ. eigenvalues --   -0.86214  -0.82485  -0.79707  -0.78296  -0.77534
 Alpha  occ. eigenvalues --   -0.72102  -0.71232  -0.70523  -0.65175  -0.65075
 Alpha  occ. eigenvalues --   -0.64821  -0.62199  -0.61031  -0.59503  -0.57704
 Alpha  occ. eigenvalues --   -0.55476  -0.55291  -0.53157  -0.52942  -0.52729
 Alpha  occ. eigenvalues --   -0.52505  -0.50038  -0.48861  -0.48857  -0.48021
 Alpha  occ. eigenvalues --   -0.46727  -0.45852  -0.45741  -0.44864  -0.43888
 Alpha  occ. eigenvalues --   -0.37367  -0.36386
 Alpha virt. eigenvalues --    0.04970   0.11189   0.16391   0.20536   0.22949
 Alpha virt. eigenvalues --    0.24249   0.25830   0.26776   0.27277   0.28029
 Alpha virt. eigenvalues --    0.28863   0.29822   0.31389   0.31892   0.32399

 Mulliken charges:
               1
     1  C   -0.297729
     2  C   -0.302519
     3  C   -0.472452
     4  H    0.146418
     5  H    0.149128
     6  H    0.156620
     7  H    0.152969
     8  H    0.155714
     9  H    0.144987
    10  H    0.156444
    11  C   -0.299761
    12  C   -0.299555
    13  C   -0.476516
    14  H    0.154737
    15  H    0.149632
    16  H    0.152215
    17  H    0.150468
    18  H    0.154597
    19  H    0.159421
    20  H    0.160029
    21  C   -0.171693
    22  C   -0.218588
    23  C   -0.171047
    24  C    0.158814
    25  C   -0.174066
    26  C   -0.211761
    27  H    0.226298
    28  H    0.223786
    29  H    0.275798
    30  H    0.275349
    31  H    0.224977
    32  N    0.488021
    33  O   -0.460787
    34  O   -0.459950
 Sum of Mulliken charges =  -0.00000

 Dipole moment (field-independent basis, Debye):
    X=              0.7792    Y=             -5.0783    Z=             -0.0036  Tot=              5.1378
 Quadrupole moment (field-independent basis, Debye-Ang):
   XX=            -89.8626   YY=           -103.0127   ZZ=            -91.4343
   XY=            -11.4193   XZ=             -2.2463   YZ=             -0.2239

 Normal termination of Gaussian 16 at Thu May  6 01:09:43 2021.
