 Gaussian 16, Revision A.03,
 Gaussian 16:  EM64L-G16RevA.03 25-Dec-2016

 -------------
 #p 6-31g* mp2
 -------------

 ------------------------------------------------------
 Input file generated by CHIRIPA (05-May-2021 14:55:21)
 ------------------------------------------------------
 Symbolic Z-matrix:
 Charge =  0 Multiplicity = 1

                         Standard orientation:
 ---------------------------------------------------------------------
 Center     Atomic      Atomic             Coordinates (Angstroms)
 Number     Number       Type             X           Y           Z
 ---------------------------------------------------------------------
      1          6           0       -5.031822    0.728072   -0.732267
      2          6           0       -4.586733    1.148596    0.525341
      3          6           0       -3.348432    0.726200    1.018027
      4          6           0       -2.577458   -0.120415    0.222959
      5          6           0       -2.993307   -0.556739   -1.034013
      6          6           0       -4.235093   -0.121755   -1.506565
      7          1           0       -5.995117    1.061089   -1.107176
      8          1           0       -5.203372    1.808575    1.128855
      9          1           0       -2.979502    1.036450    1.988106
     10          1           0       -2.356365   -1.214725   -1.612612
     11          1           0       -4.578202   -0.449944   -2.483608
     12          7           0       -1.264679   -0.574250    0.733886
     13          8           0       -0.604233   -1.320047    0.014001
     14          8           0       -0.921028   -0.175576    1.844562
     15          6           0        3.572537   -0.604332    0.202156
     16          6           0        3.075197   -1.781582   -0.637322
     17          6           0        3.073901   -3.100448    0.136231
     18          1           0        4.587826   -0.821383    0.561354
     19          1           0        2.939446   -0.506251    1.094889
     20          1           0        3.708187   -1.876553   -1.528905
     21          1           0        2.061048   -1.561621   -0.994722
     22          1           0        2.427373   -3.029872    1.016924
     23          1           0        4.083871   -3.346593    0.479706
     24          1           0        2.714824   -3.928570   -0.482750
     25          6           0        3.579642    0.721113   -0.557362
     26          6           0        4.076981    1.898363    0.282115
     27          6           0        4.078277    3.217230   -0.491437
     28          1           0        4.212733    0.623033   -1.450094
     29          1           0        2.564354    0.938165   -0.916561
     30          1           0        5.091130    1.678403    0.639516
     31          1           0        3.443992    1.993334    1.173698
     32          1           0        3.068307    3.463375   -0.834913
     33          1           0        4.724806    3.146653   -1.372131
     34          1           0        4.437355    4.045352    0.127543
 ---------------------------------------------------------------------

 SCF Done:  E(RHF) =  -669.536471283     A.U. after   15 cycles
 E2 =    -0.2091275168D+01 EUMP2 =    -0.67162774645156D+03

 The electronic state is 1-A.
 Alpha  occ. eigenvalues --  -20.61068 -20.61060 -15.86091 -11.31368 -11.27925
 Alpha  occ. eigenvalues --  -11.27921 -11.27654 -11.26922 -11.26912 -11.20683
 Alpha  occ. eigenvalues --  -11.20389 -11.20272 -11.19966 -11.19905 -11.19544
 Alpha  occ. eigenvalues --   -1.60122  -1.39679  -1.19531  -1.08944  -1.07176
 Alpha  occ. eigenvalues --   -1.04921  -1.02297  -0.95793  -0.94790  -0.86323
 Alpha  occ. eigenvalues --   -0.85814  -0.82629  -0.78414  -0.77687  -0.76943
 Alpha  occ. eigenvalues --   -0.72316  -0.71433  -0.70639  -0.65189  -0.64924
 Alpha  occ. eigenvalues --   -0.63781  -0.62268  -0.59662  -0.58206  -0.56394
 Alpha  occ. eigenvalues --   -0.55426  -0.54066  -0.53255  -0.53011  -0.51528
 Alpha  occ. eigenvalues --   -0.51221  -0.49081  -0.49070  -0.48712  -0.46729
 Alpha  occ. eigenvalues --   -0.45460  -0.45114  -0.44485  -0.44282  -0.42560
 Alpha  occ. eigenvalues --   -0.37508  -0.36520
 Alpha virt. eigenvalues --    0.04822   0.11136   0.16315   0.21263   0.24070
 Alpha virt. eigenvalues --    0.25544   0.27198   0.27782   0.28269   0.28764
 Alpha virt. eigenvalues --    0.29126   0.30853   0.32284   0.32621   0.32886

 Mulliken charges:
               1
     1  C   -0.170426
     2  C   -0.218584
     3  C   -0.170516
     4  C    0.157515
     5  C   -0.170684
     6  C   -0.218539
     7  H    0.226306
     8  H    0.224091
     9  H    0.275947
    10  H    0.275875
    11  H    0.224151
    12  N    0.491201
    13  O   -0.462686
    14  O   -0.459448
    15  C   -0.299722
    16  C   -0.303288
    17  C   -0.474797
    18  H    0.142776
    19  H    0.161480
    20  H    0.141002
    21  H    0.171457
    22  H    0.165262
    23  H    0.146772
    24  H    0.154222
    25  C   -0.296941
    26  C   -0.299641
    27  C   -0.474691
    28  H    0.144565
    29  H    0.149659
    30  H    0.149663
    31  H    0.154862
    32  H    0.152843
    33  H    0.152988
    34  H    0.157327
 Sum of Mulliken charges =  -0.00000

 Dipole moment (field-independent basis, Debye):
    X=             -5.0408    Y=              1.5750    Z=             -1.6934  Tot=              5.5460
 Quadrupole moment (field-independent basis, Debye-Ang):
   XX=            -71.8924   YY=            -96.1236   ZZ=            -92.3847
   XY=             -4.3214   XZ=              3.1848   YZ=              3.6224

 Normal termination of Gaussian 16 at Thu May  6 20:44:19 2021.
