 Gaussian 16, Revision A.03,
 Gaussian 16:  EM64L-G16RevA.03 25-Dec-2016

 -------------
 #p 6-31g* mp2
 -------------

 ------------------------------------------------------
 Input file generated by CHIRIPA (05-May-2021 14:55:21)
 ------------------------------------------------------
 Symbolic Z-matrix:
 Charge =  0 Multiplicity = 1

                         Standard orientation:
 ---------------------------------------------------------------------
 Center     Atomic      Atomic             Coordinates (Angstroms)
 Number     Number       Type             X           Y           Z
 ---------------------------------------------------------------------
      1          6           0       -4.302789    1.126381   -0.998720
      2          6           0       -3.714702    0.028528   -1.635426
      3          6           0       -2.712188   -0.708645   -0.998174
      4          6           0       -2.320254   -0.318310    0.281402
      5          6           0       -2.886987    0.770614    0.941968
      6          6           0       -3.887786    1.493273    0.285680
      7          1           0       -5.080900    1.693398   -1.501146
      8          1           0       -4.035006   -0.258698   -2.632898
      9          1           0       -2.239977   -1.562884   -1.467972
     10          1           0       -2.546697    1.032775    1.936398
     11          1           0       -4.342727    2.345428    0.782577
     12          7           0       -1.259846   -1.091040    0.966108
     13          8           0       -0.932277   -0.726756    2.093332
     14          8           0       -0.776345   -2.046358    0.362592
     15          6           0        3.469427    0.919033   -0.444371
     16          6           0        2.920182    2.101063    0.355078
     17          6           0        3.481261    3.443778   -0.114073
     18          1           0        4.565094    0.908169   -0.364729
     19          1           0        3.234771    1.064037   -1.507999
     20          1           0        3.154598    1.953192    1.417057
     21          1           0        1.825684    2.109002    0.273680
     22          1           0        3.235133    3.617546   -1.166606
     23          1           0        4.571598    3.460851   -0.016732
     24          1           0        3.075368    4.274957    0.470952
     25          6           0        2.917831   -0.430188    0.012872
     26          6           0        3.467075   -1.612219   -0.786576
     27          6           0        2.905998   -2.954933   -0.317427
     28          1           0        3.152487   -0.575193    1.076501
     29          1           0        1.822165   -0.419325   -0.066771
     30          1           0        4.561574   -1.620158   -0.705179
     31          1           0        3.232661   -1.464347   -1.848555
     32          1           0        1.815661   -2.972005   -0.414767
     33          1           0        3.152125   -3.128701    0.735107
     34          1           0        3.311891   -3.786112   -0.902451
 ---------------------------------------------------------------------

 SCF Done:  E(RHF) =  -669.536132274     A.U. after   15 cycles
 E2 =    -0.2091929664D+01 EUMP2 =    -0.67162806193797D+03

 The electronic state is 1-A.
 Alpha  occ. eigenvalues --  -20.61012 -20.61006 -15.86036 -11.31341 -11.27902
 Alpha  occ. eigenvalues --  -11.27895 -11.27633 -11.26902 -11.26892 -11.21011
 Alpha  occ. eigenvalues --  -11.20662 -11.20631 -11.20504 -11.20253 -11.19538
 Alpha  occ. eigenvalues --   -1.60066  -1.39623  -1.19506  -1.08914  -1.07540
 Alpha  occ. eigenvalues --   -1.04899  -1.02622  -0.95759  -0.95053  -0.86300
 Alpha  occ. eigenvalues --   -0.86064  -0.82594  -0.78726  -0.77650  -0.77287
 Alpha  occ. eigenvalues --   -0.72260  -0.71381  -0.70613  -0.65163  -0.64900
 Alpha  occ. eigenvalues --   -0.64183  -0.62246  -0.60026  -0.58482  -0.56649
 Alpha  occ. eigenvalues --   -0.55402  -0.54334  -0.53233  -0.52989  -0.51785
 Alpha  occ. eigenvalues --   -0.51447  -0.49103  -0.49011  -0.48910  -0.47005
 Alpha  occ. eigenvalues --   -0.45794  -0.45177  -0.44808  -0.44539  -0.42881
 Alpha  occ. eigenvalues --   -0.37483  -0.36499
 Alpha virt. eigenvalues --    0.04849   0.11155   0.16323   0.21275   0.23641
 Alpha virt. eigenvalues --    0.25289   0.27217   0.27339   0.28041   0.28392
 Alpha virt. eigenvalues --    0.29019   0.30895   0.32122   0.32414   0.32601

 Mulliken charges:
               1
     1  C   -0.170480
     2  C   -0.218541
     3  C   -0.170855
     4  C    0.157193
     5  C   -0.170555
     6  C   -0.218576
     7  H    0.226230
     8  H    0.224024
     9  H    0.275651
    10  H    0.276194
    11  H    0.224087
    12  N    0.490785
    13  O   -0.457162
    14  O   -0.462418
    15  C   -0.298181
    16  C   -0.297616
    17  C   -0.475039
    18  H    0.147456
    19  H    0.145108
    20  H    0.154294
    21  H    0.148628
    22  H    0.152604
    23  H    0.154786
    24  H    0.157408
    25  C   -0.297248
    26  C   -0.298527
    27  C   -0.483572
    28  H    0.153126
    29  H    0.153760
    30  H    0.146560
    31  H    0.145409
    32  H    0.179782
    33  H    0.154804
    34  H    0.150880
 Sum of Mulliken charges =  -0.00000

 Dipole moment (field-independent basis, Debye):
    X=             -4.0462    Y=              2.6371    Z=             -2.2689  Tot=              5.3360
 Quadrupole moment (field-independent basis, Debye-Ang):
   XX=            -78.4268   YY=            -96.6792   ZZ=            -92.8780
   XY=             -5.9833   XZ=              5.4423   YZ=              4.3906

 Normal termination of Gaussian 16 at Thu May  6 15:50:34 2021.
