 Gaussian 16, Revision A.03,
 Gaussian 16:  EM64L-G16RevA.03 25-Dec-2016

 -------------
 #p 6-31g* mp2
 -------------

 ------------------------------------------------------
 Input file generated by CHIRIPA (05-May-2021 14:55:20)
 ------------------------------------------------------
 Symbolic Z-matrix:
 Charge =  0 Multiplicity = 1

                         Standard orientation:
 ---------------------------------------------------------------------
 Center     Atomic      Atomic             Coordinates (Angstroms)
 Number     Number       Type             X           Y           Z
 ---------------------------------------------------------------------
      1          6           0        1.313839    2.840832   -0.192202
      2          6           0        0.980128    2.076346    0.930615
      3          6           0        1.549313    0.814286    1.124991
      4          6           0        2.452598    0.345506    0.172304
      5          6           0        2.805229    1.083357   -0.956642
      6          6           0        2.223720    2.342776   -1.130592
      7          1           0        0.866895    3.820205   -0.335264
      8          1           0        0.273803    2.460604    1.661023
      9          1           0        1.308742    0.201423    1.985189
     10          1           0        3.512498    0.673561   -1.667455
     11          1           0        2.484748    2.934282   -2.003535
     12          7           0        3.061693   -0.989182    0.367269
     13          8           0        3.854811   -1.379595   -0.486649
     14          8           0        2.734449   -1.619625    1.370310
     15          6           0       -3.550195   -0.257614   -0.453604
     16          6           0       -4.454195    0.328206    0.631561
     17          6           0       -5.528203    1.258825    0.067426
     18          1           0       -3.072790    0.562907   -1.006573
     19          1           0       -4.167488   -0.805701   -1.178825
     20          1           0       -3.835229    0.873859    1.355275
     21          1           0       -4.929356   -0.493807    1.182136
     22          1           0       -6.169898    0.722772   -0.639310
     23          1           0       -5.069554    2.098209   -0.465187
     24          1           0       -6.163094    1.666358    0.860327
     25          6           0       -2.471468   -1.190012    0.094765
     26          6           0       -1.567468   -1.775832   -0.990400
     27          6           0       -0.493460   -2.706451   -0.426266
     28          1           0       -1.854175   -0.641926    0.819986
     29          1           0       -2.948874   -2.010533    0.647734
     30          1           0       -1.092307   -0.953820   -1.540975
     31          1           0       -2.186433   -2.321485   -1.714114
     32          1           0       -0.952108   -3.545836    0.106348
     33          1           0        0.148236   -2.170399    0.280471
     34          1           0        0.141432   -3.113985   -1.219165
 ---------------------------------------------------------------------

 SCF Done:  E(RHF) =  -669.536140008     A.U. after   15 cycles
 E2 =    -0.2092678689D+01 EUMP2 =    -0.67162881869739D+03

 The electronic state is 1-A.
 Alpha  occ. eigenvalues --  -20.60921 -20.60913 -15.85934 -11.31303 -11.27875
 Alpha  occ. eigenvalues --  -11.27860 -11.27603 -11.26890 -11.26874 -11.21844
 Alpha  occ. eigenvalues --  -11.21520 -11.21415 -11.21356 -11.21340 -11.20511
 Alpha  occ. eigenvalues --   -1.59968  -1.39527  -1.19473  -1.08867  -1.08473
 Alpha  occ. eigenvalues --   -1.04875  -1.03503  -0.95932  -0.95702  -0.86942
 Alpha  occ. eigenvalues --   -0.86271  -0.82536  -0.79581  -0.78276  -0.77583
 Alpha  occ. eigenvalues --   -0.72164  -0.71290  -0.70576  -0.65131  -0.65113
 Alpha  occ. eigenvalues --   -0.64873  -0.62222  -0.60907  -0.59331  -0.57538
 Alpha  occ. eigenvalues --   -0.55375  -0.55226  -0.53194  -0.52963  -0.52598
 Alpha  occ. eigenvalues --   -0.52348  -0.49900  -0.48924  -0.48922  -0.47888
 Alpha  occ. eigenvalues --   -0.46663  -0.45835  -0.45762  -0.44786  -0.43762
 Alpha  occ. eigenvalues --   -0.37442  -0.36465
 Alpha virt. eigenvalues --    0.04912   0.11105   0.16371   0.21011   0.22768
 Alpha virt. eigenvalues --    0.24145   0.25996   0.27048   0.27677   0.28006
 Alpha virt. eigenvalues --    0.28600   0.30400   0.31487   0.31732   0.32071

 Mulliken charges:
               1
     1  C   -0.170882
     2  C   -0.218747
     3  C   -0.172764
     4  C    0.159509
     5  C   -0.170820
     6  C   -0.218464
     7  H    0.226111
     8  H    0.224073
     9  H    0.276174
    10  H    0.276018
    11  H    0.223993
    12  N    0.489096
    13  O   -0.458159
    14  O   -0.458346
    15  C   -0.297911
    16  C   -0.298583
    17  C   -0.475381
    18  H    0.147071
    19  H    0.150787
    20  H    0.146877
    21  H    0.153769
    22  H    0.156739
    23  H    0.152741
    24  H    0.160081
    25  C   -0.296281
    26  C   -0.300339
    27  C   -0.482272
    28  H    0.143241
    29  H    0.151077
    30  H    0.149351
    31  H    0.151010
    32  H    0.155736
    33  H    0.161824
    34  H    0.163667
 Sum of Mulliken charges =  -0.00000

 Dipole moment (field-independent basis, Debye):
    X=             -1.9998    Y=              4.6534    Z=             -0.7000  Tot=              5.1130
 Quadrupole moment (field-independent basis, Debye-Ang):
   XX=           -104.7868   YY=            -91.6845   ZZ=            -91.7074
   XY=             12.3144   XZ=             -4.7911   YZ=              0.1995

 Normal termination of Gaussian 16 at Thu May  6 02:59:07 2021.
