 Gaussian 16, Revision A.03,
 Gaussian 16:  EM64L-G16RevA.03 25-Dec-2016

 -------------
 #p 6-31g* mp2
 -------------

 ------------------------------------------------------
 Input file generated by CHIRIPA (05-May-2021 14:53:14)
 ------------------------------------------------------
 Symbolic Z-matrix:
 Charge =  0 Multiplicity = 1

                         Standard orientation:
 ---------------------------------------------------------------------
 Center     Atomic      Atomic             Coordinates (Angstroms)
 Number     Number       Type             X           Y           Z
 ---------------------------------------------------------------------
      1          6           0        4.028891    0.744610    0.095894
      2          6           0        3.179988    1.807837   -0.601886
      3          6           0        3.325997    3.191147    0.032879
      4          1           0        3.744546    0.695060    1.155912
      5          1           0        5.083545    1.051834    0.069213
      6          1           0        2.127411    1.498029   -0.575113
      7          1           0        3.466254    1.854727   -1.660408
      8          1           0        4.367742    3.525440   -0.007317
      9          1           0        3.021292    3.166715    1.084145
     10          1           0        2.710630    3.935871   -0.481486
     11          6           0        3.893606   -0.643596   -0.527251
     12          6           0        4.742509   -1.706823    0.170530
     13          6           0        4.596500   -3.090134   -0.464235
     14          1           0        2.838951   -0.950821   -0.500570
     15          1           0        4.177951   -0.594047   -1.587268
     16          1           0        4.456243   -1.753713    1.229052
     17          1           0        5.795086   -1.397015    0.143757
     18          1           0        4.901205   -3.065702   -1.515501
     19          1           0        3.554754   -3.424427   -0.424039
     20          1           0        5.211866   -3.834857    0.050129
     21          6           0       -1.128364    0.321724    1.707621
     22          6           0       -1.075233    0.775780    0.385678
     23          6           0       -2.158831    0.581147   -0.475994
     24          6           0       -3.284826   -0.074376    0.019702
     25          6           0       -3.368050   -0.538362    1.331601
     26          6           0       -2.272588   -0.332744    2.175538
     27          1           0       -0.281991    0.477187    2.370100
     28          1           0       -0.187911    1.284370    0.019560
     29          1           0       -2.144422    0.922428   -1.503971
     30          1           0       -4.266242   -1.041977    1.667818
     31          1           0       -2.316652   -0.686443    3.201696
     32          7           0       -4.438263   -0.286241   -0.883124
     33          8           0       -5.418729   -0.866604   -0.422144
     34          8           0       -4.340022    0.132076   -2.034643
 ---------------------------------------------------------------------

 SCF Done:  E(RHF) =  -669.535491617     A.U. after   15 cycles
 E2 =    -0.2091125515D+01 EUMP2 =    -0.67162661713239D+03

 The electronic state is 1-A.
 Alpha  occ. eigenvalues --  -20.60761 -20.60756 -15.85815 -11.31187 -11.27760
 Alpha  occ. eigenvalues --  -11.27752 -11.27508 -11.26778 -11.26753 -11.22633
 Alpha  occ. eigenvalues --  -11.22232 -11.22182 -11.22057 -11.21976 -11.21522
 Alpha  occ. eigenvalues --   -1.59836  -1.39390  -1.19362  -1.09213  -1.08757
 Alpha  occ. eigenvalues --   -1.04767  -1.04282  -0.96703  -0.95590  -0.87718
 Alpha  occ. eigenvalues --   -0.86167  -0.82423  -0.80366  -0.79004  -0.77466
 Alpha  occ. eigenvalues --   -0.72033  -0.71159  -0.70473  -0.65894  -0.65014
 Alpha  occ. eigenvalues --   -0.64765  -0.62169  -0.61633  -0.60083  -0.58312
 Alpha  occ. eigenvalues --   -0.55991  -0.55271  -0.53398  -0.53122  -0.53095
 Alpha  occ. eigenvalues --   -0.52870  -0.50645  -0.48810  -0.48787  -0.48644
 Alpha  occ. eigenvalues --   -0.47408  -0.46534  -0.46460  -0.44793  -0.44529
 Alpha  occ. eigenvalues --   -0.37346  -0.36368
 Alpha virt. eigenvalues --    0.05069   0.11247   0.16547   0.19139   0.22745
 Alpha virt. eigenvalues --    0.23652   0.25139   0.26190   0.27283   0.28208
 Alpha virt. eigenvalues --    0.28768   0.30053   0.30982   0.31223   0.31898

 Mulliken charges:
               1
     1  C   -0.297641
     2  C   -0.305864
     3  C   -0.476125
     4  H    0.146012
     5  H    0.153476
     6  H    0.144020
     7  H    0.157699
     8  H    0.160121
     9  H    0.152500
    10  H    0.161972
    11  C   -0.299185
    12  C   -0.299843
    13  C   -0.476267
    14  H    0.148326
    15  H    0.152428
    16  H    0.150509
    17  H    0.153448
    18  H    0.156824
    19  H    0.156052
    20  H    0.161780
    21  C   -0.173365
    22  C   -0.226787
    23  C   -0.172908
    24  C    0.158929
    25  C   -0.171099
    26  C   -0.218547
    27  H    0.225374
    28  H    0.235648
    29  H    0.276289
    30  H    0.275626
    31  H    0.223376
    32  N    0.488023
    33  O   -0.460512
    34  O   -0.460289
 Sum of Mulliken charges =  -0.00000

 Dipole moment (field-independent basis, Debye):
    X=              4.2544    Y=              0.7322    Z=              3.1338  Tot=              5.3345
 Quadrupole moment (field-independent basis, Debye-Ang):
   XX=           -119.3125   YY=            -95.3109   ZZ=            -91.8774
   XY=             -1.2012   XZ=            -13.2618   YZ=             -2.7480

 Normal termination of Gaussian 16 at Thu May  6 15:24:57 2021.
