 Gaussian 16, Revision A.03,
 Gaussian 16:  EM64L-G16RevA.03 25-Dec-2016

 -------------
 #p 6-31g* mp2
 -------------

 ------------------------------------------------------
 Input file generated by CHIRIPA (05-May-2021 14:53:15)
 ------------------------------------------------------
 Symbolic Z-matrix:
 Charge =  0 Multiplicity = 1

                         Standard orientation:
 ---------------------------------------------------------------------
 Center     Atomic      Atomic             Coordinates (Angstroms)
 Number     Number       Type             X           Y           Z
 ---------------------------------------------------------------------
      1          6           0        3.428573    1.284192   -0.005576
      2          6           0        1.929449    1.581096   -0.055178
      3          6           0        1.602943    3.034502    0.289494
      4          1           0        3.809404    1.519027    0.997801
      5          1           0        3.951132    1.953643   -0.702829
      6          1           0        1.409721    0.910340    0.640943
      7          1           0        1.552105    1.345346   -1.058497
      8          1           0        2.095313    3.716551   -0.411206
      9          1           0        1.952119    3.279074    1.297890
     10          1           0        0.525937    3.224746    0.247956
     11          6           0        3.770833   -0.164765   -0.347790
     12          6           0        5.269957   -0.461668   -0.298187
     13          6           0        5.596464   -1.915074   -0.642860
     14          1           0        3.248274   -0.834215    0.349464
     15          1           0        3.390002   -0.399599   -1.351167
     16          1           0        5.647301   -0.225918    0.705132
     17          1           0        5.789686    0.209088   -0.994308
     18          1           0        5.247287   -2.159646   -1.651255
     19          1           0        5.104094   -2.597123    0.057841
     20          1           0        6.673470   -2.105318   -0.601322
     21          6           0       -0.900289   -1.687917    1.208620
     22          6           0       -1.798891   -2.362569    0.375626
     23          6           0       -2.861939   -1.679732   -0.222881
     24          6           0       -2.997111   -0.316370    0.034533
     25          6           0       -2.118352    0.383773    0.859684
     26          6           0       -1.062601   -0.319312    1.447570
     27          1           0       -0.077322   -2.226226    1.669430
     28          1           0       -1.675292   -3.425426    0.188266
     29          1           0       -3.572202   -2.177345   -0.871977
     30          1           0       -2.267430    1.443488    1.027603
     31          1           0       -0.366265    0.207218    2.094042
     32          7           0       -4.118650    0.417238   -0.593457
     33          8           0       -4.215897    1.618187   -0.350760
     34          8           0       -4.879227   -0.222600   -1.316483
 ---------------------------------------------------------------------

 SCF Done:  E(RHF) =  -669.534863459     A.U. after   15 cycles
 E2 =    -0.2092314419D+01 EUMP2 =    -0.67162717787850D+03

 The electronic state is 1-A.
 Alpha  occ. eigenvalues --  -20.60778 -20.60773 -15.85832 -11.31207 -11.27770
 Alpha  occ. eigenvalues --  -11.27766 -11.27518 -11.26793 -11.26782 -11.22116
 Alpha  occ. eigenvalues --  -11.22104 -11.21973 -11.21893 -11.21595 -11.21563
 Alpha  occ. eigenvalues --   -1.59853  -1.39406  -1.19381  -1.08980  -1.08773
 Alpha  occ. eigenvalues --   -1.04791  -1.04055  -0.96508  -0.95606  -0.87520
 Alpha  occ. eigenvalues --   -0.86191  -0.82443  -0.80119  -0.78798  -0.77482
 Alpha  occ. eigenvalues --   -0.72050  -0.71176  -0.70485  -0.65662  -0.65034
 Alpha  occ. eigenvalues --   -0.64788  -0.62192  -0.61417  -0.59868  -0.58118
 Alpha  occ. eigenvalues --   -0.55806  -0.55282  -0.53223  -0.53088  -0.52959
 Alpha  occ. eigenvalues --   -0.52859  -0.50445  -0.48817  -0.48804  -0.48417
 Alpha  occ. eigenvalues --   -0.47148  -0.46327  -0.46261  -0.44809  -0.44314
 Alpha  occ. eigenvalues --   -0.37338  -0.36338
 Alpha virt. eigenvalues --    0.05037   0.11160   0.16473   0.20082   0.22734
 Alpha virt. eigenvalues --    0.23672   0.25705   0.26434   0.26700   0.28610
 Alpha virt. eigenvalues --    0.28771   0.29565   0.31114   0.31417   0.31918

 Mulliken charges:
               1
     1  C   -0.298582
     2  C   -0.302182
     3  C   -0.477740
     4  H    0.148326
     5  H    0.152371
     6  H    0.145416
     7  H    0.156712
     8  H    0.159952
     9  H    0.153247
    10  H    0.160151
    11  C   -0.296518
    12  C   -0.300005
    13  C   -0.475614
    14  H    0.142092
    15  H    0.152059
    16  H    0.151887
    17  H    0.154225
    18  H    0.156256
    19  H    0.152505
    20  H    0.162064
    21  C   -0.171397
    22  C   -0.218245
    23  C   -0.170857
    24  C    0.158580
    25  C   -0.172170
    26  C   -0.214419
    27  H    0.225531
    28  H    0.223613
    29  H    0.275658
    30  H    0.275850
    31  H    0.223900
    32  N    0.488073
    33  O   -0.460389
    34  O   -0.460349
 Sum of Mulliken charges =  -0.00000

 Dipole moment (field-independent basis, Debye):
    X=              4.0027    Y=             -2.5634    Z=              2.1233  Tot=              5.2058
 Quadrupole moment (field-independent basis, Debye-Ang):
   XX=           -118.6085   YY=            -90.5757   ZZ=            -93.3439
   XY=              8.5609   XZ=             -5.9887   YZ=              0.7584

 Normal termination of Gaussian 16 at Thu May  6 20:24:58 2021.
