 Gaussian 16, Revision A.03,
 Gaussian 16:  EM64L-G16RevA.03 25-Dec-2016

 -------------
 #p 6-31g* mp2
 -------------

 ------------------------------------------------------
 Input file generated by CHIRIPA (05-May-2021 14:51:07)
 ------------------------------------------------------
 Symbolic Z-matrix:
 Charge =  0 Multiplicity = 1

                         Standard orientation:
 ---------------------------------------------------------------------
 Center     Atomic      Atomic             Coordinates (Angstroms)
 Number     Number       Type             X           Y           Z
 ---------------------------------------------------------------------
      1          6           0       -2.375507   -0.394848   -0.544347
      2          6           0       -2.992231   -1.719431   -0.995031
      3          6           0       -1.940763   -2.758572   -1.385408
      4          1           0       -1.746778    0.003334   -1.352490
      5          1           0       -1.707922   -0.580579    0.308431
      6          1           0       -3.659523   -1.531057   -1.845826
      7          1           0       -3.619718   -2.114410   -0.185791
      8          1           0       -1.280886   -2.975598   -0.539203
      9          1           0       -1.320918   -2.388930   -2.208669
     10          1           0       -2.403521   -3.697719   -1.704338
     11          6           0       -3.414033    0.654121   -0.150826
     12          6           0       -2.797308    1.978704    0.299858
     13          6           0       -3.848777    3.017844    0.690236
     14          1           0       -4.081618    0.839851   -1.003603
     15          1           0       -4.042761    0.255939    0.657318
     16          1           0       -2.169822    2.373683   -0.509381
     17          1           0       -2.130016    1.790330    1.150653
     18          1           0       -4.468622    2.648202    1.513497
     19          1           0       -4.508653    3.234870   -0.155970
     20          1           0       -3.386019    3.956992    1.009166
     21          6           0        2.722085   -0.740336    0.772625
     22          6           0        1.239754   -0.825342    1.137932
     23          6           0        0.909924   -2.052436    1.988371
     24          1           0        3.012870   -1.651619    0.232296
     25          1           0        3.319225   -0.719755    1.694794
     26          1           0        0.645513   -0.844362    0.215363
     27          1           0        0.952419    0.086333    1.677286
     28          1           0        1.477562   -2.036315    2.924389
     29          1           0        1.168913   -2.972298    1.454161
     30          1           0       -0.154902   -2.093439    2.238017
     31          6           0        3.067454    0.481063   -0.077452
     32          6           0        4.549786    0.566069   -0.442759
     33          6           0        4.879616    1.793164   -1.293199
     34          1           0        2.470315    0.460483   -0.999622
     35          1           0        2.776670    1.392346    0.462876
     36          1           0        4.837122   -0.345605   -0.982114
     37          1           0        5.144027    0.585089    0.479809
     38          1           0        4.620627    2.713025   -0.758988
     39          1           0        4.311978    1.777043   -2.229216
     40          1           0        5.944443    1.834167   -1.542844
 ---------------------------------------------------------------------

 SCF Done:  E(RHF) =  -470.732800142     A.U. after   11 cycles
 E2 =    -0.1583921481D+01 EUMP2 =    -0.47231672162343D+03

 The electronic state is 1-A.
 Alpha  occ. eigenvalues --  -11.21597 -11.21587 -11.21585 -11.21535 -11.21381
 Alpha  occ. eigenvalues --  -11.21375 -11.21322 -11.21305 -11.21123 -11.21079
 Alpha  occ. eigenvalues --  -11.21063 -11.21062  -1.08453  -1.08381  -1.03564
 Alpha  occ. eigenvalues --   -1.03491  -0.95987  -0.95973  -0.87017  -0.86974
 Alpha  occ. eigenvalues --   -0.79665  -0.79540  -0.78397  -0.78054  -0.65123
 Alpha  occ. eigenvalues --   -0.64988  -0.61048  -0.60821  -0.59434  -0.59260
 Alpha  occ. eigenvalues --   -0.57652  -0.57536  -0.55320  -0.55214  -0.52692
 Alpha  occ. eigenvalues --   -0.52662  -0.52414  -0.52406  -0.50002  -0.49836
 Alpha  occ. eigenvalues --   -0.48048  -0.47831  -0.46724  -0.46570  -0.46065
 Alpha  occ. eigenvalues --   -0.45753  -0.45683  -0.45204  -0.43781  -0.43767
 Alpha virt. eigenvalues --    0.20667   0.23039   0.23461   0.24621   0.25917
 Alpha virt. eigenvalues --    0.26207   0.26751   0.27748   0.28041   0.29547
 Alpha virt. eigenvalues --    0.30946   0.31116   0.31621   0.31795   0.32305

 Mulliken charges:
               1
     1  C   -0.306356
     2  C   -0.298875
     3  C   -0.479840
     4  H    0.148560
     5  H    0.160246
     6  H    0.151758
     7  H    0.151598
     8  H    0.159341
     9  H    0.154359
    10  H    0.160456
    11  C   -0.297716
    12  C   -0.299820
    13  C   -0.475696
    14  H    0.149307
    15  H    0.149280
    16  H    0.152067
    17  H    0.152083
    18  H    0.155073
    19  H    0.155180
    20  H    0.160162
    21  C   -0.297821
    22  C   -0.306212
    23  C   -0.478156
    24  H    0.149664
    25  H    0.149054
    26  H    0.160032
    27  H    0.151201
    28  H    0.155718
    29  H    0.155830
    30  H    0.159602
    31  C   -0.298193
    32  C   -0.299656
    33  C   -0.475667
    34  H    0.149498
    35  H    0.149685
    36  H    0.151935
    37  H    0.151890
    38  H    0.155160
    39  H    0.155059
    40  H    0.160209
 Sum of Mulliken charges =  -0.00000

 Dipole moment (field-independent basis, Debye):
    X=              0.0027    Y=             -0.0029    Z=              0.0002  Tot=              0.0039
 Quadrupole moment (field-independent basis, Debye-Ang):
   XX=            -85.4560   YY=            -85.8408   ZZ=            -83.6560
   XY=              0.3078   XZ=              0.5799   YZ=              0.3779

 Normal termination of Gaussian 16 at Thu May  6 11:33:21 2021.
