 Gaussian 16, Revision A.03,
 Gaussian 16:  EM64L-G16RevA.03 25-Dec-2016

 -------------
 #p 6-31g* mp2
 -------------

 ------------------------------------------------------
 Input file generated by CHIRIPA (05-May-2021 14:53:12)
 ------------------------------------------------------
 Symbolic Z-matrix:
 Charge =  0 Multiplicity = 1

                         Standard orientation:
 ---------------------------------------------------------------------
 Center     Atomic      Atomic             Coordinates (Angstroms)
 Number     Number       Type             X           Y           Z
 ---------------------------------------------------------------------
      1          6           0        2.436473    0.716390   -0.527025
      2          6           0        2.808309    2.027831    0.165684
      3          6           0        2.571074    3.251831   -0.719379
      4          1           0        3.019990    0.619846   -1.452839
      5          1           0        1.379823    0.754533   -0.826076
      6          1           0        3.863576    1.986678    0.464571
      7          1           0        2.223978    2.121173    1.090055
      8          1           0        1.516990    3.320734   -1.007062
      9          1           0        3.165904    3.185474   -1.636099
     10          1           0        2.843494    4.178420   -0.204520
     11          6           0        2.668066   -0.516276    0.345113
     12          6           0        2.296231   -1.827717   -0.347596
     13          6           0        2.533465   -3.051717    0.537467
     14          1           0        3.724716   -0.554420    0.644163
     15          1           0        2.084549   -0.419732    1.270927
     16          1           0        2.880561   -1.921059   -1.271967
     17          1           0        1.240963   -1.786564   -0.646484
     18          1           0        1.938635   -2.985360    1.454187
     19          1           0        3.587549   -3.120620    0.825149
     20          1           0        2.261046   -3.978306    0.022607
     21          6           0       -2.322226    2.361514    0.624331
     22          6           0       -1.791907    1.491597    1.582729
     23          6           0       -1.605667    0.137891    1.287188
     24          6           0       -1.962225   -0.314029    0.017571
     25          6           0       -2.492864    0.527826   -0.958643
     26          6           0       -2.670398    1.877705   -0.641066
     27          1           0       -2.463520    3.411619    0.862473
     28          1           0       -1.520618    1.864545    2.566271
     29          1           0       -1.197114   -0.557510    2.010318
     30          1           0       -2.753877    0.126709   -1.930442
     31          1           0       -3.082460    2.550995   -1.387343
     32          7           0       -1.769670   -1.745111   -0.306969
     33          8           0       -2.091750   -2.118479   -1.432801
     34          8           0       -1.300311   -2.466327    0.570633
 ---------------------------------------------------------------------

 SCF Done:  E(RHF) =  -669.536104128     A.U. after   15 cycles
 E2 =    -0.2093557797D+01 EUMP2 =    -0.67162966192502D+03

 The electronic state is 1-A.
 Alpha  occ. eigenvalues --  -20.60969 -20.60964 -15.85992 -11.31355 -11.27920
 Alpha  occ. eigenvalues --  -11.27910 -11.27643 -11.26920 -11.26909 -11.21656
 Alpha  occ. eigenvalues --  -11.21236 -11.21227 -11.21056 -11.20884 -11.20162
 Alpha  occ. eigenvalues --   -1.60036  -1.39587  -1.19519  -1.08915  -1.08166
 Alpha  occ. eigenvalues --   -1.04913  -1.03184  -0.95753  -0.95640  -0.86668
 Alpha  occ. eigenvalues --   -0.86310  -0.82581  -0.79302  -0.77940  -0.77635
 Alpha  occ. eigenvalues --   -0.72217  -0.71384  -0.70614  -0.65172  -0.64910
 Alpha  occ. eigenvalues --   -0.64792  -0.62257  -0.60569  -0.59069  -0.57229
 Alpha  occ. eigenvalues --   -0.55408  -0.54946  -0.53227  -0.53000  -0.52324
 Alpha  occ. eigenvalues --   -0.52075  -0.49606  -0.48980  -0.48978  -0.47600
 Alpha  occ. eigenvalues --   -0.46356  -0.45512  -0.45430  -0.44856  -0.43453
 Alpha  occ. eigenvalues --   -0.37485  -0.36505
 Alpha virt. eigenvalues --    0.04862   0.11100   0.16329   0.21010   0.22810
 Alpha virt. eigenvalues --    0.24392   0.26294   0.26899   0.27758   0.28246
 Alpha virt. eigenvalues --    0.28639   0.30568   0.31633   0.31763   0.32176

 Mulliken charges:
               1
     1  C   -0.298919
     2  C   -0.297567
     3  C   -0.475670
     4  H    0.150240
     5  H    0.148737
     6  H    0.152425
     7  H    0.146792
     8  H    0.152516
     9  H    0.156559
    10  H    0.157822
    11  C   -0.297893
    12  C   -0.299944
    13  C   -0.472354
    14  H    0.148237
    15  H    0.143808
    16  H    0.149394
    17  H    0.157182
    18  H    0.159094
    19  H    0.147799
    20  H    0.165821
    21  C   -0.170595
    22  C   -0.218547
    23  C   -0.171043
    24  C    0.157325
    25  C   -0.171242
    26  C   -0.218682
    27  H    0.226684
    28  H    0.224362
    29  H    0.275983
    30  H    0.276394
    31  H    0.224391
    32  N    0.487329
    33  O   -0.458288
    34  O   -0.458151
 Sum of Mulliken charges =  -0.00000

 Dipole moment (field-independent basis, Debye):
    X=             -0.8606    Y=              4.9113    Z=              1.1132  Tot=              5.1088
 Quadrupole moment (field-independent basis, Debye-Ang):
   XX=            -91.5483   YY=            -99.1942   ZZ=            -90.7497
   XY=            -10.2934   XZ=             -0.8458   YZ=             -0.5228

 Normal termination of Gaussian 16 at Thu May  6 00:58:48 2021.
