 Gaussian 16, Revision A.03,
 Gaussian 16:  EM64L-G16RevA.03 25-Dec-2016

 -------------
 #p 6-31g* mp2
 -------------

 ------------------------------------------------------
 Input file generated by CHIRIPA (05-May-2021 14:51:09)
 ------------------------------------------------------
 Symbolic Z-matrix:
 Charge =  0 Multiplicity = 1

                         Standard orientation:
 ---------------------------------------------------------------------
 Center     Atomic      Atomic             Coordinates (Angstroms)
 Number     Number       Type             X           Y           Z
 ---------------------------------------------------------------------
      1          6           0       -3.306063    0.362905   -0.413046
      2          6           0       -3.170206    1.859721   -0.694235
      3          6           0       -1.715524    2.300436   -0.859964
      4          1           0       -2.740314    0.114094    0.495231
      5          1           0       -2.842444   -0.200932   -1.234350
      6          1           0       -3.635166    2.420550    0.126679
      7          1           0       -3.736502    2.105032   -1.601840
      8          1           0       -1.243658    1.766808   -1.691339
      9          1           0       -1.141746    2.084119    0.047002
     10          1           0       -1.641584    3.373880   -1.060242
     11          6           0       -4.754405   -0.092914   -0.244931
     12          6           0       -4.890262   -1.589731    0.036258
     13          6           0       -6.344944   -2.030445    0.201987
     14          1           0       -5.218024    0.470923    0.576373
     15          1           0       -5.320154    0.155897   -1.153208
     16          1           0       -4.323966   -1.835041    0.943863
     17          1           0       -4.425302   -2.150559   -0.784656
     18          1           0       -6.918722   -1.814128   -0.704978
     19          1           0       -6.816810   -1.496817    1.033362
     20          1           0       -6.418884   -3.103889    0.402265
     21          6           0        3.483458    0.381603    0.461633
     22          6           0        2.549903   -0.004632    1.609362
     23          6           0        1.461335    1.038768    1.862608
     24          1           0        3.948238    1.351438    0.686008
     25          1           0        2.890288    0.523267   -0.452411
     26          1           0        3.144827   -0.146876    2.520651
     27          1           0        2.087437   -0.973750    1.382317
     28          1           0        0.843212    1.175212    0.969351
     29          1           0        1.906610    2.006785    2.114153
     30          1           0        0.805346    0.742567    2.687110
     31          6           0        4.577010   -0.651594    0.196344
     32          6           0        5.510566   -0.265359   -0.951385
     33          6           0        6.599132   -1.308759   -1.204632
     34          1           0        5.170180   -0.793257    1.110387
     35          1           0        4.112229   -1.621428   -0.028031
     36          1           0        5.973031    0.703761   -0.724341
     37          1           0        4.915641   -0.123115   -1.862674
     38          1           0        6.153857   -2.276776   -1.456176
     39          1           0        7.217256   -1.445203   -0.311375
     40          1           0        7.255122   -1.012558   -2.029133
 ---------------------------------------------------------------------

 SCF Done:  E(RHF) =  -470.733306239     A.U. after   11 cycles
 E2 =    -0.1582292634D+01 EUMP2 =    -0.47231559887254D+03

 The electronic state is 1-A.
 Alpha  occ. eigenvalues --  -11.21602 -11.21593 -11.21587 -11.21586 -11.21402
 Alpha  occ. eigenvalues --  -11.21385 -11.21343 -11.21325 -11.21071 -11.21060
 Alpha  occ. eigenvalues --  -11.21046 -11.21044  -1.08428  -1.08411  -1.03537
 Alpha  occ. eigenvalues --   -1.03504  -0.96003  -0.95941  -0.87039  -0.86942
 Alpha  occ. eigenvalues --   -0.79641  -0.79532  -0.78250  -0.78213  -0.65076
 Alpha  occ. eigenvalues --   -0.65026  -0.61009  -0.60842  -0.59344  -0.59334
 Alpha  occ. eigenvalues --   -0.57667  -0.57514  -0.55412  -0.55126  -0.52676
 Alpha  occ. eigenvalues --   -0.52666  -0.52539  -0.52260  -0.50084  -0.49749
 Alpha  occ. eigenvalues --   -0.48026  -0.47774  -0.46719  -0.46490  -0.45825
 Alpha  occ. eigenvalues --   -0.45740  -0.45713  -0.45611  -0.43781  -0.43770
 Alpha virt. eigenvalues --    0.22252   0.23019   0.23585   0.24734   0.25954
 Alpha virt. eigenvalues --    0.26694   0.27038   0.27558   0.27824   0.28910
 Alpha virt. eigenvalues --    0.30521   0.31633   0.31770   0.31791   0.32111

 Mulliken charges:
               1
     1  C   -0.298556
     2  C   -0.299171
     3  C   -0.482908
     4  H    0.150034
     5  H    0.149107
     6  H    0.152079
     7  H    0.151828
     8  H    0.154182
     9  H    0.162968
    10  H    0.160601
    11  C   -0.298282
    12  C   -0.299653
    13  C   -0.475705
    14  H    0.149614
    15  H    0.149645
    16  H    0.151979
    17  H    0.151802
    18  H    0.155172
    19  H    0.155222
    20  H    0.160226
    21  C   -0.298493
    22  C   -0.299184
    23  C   -0.482776
    24  H    0.149656
    25  H    0.150091
    26  H    0.151760
    27  H    0.151962
    28  H    0.162263
    29  H    0.155382
    30  H    0.159333
    31  C   -0.298320
    32  C   -0.299645
    33  C   -0.475696
    34  H    0.149448
    35  H    0.149614
    36  H    0.151952
    37  H    0.151962
    38  H    0.155141
    39  H    0.155150
    40  H    0.160215
 Sum of Mulliken charges =  -0.00000

 Dipole moment (field-independent basis, Debye):
    X=             -0.0020    Y=              0.0104    Z=              0.0006  Tot=              0.0106
 Quadrupole moment (field-independent basis, Debye-Ang):
   XX=            -86.1603   YY=            -85.1790   ZZ=            -83.4898
   XY=              0.4027   XZ=              0.8345   YZ=              0.3992

 Normal termination of Gaussian 16 at Thu May  6 03:43:16 2021.
