 Gaussian 16, Revision A.03,
 Gaussian 16:  EM64L-G16RevA.03 25-Dec-2016

 -------------
 #p 6-31g* mp2
 -------------

 ------------------------------------------------------
 Input file generated by CHIRIPA (05-May-2021 14:51:12)
 ------------------------------------------------------
 Symbolic Z-matrix:
 Charge =  0 Multiplicity = 1

                         Standard orientation:
 ---------------------------------------------------------------------
 Center     Atomic      Atomic             Coordinates (Angstroms)
 Number     Number       Type             X           Y           Z
 ---------------------------------------------------------------------
      1          6           0       -3.805704    0.246872   -0.341737
      2          6           0       -2.436980   -0.226996    0.148189
      3          6           0       -1.287012    0.615367   -0.404797
      4          1           0       -3.824539    0.219829   -1.439853
      5          1           0       -3.947393    1.297417   -0.052469
      6          1           0       -2.298489   -1.276745   -0.140711
      7          1           0       -2.421466   -0.199003    1.245272
      8          1           0       -1.397707    1.662506   -0.105053
      9          1           0       -1.274031    0.578640   -1.498910
     10          1           0       -0.317832    0.259228   -0.041869
     11          6           0       -4.965412   -0.585357    0.202506
     12          6           0       -6.334137   -0.111489   -0.287420
     13          6           0       -7.484105   -0.953851    0.265566
     14          1           0       -4.823723   -1.635901   -0.086762
     15          1           0       -4.946577   -0.558313    1.300622
     16          1           0       -6.349650   -0.139482   -1.384503
     17          1           0       -6.472627    0.938260    0.001480
     18          1           0       -7.497086   -0.917125    1.359680
     19          1           0       -7.373410   -2.000991   -0.034178
     20          1           0       -8.453285   -0.597713   -0.097361
     21          6           0        4.725889   -0.487144    0.261357
     22          6           0        6.089819   -0.679495   -0.402481
     23          6           0        6.758169   -1.997200   -0.009091
     24          1           0        4.847407   -0.526864    1.352502
     25          1           0        4.071612   -1.326853   -0.011051
     26          1           0        6.740883    0.161038   -0.130020
     27          1           0        5.965067   -0.639121   -1.492171
     28          1           0        6.131379   -2.847757   -0.295951
     29          1           0        6.911604   -2.043052    1.073940
     30          1           0        7.731884   -2.114205   -0.494940
     31          6           0        4.045228    0.825629   -0.122126
     32          6           0        2.681298    1.017980    0.541712
     33          6           0        2.012948    2.335684    0.148322
     34          1           0        4.699505    1.665338    0.150282
     35          1           0        3.923709    0.865348   -1.213272
     36          1           0        2.806050    0.977606    1.631401
     37          1           0        2.030234    0.177447    0.269251
     38          1           0        1.859513    2.381536   -0.934710
     39          1           0        2.639737    3.186241    0.435181
     40          1           0        1.039233    2.452690    0.634171
 ---------------------------------------------------------------------

 SCF Done:  E(RHF) =  -470.732504616     A.U. after   11 cycles
 E2 =    -0.1583104683D+01 EUMP2 =    -0.47231560929984D+03

 The electronic state is 1-A.
 Alpha  occ. eigenvalues --  -11.21595 -11.21590 -11.21577 -11.21569 -11.21394
 Alpha  occ. eigenvalues --  -11.21385 -11.21335 -11.21325 -11.21067 -11.21063
 Alpha  occ. eigenvalues --  -11.21003 -11.20944  -1.08428  -1.08399  -1.03561
 Alpha  occ. eigenvalues --   -1.03457  -0.96048  -0.95863  -0.87060  -0.86883
 Alpha  occ. eigenvalues --   -0.79589  -0.79563  -0.78235  -0.78224  -0.65055
 Alpha  occ. eigenvalues --   -0.65047  -0.60976  -0.60918  -0.59566  -0.59102
 Alpha  occ. eigenvalues --   -0.57692  -0.57429  -0.55279  -0.55215  -0.52825
 Alpha  occ. eigenvalues --   -0.52510  -0.52383  -0.52267  -0.49926  -0.49849
 Alpha  occ. eigenvalues --   -0.47984  -0.47813  -0.46621  -0.46575  -0.45784
 Alpha  occ. eigenvalues --   -0.45758  -0.45701  -0.45679  -0.43761  -0.43702
 Alpha virt. eigenvalues --    0.21943   0.23015   0.23500   0.25003   0.26358
 Alpha virt. eigenvalues --    0.26579   0.27094   0.27191   0.27757   0.29018
 Alpha virt. eigenvalues --    0.29763   0.30955   0.31527   0.31965   0.32581

 Mulliken charges:
               1
     1  C   -0.298668
     2  C   -0.299585
     3  C   -0.482140
     4  H    0.149546
     5  H    0.149508
     6  H    0.151431
     7  H    0.151723
     8  H    0.155833
     9  H    0.154436
    10  H    0.168433
    11  C   -0.298172
    12  C   -0.299606
    13  C   -0.475688
    14  H    0.149451
    15  H    0.149602
    16  H    0.151905
    17  H    0.151922
    18  H    0.155167
    19  H    0.155152
    20  H    0.160231
    21  C   -0.298395
    22  C   -0.299627
    23  C   -0.475697
    24  H    0.149577
    25  H    0.149403
    26  H    0.151941
    27  H    0.151946
    28  H    0.155134
    29  H    0.155150
    30  H    0.160220
    31  C   -0.297658
    32  C   -0.304591
    33  C   -0.477006
    34  H    0.149592
    35  H    0.149763
    36  H    0.151709
    37  H    0.154249
    38  H    0.155696
    39  H    0.154144
    40  H    0.163969
 Sum of Mulliken charges =  -0.00000

 Dipole moment (field-independent basis, Debye):
    X=              0.0002    Y=              0.0098    Z=             -0.0030  Tot=              0.0102
 Quadrupole moment (field-independent basis, Debye-Ang):
   XX=            -86.0082   YY=            -85.3005   ZZ=            -83.6306
   XY=              0.2110   XZ=              0.4640   YZ=              1.2316

 Normal termination of Gaussian 16 at Thu May  6 00:44:43 2021.
