 Gaussian 16, Revision A.03,
 Gaussian 16:  EM64L-G16RevA.03 25-Dec-2016

 -------------
 #p 6-31g* mp2
 -------------

 ------------------------------------------------------
 Input file generated by CHIRIPA (05-May-2021 14:55:23)
 ------------------------------------------------------
 Symbolic Z-matrix:
 Charge =  0 Multiplicity = 1

                         Standard orientation:
 ---------------------------------------------------------------------
 Center     Atomic      Atomic             Coordinates (Angstroms)
 Number     Number       Type             X           Y           Z
 ---------------------------------------------------------------------
      1          6           0        0.777441   -2.316706    1.157856
      2          6           0        0.625828   -2.092573   -0.214478
      3          6           0        1.328589   -1.063135   -0.847669
      4          6           0        2.178311   -0.273442   -0.074591
      5          6           0        2.350634   -0.471783    1.294443
      6          6           0        1.637844   -1.507023    1.906616
      7          1           0        0.227624   -3.118652    1.641570
      8          1           0       -0.041677   -2.719810   -0.798478
      9          1           0        1.229980   -0.867587   -1.908543
     10          1           0        3.023362    0.170060    1.850224
     11          1           0        1.757556   -1.678779    2.972550
     12          7           0        2.927602    0.819449   -0.733797
     13          8           0        3.670022    1.501170   -0.030443
     14          8           0        2.758288    0.973643   -1.941354
     15          6           0       -2.415091   -0.111476   -0.284954
     16          6           0       -3.565419   -1.116963   -0.345993
     17          6           0       -3.119381   -2.496800   -0.830652
     18          1           0       -1.960969   -0.022575   -1.281356
     19          1           0       -1.632695   -0.500009    0.381598
     20          1           0       -4.346024   -0.726014   -1.011147
     21          1           0       -4.016979   -1.203337    0.650626
     22          1           0       -2.356857   -2.911536   -0.163453
     23          1           0       -2.687772   -2.431502   -1.834670
     24          1           0       -3.957369   -3.199891   -0.866676
     25          6           0       -2.845246    1.272600    0.197777
     26          6           0       -1.694918    2.278087    0.258815
     27          6           0       -2.140956    3.657923    0.743474
     28          1           0       -3.627642    1.661133   -0.468776
     29          1           0       -3.299368    1.183699    1.194178
     30          1           0       -1.243358    2.364461   -0.737804
     31          1           0       -0.914312    1.887138    0.923970
     32          1           0       -2.572565    3.592626    1.747492
     33          1           0       -2.903480    4.072659    0.076276
     34          1           0       -1.302968    4.361014    0.779499
 ---------------------------------------------------------------------

 SCF Done:  E(RHF) =  -669.533665676     A.U. after   15 cycles
 E2 =    -0.2095021894D+01 EUMP2 =    -0.67162868756973D+03

 The electronic state is 1-A.
 Alpha  occ. eigenvalues --  -20.60781 -20.60776 -15.85832 -11.31220 -11.27761
 Alpha  occ. eigenvalues --  -11.27709 -11.27486 -11.26820 -11.26692 -11.22155
 Alpha  occ. eigenvalues --  -11.22012 -11.21612 -11.21590 -11.21507 -11.21000
 Alpha  occ. eigenvalues --   -1.59854  -1.39408  -1.19378  -1.08814  -1.08680
 Alpha  occ. eigenvalues --   -1.04777  -1.03861  -0.96334  -0.95606  -0.87367
 Alpha  occ. eigenvalues --   -0.86179  -0.82438  -0.79950  -0.78500  -0.77460
 Alpha  occ. eigenvalues --   -0.72052  -0.71173  -0.70483  -0.65389  -0.65015
 Alpha  occ. eigenvalues --   -0.64786  -0.62154  -0.61258  -0.59709  -0.57928
 Alpha  occ. eigenvalues --   -0.55653  -0.55278  -0.53308  -0.53043  -0.52955
 Alpha  occ. eigenvalues --   -0.52538  -0.50306  -0.48817  -0.48806  -0.48227
 Alpha  occ. eigenvalues --   -0.46971  -0.46012  -0.45884  -0.44808  -0.44063
 Alpha  occ. eigenvalues --   -0.37321  -0.36253
 Alpha virt. eigenvalues --    0.05021   0.11163   0.16461   0.20326   0.22850
 Alpha virt. eigenvalues --    0.24147   0.25565   0.26122   0.27154   0.28069
 Alpha virt. eigenvalues --    0.29144   0.30560   0.31218   0.31569   0.32078

 Mulliken charges:
               1
     1  C   -0.175084
     2  C   -0.217659
     3  C   -0.169264
     4  C    0.159873
     5  C   -0.172760
     6  C   -0.217858
     7  H    0.225445
     8  H    0.230161
     9  H    0.275016
    10  H    0.275569
    11  H    0.223526
    12  N    0.488085
    13  O   -0.460374
    14  O   -0.460409
    15  C   -0.304559
    16  C   -0.298720
    17  C   -0.477967
    18  H    0.146247
    19  H    0.158269
    20  H    0.154877
    21  H    0.152256
    22  H    0.144692
    23  H    0.153301
    24  H    0.164408
    25  C   -0.297759
    26  C   -0.301261
    27  C   -0.476173
    28  H    0.149792
    29  H    0.148047
    30  H    0.156131
    31  H    0.151321
    32  H    0.153287
    33  H    0.155338
    34  H    0.164206
 Sum of Mulliken charges =  -0.00000

 Dipole moment (field-independent basis, Debye):
    X=             -2.6327    Y=             -3.7736    Z=              2.3005  Tot=              5.1442
 Quadrupole moment (field-independent basis, Debye-Ang):
   XX=           -106.1222   YY=            -94.0497   ZZ=            -90.6541
   XY=             -7.0437   XZ=              7.6981   YZ=              0.1755

 Normal termination of Gaussian 16 at Thu May  6 07:53:43 2021.
