 Gaussian 16, Revision A.03,
 Gaussian 16:  EM64L-G16RevA.03 25-Dec-2016

 -------------
 #p 6-31g* mp2
 -------------

 ------------------------------------------------------
 Input file generated by CHIRIPA (05-May-2021 14:53:18)
 ------------------------------------------------------
 Symbolic Z-matrix:
 Charge =  0 Multiplicity = 1

                         Standard orientation:
 ---------------------------------------------------------------------
 Center     Atomic      Atomic             Coordinates (Angstroms)
 Number     Number       Type             X           Y           Z
 ---------------------------------------------------------------------
      1          6           0        3.089009   -0.373356   -0.709378
      2          6           0        3.417487   -1.668376    0.034269
      3          6           0        3.312687   -2.905429   -0.858205
      4          1           0        2.073966   -0.443342   -1.123788
      5          1           0        3.769576   -0.267654   -1.565562
      6          1           0        2.737408   -1.770909    0.889602
      7          1           0        4.431794   -1.595222    0.447119
      8          1           0        4.003084   -2.829515   -1.704486
      9          1           0        2.299071   -3.006200   -1.259489
     10          1           0        3.551601   -3.819945   -0.306444
     11          6           0        3.189395    0.872101    0.169534
     12          6           0        2.860917    2.167121   -0.574113
     13          6           0        2.965717    3.404175    0.318361
     14          1           0        2.508828    0.766400    1.025718
     15          1           0        4.204438    0.942088    0.583944
     16          1           0        1.846610    2.093968   -0.986964
     17          1           0        3.540996    2.269654   -1.429446
     18          1           0        3.979333    3.504945    0.719645
     19          1           0        2.275320    3.328260    1.164642
     20          1           0        2.726803    4.318690   -0.233400
     21          6           0       -0.480844   -1.375178    1.252629
     22          6           0       -0.558203    0.021047    1.285665
     23          6           0       -1.646016    0.685655    0.711636
     24          6           0       -2.643114   -0.080710    0.110164
     25          6           0       -2.594634   -1.473023    0.061137
     26          6           0       -1.497513   -2.116450    0.641549
     27          1           0        0.367810   -1.883235    1.701028
     28          1           0        0.229891    0.599302    1.759558
     29          1           0       -1.731136    1.765490    0.722994
     30          1           0       -3.395676   -2.022346   -0.418438
     31          1           0       -1.440079   -3.200890    0.614402
     32          7           0       -3.799659    0.611668   -0.500913
     33          8           0       -4.665075   -0.086387   -1.024753
     34          8           0       -3.818844    1.839302   -0.444463
 ---------------------------------------------------------------------

 SCF Done:  E(RHF) =  -669.535117746     A.U. after   15 cycles
 E2 =    -0.2093316508D+01 EUMP2 =    -0.67162843425389D+03

 The electronic state is 1-A.
 Alpha  occ. eigenvalues --  -20.60810 -20.60805 -15.85864 -11.31253 -11.27823
 Alpha  occ. eigenvalues --  -11.27820 -11.27560 -11.26839 -11.26829 -11.22529
 Alpha  occ. eigenvalues --  -11.22262 -11.22204 -11.22080 -11.21862 -11.21703
 Alpha  occ. eigenvalues --   -1.59885  -1.39438  -1.19430  -1.09223  -1.08810
 Alpha  occ. eigenvalues --   -1.04834  -1.04291  -0.96723  -0.95649  -0.87739
 Alpha  occ. eigenvalues --   -0.86232  -0.82481  -0.80353  -0.79035  -0.77523
 Alpha  occ. eigenvalues --   -0.72082  -0.71209  -0.70554  -0.65978  -0.65076
 Alpha  occ. eigenvalues --   -0.64741  -0.62205  -0.61681  -0.60091  -0.58332
 Alpha  occ. eigenvalues --   -0.56052  -0.55311  -0.53404  -0.53177  -0.53138
 Alpha  occ. eigenvalues --   -0.52906  -0.50659  -0.48852  -0.48835  -0.48650
 Alpha  occ. eigenvalues --   -0.47387  -0.46570  -0.46464  -0.44838  -0.44537
 Alpha  occ. eigenvalues --   -0.37389  -0.36427
 Alpha virt. eigenvalues --    0.04980   0.11107   0.16359   0.18764   0.22422
 Alpha virt. eigenvalues --    0.23328   0.25110   0.26311   0.27195   0.27253
 Alpha virt. eigenvalues --    0.29183   0.30747   0.31017   0.31325   0.32176

 Mulliken charges:
               1
     1  C   -0.301278
     2  C   -0.299847
     3  C   -0.477313
     4  H    0.155625
     5  H    0.153354
     6  H    0.140037
     7  H    0.155158
     8  H    0.159722
     9  H    0.155609
    10  H    0.159975
    11  C   -0.298391
    12  C   -0.302361
    13  C   -0.475160
    14  H    0.138455
    15  H    0.152288
    16  H    0.154594
    17  H    0.155861
    18  H    0.157125
    19  H    0.148748
    20  H    0.164991
    21  C   -0.173126
    22  C   -0.220840
    23  C   -0.172574
    24  C    0.158750
    25  C   -0.170728
    26  C   -0.219856
    27  H    0.229667
    28  H    0.227609
    29  H    0.276152
    30  H    0.275918
    31  H    0.224200
    32  N    0.488014
    33  O   -0.460202
    34  O   -0.460176
 Sum of Mulliken charges =  -0.00000

 Dipole moment (field-independent basis, Debye):
    X=              4.1601    Y=             -2.4045    Z=              1.9962  Tot=              5.2031
 Quadrupole moment (field-independent basis, Debye-Ang):
   XX=           -114.7201   YY=            -91.3000   ZZ=            -94.8729
   XY=              8.3723   XZ=             -5.4042   YZ=              0.3249

 Normal termination of Gaussian 16 at Thu May  6 04:24:37 2021.
