 Gaussian 16, Revision A.03,
 Gaussian 16:  EM64L-G16RevA.03 25-Dec-2016

 -------------
 #p 6-31g* mp2
 -------------

 ------------------------------------------------------
 Input file generated by CHIRIPA (05-May-2021 14:57:26)
 ------------------------------------------------------
 Symbolic Z-matrix:
 Charge =  0 Multiplicity = 1

                         Standard orientation:
 ---------------------------------------------------------------------
 Center     Atomic      Atomic             Coordinates (Angstroms)
 Number     Number       Type             X           Y           Z
 ---------------------------------------------------------------------
      1          6           0        1.920636    0.518490    2.044341
      2          6           0        2.141518   -0.835718    1.772580
      3          6           0        2.993923   -1.221591    0.733805
      4          6           0        3.611824   -0.222369   -0.016557
      5          6           0        3.411940    1.135101    0.229641
      6          6           0        2.555432    1.497850    1.273363
      7          1           0        1.256873    0.809264    2.853208
      8          1           0        1.649873   -1.598472    2.369687
      9          1           0        3.182734   -2.262704    0.501742
     10          1           0        3.916228    1.872587   -0.382915
     11          1           0        2.385760    2.550308    1.482145
     12          7           0        4.516398   -0.618635   -1.118881
     13          8           0        5.048787    0.280985   -1.765319
     14          8           0        4.675887   -1.821346   -1.315571
     15          6           0       -1.798504    2.053257   -0.191157
     16          6           0       -2.791961    1.980282   -1.173113
     17          6           0       -3.719358    0.934116   -1.168488
     18          6           0       -3.623631   -0.026258   -0.162602
     19          6           0       -2.645353    0.018930    0.829477
     20          6           0       -1.728494    1.074075    0.805248
     21          1           0       -1.082173    2.869431   -0.202364
     22          1           0       -2.848735    2.739321   -1.948149
     23          1           0       -4.498631    0.853339   -1.916570
     24          1           0       -2.614072   -0.752541    1.589261
     25          1           0       -0.958028    1.128203    1.569118
     26          7           0       -4.599846   -1.138540   -0.147328
     27          8           0       -4.494139   -1.972117    0.749673
     28          8           0       -5.452226   -1.155708   -1.032648
 ---------------------------------------------------------------------

 SCF Done:  E(RHF) =  -868.336415865     A.U. after   16 cycles
 E2 =    -0.2600750577D+01 EUMP2 =    -0.87093716644143D+03

 The electronic state is 1-A.
 Alpha  occ. eigenvalues --  -20.61329 -20.61318 -20.61118 -20.61105 -15.86385
 Alpha  occ. eigenvalues --  -15.86171 -11.31938 -11.31599 -11.28540 -11.28477
 Alpha  occ. eigenvalues --  -11.28403 -11.28218 -11.28140 -11.27950 -11.27671
 Alpha  occ. eigenvalues --  -11.27575 -11.27258 -11.27172  -1.60397  -1.60188
 Alpha  occ. eigenvalues --   -1.39945  -1.39740  -1.20139  -1.19779  -1.09535
 Alpha  occ. eigenvalues --   -1.09164  -1.05557  -1.05202  -0.96330  -0.95990
 Alpha  occ. eigenvalues --   -0.86965  -0.86603  -0.83150  -0.82824  -0.78132
 Alpha  occ. eigenvalues --   -0.77868  -0.72601  -0.72389  -0.71720  -0.71511
 Alpha  occ. eigenvalues --   -0.71332  -0.70903  -0.65802  -0.65590  -0.65439
 Alpha  occ. eigenvalues --   -0.65220  -0.62887  -0.62571  -0.56181  -0.55693
 Alpha  occ. eigenvalues --   -0.53964  -0.53657  -0.53494  -0.53224  -0.49376
 Alpha  occ. eigenvalues --   -0.49343  -0.49152  -0.49139  -0.45308  -0.45132
 Alpha  occ. eigenvalues --   -0.38226  -0.37717  -0.37148  -0.36764
 Alpha virt. eigenvalues --    0.04331   0.04691   0.10446   0.10855   0.15608
 Alpha virt. eigenvalues --    0.16195   0.19095   0.21966   0.25366   0.26172
 Alpha virt. eigenvalues --    0.28033   0.28656   0.29561   0.31551   0.32056

 Mulliken charges:
               1
     1  C   -0.176625
     2  C   -0.217312
     3  C   -0.168974
     4  C    0.160329
     5  C   -0.170087
     6  C   -0.220850
     7  H    0.221054
     8  H    0.226729
     9  H    0.279615
    10  H    0.277050
    11  H    0.221395
    12  N    0.487881
    13  O   -0.459291
    14  O   -0.457079
    15  C   -0.170910
    16  C   -0.217828
    17  C   -0.170255
    18  C    0.159407
    19  C   -0.172473
    20  C   -0.213674
    21  H    0.223056
    22  H    0.225270
    23  H    0.277312
    24  H    0.272661
    25  H    0.215070
    26  N    0.488169
    27  O   -0.461166
    28  O   -0.458473
 Sum of Mulliken charges =  -0.00000

 Dipole moment (field-independent basis, Debye):
    X=              0.3891    Y=              5.1786    Z=              3.6386  Tot=              6.3411
 Quadrupole moment (field-independent basis, Debye-Ang):
   XX=           -152.0563   YY=           -100.8388   ZZ=           -102.4661
   XY=             -8.9203   XZ=             15.7776   YZ=             -4.7391

 Normal termination of Gaussian 16 at Wed May  5 22:51:32 2021.
