 Gaussian 16, Revision A.03,
 Gaussian 16:  EM64L-G16RevA.03 25-Dec-2016

 -------------
 #p 6-31g* mp2
 -------------

 ------------------------------------------------------
 Input file generated by CHIRIPA (05-May-2021 14:57:25)
 ------------------------------------------------------
 Symbolic Z-matrix:
 Charge =  0 Multiplicity = 1

                         Standard orientation:
 ---------------------------------------------------------------------
 Center     Atomic      Atomic             Coordinates (Angstroms)
 Number     Number       Type             X           Y           Z
 ---------------------------------------------------------------------
      1          6           0       -1.770404    1.506553    0.812257
      2          6           0       -2.549533    1.854889   -0.295959
      3          6           0       -3.657089    1.081660   -0.656490
      4          6           0       -3.958115   -0.038363    0.116957
      5          6           0       -3.201260   -0.411333    1.226621
      6          6           0       -2.098176    0.376546    1.568676
      7          1           0       -0.911765    2.112907    1.085149
      8          1           0       -2.297343    2.731928   -0.885236
      9          1           0       -4.277392    1.328465   -1.509561
     10          1           0       -3.477548   -1.291291    1.794738
     11          1           0       -1.494890    0.103627    2.429841
     12          7           0       -5.128268   -0.864701   -0.254941
     13          8           0       -5.372457   -1.846645    0.442765
     14          8           0       -5.779088   -0.514794   -1.237099
     15          6           0        6.160932   -0.786425    0.212277
     16          6           0        5.196692   -1.751456   -0.096719
     17          6           0        3.866318   -1.381370   -0.315093
     18          6           0        3.533655   -0.031256   -0.216006
     19          6           0        4.471429    0.953692    0.090180
     20          6           0        5.795867    0.560693    0.304578
     21          1           0        7.192093   -1.082815    0.380370
     22          1           0        5.477335   -2.798381   -0.169061
     23          1           0        3.099610   -2.107761   -0.555784
     24          1           0        4.161400    1.989574    0.155349
     25          1           0        6.542587    1.312319    0.544393
     26          7           0        2.128390    0.372666   -0.445083
     27          8           0        1.860871    1.568655   -0.351923
     28          8           0        1.321070   -0.514379   -0.713455
 ---------------------------------------------------------------------

 SCF Done:  E(RHF) =  -868.339604784     A.U. after   16 cycles
 E2 =    -0.2598734362D+01 EUMP2 =    -0.87093833914567D+03

 The electronic state is 1-A.
 Alpha  occ. eigenvalues --  -20.61688 -20.61631 -20.59763 -20.59757 -15.86684
 Alpha  occ. eigenvalues --  -15.84811 -11.31842 -11.29883 -11.28398 -11.28362
 Alpha  occ. eigenvalues --  -11.28075 -11.27350 -11.27326 -11.26487 -11.26453
 Alpha  occ. eigenvalues --  -11.26002 -11.25384 -11.25315  -1.60726  -1.58845
 Alpha  occ. eigenvalues --   -1.40284  -1.38408  -1.19992  -1.18026  -1.09425
 Alpha  occ. eigenvalues --   -1.07438  -1.05360  -1.03417  -0.96295  -0.94330
 Alpha  occ. eigenvalues --   -0.86767  -0.84816  -0.83132  -0.81201  -0.78205
 Alpha  occ. eigenvalues --   -0.76316  -0.72911  -0.72043  -0.71090  -0.71040
 Alpha  occ. eigenvalues --   -0.70164  -0.69069  -0.65644  -0.65355  -0.63682
 Alpha  occ. eigenvalues --   -0.63436  -0.62707  -0.60808  -0.55863  -0.53831
 Alpha  occ. eigenvalues --   -0.53695  -0.53443  -0.51724  -0.51526  -0.49674
 Alpha  occ. eigenvalues --   -0.49621  -0.47807  -0.47767  -0.45733  -0.43882
 Alpha  occ. eigenvalues --   -0.37960  -0.36955  -0.35873  -0.35018
 Alpha virt. eigenvalues --    0.04292   0.06256   0.10703   0.12659   0.15832
 Alpha virt. eigenvalues --    0.17846   0.20886   0.22795   0.26809   0.27758
 Alpha virt. eigenvalues --    0.28525   0.29756   0.30490   0.31938   0.32415

 Mulliken charges:
               1
     1  C   -0.157726
     2  C   -0.217242
     3  C   -0.171622
     4  C    0.157074
     5  C   -0.171162
     6  C   -0.216700
     7  H    0.234267
     8  H    0.222314
     9  H    0.271268
    10  H    0.270301
    11  H    0.217175
    12  N    0.488412
    13  O   -0.464737
    14  O   -0.463919
    15  C   -0.169986
    16  C   -0.218543
    17  C   -0.170841
    18  C    0.157318
    19  C   -0.171246
    20  C   -0.218491
    21  H    0.227839
    22  H    0.225936
    23  H    0.277387
    24  H    0.274286
    25  H    0.224912
    26  N    0.488064
    27  O   -0.469918
    28  O   -0.454418
 Sum of Mulliken charges =  -0.00000

 Dipole moment (field-independent basis, Debye):
    X=              9.6205    Y=              1.5035    Z=              2.0687  Tot=              9.9546
 Quadrupole moment (field-independent basis, Debye-Ang):
   XX=           -104.0612   YY=            -98.9486   ZZ=           -103.1540
   XY=            -16.9242   XZ=             -1.7012   YZ=             -1.1052

 Normal termination of Gaussian 16 at Thu May  6 21:20:33 2021.
