 Gaussian 16, Revision A.03,
 Gaussian 16:  EM64L-G16RevA.03 25-Dec-2016

 -------------
 #p 6-31g* mp2
 -------------

 ------------------------------------------------------
 Input file generated by CHIRIPA (05-May-2021 14:57:24)
 ------------------------------------------------------
 Symbolic Z-matrix:
 Charge =  0 Multiplicity = 1

                         Standard orientation:
 ---------------------------------------------------------------------
 Center     Atomic      Atomic             Coordinates (Angstroms)
 Number     Number       Type             X           Y           Z
 ---------------------------------------------------------------------
      1          6           0        4.528071    1.918366   -1.143234
      2          6           0        3.936579    0.873953   -1.861467
      3          6           0        3.377869   -0.219818   -1.193593
      4          6           0        3.428385   -0.236696    0.199408
      5          6           0        4.010661    0.788520    0.943167
      6          6           0        4.563163    1.872397    0.254327
      7          1           0        4.959679    2.764191   -1.670197
      8          1           0        3.907888    0.906978   -2.946885
      9          1           0        2.913742   -1.041920   -1.724774
     10          1           0        4.024104    0.727412    2.024603
     11          1           0        5.021872    2.682081    0.814722
     12          7           0        2.840190   -1.389386    0.917554
     13          8           0        2.897492   -1.380458    2.145265
     14          8           0        2.332998   -2.279965    0.239128
     15          6           0       -2.441302   -2.129298   -0.756153
     16          6           0       -1.649792   -1.046521   -0.359131
     17          6           0       -2.239610    0.163924    0.017012
     18          6           0       -3.630126    0.257088   -0.015783
     19          6           0       -4.445779   -0.803699   -0.406588
     20          6           0       -3.834314   -2.004651   -0.778574
     21          1           0       -1.974710   -3.065914   -1.046735
     22          1           0       -0.567717   -1.140454   -0.340751
     23          1           0       -1.650719    1.018065    0.328571
     24          1           0       -5.521887   -0.679827   -0.414721
     25          1           0       -4.451514   -2.843885   -1.086467
     26          7           0       -4.265999    1.533507    0.380223
     27          8           0       -5.493204    1.590057    0.342729
     28          8           0       -3.525150    2.453245    0.720608
 ---------------------------------------------------------------------

 SCF Done:  E(RHF) =  -868.339651845     A.U. after   16 cycles
 E2 =    -0.2598651864D+01 EUMP2 =    -0.87093830370887D+03

 The electronic state is 1-A.
 Alpha  occ. eigenvalues --  -20.61737 -20.61673 -20.60435 -20.60429 -15.86719
 Alpha  occ. eigenvalues --  -15.85482 -11.31865 -11.30718 -11.28429 -11.28364
 Alpha  occ. eigenvalues --  -11.28062 -11.27359 -11.27318 -11.27278 -11.27244
 Alpha  occ. eigenvalues --  -11.26908 -11.26261 -11.26128  -1.60765  -1.59513
 Alpha  occ. eigenvalues --   -1.40325  -1.39070  -1.20008  -1.18860  -1.09438
 Alpha  occ. eigenvalues --   -1.08264  -1.05370  -1.04242  -0.96309  -0.95130
 Alpha  occ. eigenvalues --   -0.86777  -0.85631  -0.83145  -0.81969  -0.78231
 Alpha  occ. eigenvalues --   -0.77046  -0.72936  -0.72081  -0.71704  -0.71095
 Alpha  occ. eigenvalues --   -0.70833  -0.69943  -0.65655  -0.65357  -0.64503
 Alpha  occ. eigenvalues --   -0.64210  -0.62719  -0.61589  -0.55857  -0.54700
 Alpha  occ. eigenvalues --   -0.53717  -0.53449  -0.52582  -0.52316  -0.49717
 Alpha  occ. eigenvalues --   -0.49670  -0.48468  -0.48448  -0.45753  -0.44505
 Alpha  occ. eigenvalues --   -0.37966  -0.36964  -0.36814  -0.35849
 Alpha virt. eigenvalues --    0.04257   0.05477   0.10669   0.11815   0.15778
 Alpha virt. eigenvalues --    0.17018   0.20825   0.22010   0.26655   0.27280
 Alpha virt. eigenvalues --    0.28146   0.28893   0.30311   0.31331   0.32274

 Mulliken charges:
               1
     1  C   -0.169631
     2  C   -0.217811
     3  C   -0.173939
     4  C    0.156003
     5  C   -0.170455
     6  C   -0.217938
     7  H    0.228876
     8  H    0.225567
     9  H    0.272957
    10  H    0.277636
    11  H    0.226882
    12  N    0.487211
    13  O   -0.453539
    14  O   -0.467552
    15  C   -0.171606
    16  C   -0.221710
    17  C   -0.172214
    18  C    0.158319
    19  C   -0.172132
    20  C   -0.218833
    21  H    0.229723
    22  H    0.231858
    23  H    0.272649
    24  H    0.273741
    25  H    0.222033
    26  N    0.488235
    27  O   -0.461728
    28  O   -0.462604
 Sum of Mulliken charges =  -0.00000

 Dipole moment (field-independent basis, Debye):
    X=              4.6928    Y=             -0.4009    Z=             -3.8878  Tot=              6.1072
 Quadrupole moment (field-independent basis, Debye-Ang):
   XX=           -102.9626   YY=           -108.3265   ZZ=           -102.5249
   XY=             34.1017   XZ=             -1.0108   YZ=              3.4693

 Normal termination of Gaussian 16 at Thu May  6 01:52:06 2021.
