 Gaussian 16, Revision A.03,
 Gaussian 16:  EM64L-G16RevA.03 25-Dec-2016

 -------------
 #p 6-31g* mp2
 -------------

 ------------------------------------------------------
 Input file generated by CHIRIPA (05-May-2021 14:51:11)
 ------------------------------------------------------
 Symbolic Z-matrix:
 Charge =  0 Multiplicity = 1

                         Standard orientation:
 ---------------------------------------------------------------------
 Center     Atomic      Atomic             Coordinates (Angstroms)
 Number     Number       Type             X           Y           Z
 ---------------------------------------------------------------------
      1          6           0        3.120766    1.026650   -0.038548
      2          6           0        2.050763    2.099798    0.165002
      3          6           0        2.622468    3.408552    0.710996
      4          1           0        3.626979    0.836582    0.917782
      5          1           0        3.886983    1.408712   -0.727267
      6          1           0        1.286073    1.715311    0.852049
      7          1           0        1.546908    2.287196   -0.791883
      8          1           0        3.370726    3.818067    0.024695
      9          1           0        3.108408    3.242933    1.677968
     10          1           0        1.840391    4.161677    0.848901
     11          6           0        2.564691   -0.287523   -0.583947
     12          6           0        3.634693   -1.360671   -0.787496
     13          6           0        3.062988   -2.669425   -1.333491
     14          1           0        1.798473   -0.669585    0.104772
     15          1           0        2.058477   -0.097455   -1.540277
     16          1           0        4.138548   -1.548069    0.169388
     17          1           0        4.399384   -0.976184   -1.474544
     18          1           0        2.577048   -2.503806   -2.300462
     19          1           0        2.314731   -3.078940   -0.647189
     20          1           0        3.845065   -3.422551   -1.471396
     21          6           0       -3.071059    0.155740   -0.194078
     22          6           0       -4.566006    0.086082   -0.507552
     23          6           0       -5.007591    1.143266   -1.520055
     24          1           0       -2.829598    1.156446    0.189625
     25          1           0       -2.501988    0.032590   -1.125952
     26          1           0       -5.132064    0.207944    0.424835
     27          1           0       -4.803972   -0.914636   -0.890374
     28          1           0       -4.468667    1.020446   -2.465083
     29          1           0       -4.798623    2.149402   -1.142402
     30          1           0       -6.079670    1.075417   -1.729584
     31          6           0       -2.614397   -0.894867    0.816572
     32          6           0       -1.119450   -0.825209    1.130047
     33          6           0       -0.677866   -1.882393    2.142549
     34          1           0       -3.183467   -0.771718    1.748446
     35          1           0       -2.855859   -1.895573    0.432869
     36          1           0       -0.881485    0.175508    1.512868
     37          1           0       -0.553393   -0.947071    0.197660
     38          1           0       -0.886833   -2.888530    1.764896
     39          1           0       -1.216789   -1.759573    3.087578
     40          1           0        0.394213   -1.814544    2.352078
 ---------------------------------------------------------------------

 SCF Done:  E(RHF) =  -470.732904856     A.U. after   11 cycles
 E2 =    -0.1583842360D+01 EUMP2 =    -0.47231674721596D+03

 The electronic state is 1-A.
 Alpha  occ. eigenvalues --  -11.21599 -11.21593 -11.21584 -11.21553 -11.21406
 Alpha  occ. eigenvalues --  -11.21364 -11.21345 -11.21295 -11.21145 -11.21075
 Alpha  occ. eigenvalues --  -11.21070 -11.21050  -1.08460  -1.08384  -1.03554
 Alpha  occ. eigenvalues --   -1.03508  -0.96012  -0.95953  -0.87017  -0.86978
 Alpha  occ. eigenvalues --   -0.79642  -0.79570  -0.78405  -0.78054  -0.65106
 Alpha  occ. eigenvalues --   -0.65017  -0.61036  -0.60832  -0.59385  -0.59325
 Alpha  occ. eigenvalues --   -0.57688  -0.57510  -0.55305  -0.55229  -0.52709
 Alpha  occ. eigenvalues --   -0.52651  -0.52435  -0.52384  -0.49993  -0.49858
 Alpha  occ. eigenvalues --   -0.48003  -0.47913  -0.46798  -0.46476  -0.46107
 Alpha  occ. eigenvalues --   -0.45741  -0.45668  -0.45225  -0.43801  -0.43753
 Alpha virt. eigenvalues --    0.20786   0.23121   0.23606   0.24216   0.26015
 Alpha virt. eigenvalues --    0.26332   0.26644   0.27875   0.27935   0.29659
 Alpha virt. eigenvalues --    0.30132   0.31358   0.31652   0.31967   0.32276

 Mulliken charges:
               1
     1  C   -0.297561
     2  C   -0.303496
     3  C   -0.475575
     4  H    0.149026
     5  H    0.149308
     6  H    0.156090
     7  H    0.151867
     8  H    0.155140
     9  H    0.154923
    10  H    0.159928
    11  C   -0.307833
    12  C   -0.298821
    13  C   -0.476348
    14  H    0.161361
    15  H    0.148541
    16  H    0.151580
    17  H    0.151797
    18  H    0.154789
    19  H    0.155343
    20  H    0.160415
    21  C   -0.298315
    22  C   -0.299674
    23  C   -0.475687
    24  H    0.149742
    25  H    0.149848
    26  H    0.151877
    27  H    0.151945
    28  H    0.155155
    29  H    0.155189
    30  H    0.160239
    31  C   -0.297653
    32  C   -0.306665
    33  C   -0.477951
    34  H    0.149222
    35  H    0.149701
    36  H    0.154048
    37  H    0.157083
    38  H    0.155675
    39  H    0.155855
    40  H    0.159892
 Sum of Mulliken charges =  -0.00000

 Dipole moment (field-independent basis, Debye):
    X=             -0.0252    Y=             -0.0075    Z=              0.0010  Tot=              0.0263
 Quadrupole moment (field-independent basis, Debye-Ang):
   XX=            -85.1621   YY=            -85.8245   ZZ=            -83.9734
   XY=             -0.0235   XZ=             -0.7120   YZ=              0.2948

 Normal termination of Gaussian 16 at Thu May  6 05:26:27 2021.
