 Gaussian 16, Revision A.03,
 Gaussian 16:  EM64L-G16RevA.03 25-Dec-2016

 -------------
 #p 6-31g* mp2
 -------------

 ------------------------------------------------------
 Input file generated by CHIRIPA (05-May-2021 14:53:13)
 ------------------------------------------------------
 Symbolic Z-matrix:
 Charge =  0 Multiplicity = 1

                         Standard orientation:
 ---------------------------------------------------------------------
 Center     Atomic      Atomic             Coordinates (Angstroms)
 Number     Number       Type             X           Y           Z
 ---------------------------------------------------------------------
      1          6           0       -3.053640   -0.519627   -0.212776
      2          6           0       -2.148689   -1.570796   -0.856276
      3          6           0       -2.789263   -2.958591   -0.894785
      4          1           0       -3.305377   -0.837302    0.808329
      5          1           0       -4.000801   -0.472027   -0.767768
      6          1           0       -1.202975   -1.615419   -0.301072
      7          1           0       -1.898921   -1.250488   -1.875901
      8          1           0       -3.722944   -2.936202   -1.466046
      9          1           0       -3.023044   -3.303207    0.117731
     10          1           0       -2.125216   -3.694534   -1.358777
     11          6           0       -2.427141    0.872898   -0.166951
     12          6           0       -3.332092    1.924067    0.476548
     13          6           0       -2.691518    3.311863    0.515057
     14          1           0       -1.479980    0.825299    0.388041
     15          1           0       -2.175404    1.190574   -1.188057
     16          1           0       -3.581860    1.603760    1.496173
     17          1           0       -4.277806    1.968691   -0.078656
     18          1           0       -2.457737    3.656479   -0.497458
     19          1           0       -1.757837    3.289474    1.086318
     20          1           0       -3.355565    4.047805    0.979050
     21          6           0        1.293139   -1.911315    1.730265
     22          6           0        1.615340   -0.638683    2.213083
     23          6           0        2.085950    0.351622    1.345691
     24          6           0        2.222891    0.033441   -0.004604
     25          6           0        1.910245   -1.225139   -0.515993
     26          6           0        1.441359   -2.199973    0.369666
     27          1           0        0.928228   -2.674599    2.411171
     28          1           0        1.501222   -0.411679    3.269252
     29          1           0        2.342772    1.345124    1.692698
     30          1           0        2.034464   -1.421621   -1.574001
     31          1           0        1.191908   -3.187449   -0.008104
     32          7           0        2.720193    1.073644   -0.932543
     33          8           0        2.832007    0.768161   -2.117792
     34          8           0        2.988747    2.174740   -0.457041
 ---------------------------------------------------------------------

 SCF Done:  E(RHF) =  -669.535019448     A.U. after   15 cycles
 E2 =    -0.2093554844D+01 EUMP2 =    -0.67162857429282D+03

 The electronic state is 1-A.
 Alpha  occ. eigenvalues --  -20.60828 -20.60823 -15.85883 -11.31300 -11.27878
 Alpha  occ. eigenvalues --  -11.27844 -11.27611 -11.26907 -11.26865 -11.21694
 Alpha  occ. eigenvalues --  -11.21617 -11.21521 -11.21473 -11.21381 -11.20992
 Alpha  occ. eigenvalues --   -1.59901  -1.39454  -1.19482  -1.08867  -1.08524
 Alpha  occ. eigenvalues --   -1.04894  -1.03650  -0.96111  -0.95687  -0.87121
 Alpha  occ. eigenvalues --   -0.86279  -0.82518  -0.79717  -0.78332  -0.77553
 Alpha  occ. eigenvalues --   -0.72101  -0.71223  -0.70570  -0.65184  -0.65127
 Alpha  occ. eigenvalues --   -0.64873  -0.62229  -0.61067  -0.59504  -0.57720
 Alpha  occ. eigenvalues --   -0.55404  -0.55373  -0.53314  -0.52969  -0.52790
 Alpha  occ. eigenvalues --   -0.52524  -0.50045  -0.48864  -0.48852  -0.48032
 Alpha  occ. eigenvalues --   -0.46752  -0.45859  -0.45746  -0.44848  -0.43897
 Alpha  occ. eigenvalues --   -0.37436  -0.36397
 Alpha virt. eigenvalues --    0.04974   0.11105   0.16433   0.21001   0.22826
 Alpha virt. eigenvalues --    0.24053   0.26527   0.26818   0.27294   0.28219
 Alpha virt. eigenvalues --    0.28275   0.30425   0.31335   0.31904   0.32108

 Mulliken charges:
               1
     1  C   -0.296563
     2  C   -0.310676
     3  C   -0.475249
     4  H    0.146179
     5  H    0.149918
     6  H    0.160261
     7  H    0.152872
     8  H    0.158149
     9  H    0.151977
    10  H    0.154294
    11  C   -0.300483
    12  C   -0.299715
    13  C   -0.475474
    14  H    0.149560
    15  H    0.153061
    16  H    0.149119
    17  H    0.152210
    18  H    0.158942
    19  H    0.154469
    20  H    0.159706
    21  C   -0.170705
    22  C   -0.218464
    23  C   -0.171839
    24  C    0.160143
    25  C   -0.167666
    26  C   -0.221111
    27  H    0.226530
    28  H    0.224088
    29  H    0.276190
    30  H    0.276490
    31  H    0.225704
    32  N    0.488153
    33  O   -0.460011
    34  O   -0.460058
 Sum of Mulliken charges =  -0.00000

 Dipole moment (field-independent basis, Debye):
    X=             -1.6246    Y=             -3.5943    Z=              3.2508  Tot=              5.1114
 Quadrupole moment (field-independent basis, Debye-Ang):
   XX=           -103.4936   YY=            -94.5053   ZZ=            -91.2959
   XY=             -8.7040   XZ=              8.0994   YZ=              2.4539

 Normal termination of Gaussian 16 at Thu May  6 05:47:23 2021.
