 Gaussian 16, Revision A.03,
 Gaussian 16:  EM64L-G16RevA.03 25-Dec-2016

 -------------
 #p 6-31g* mp2
 -------------

 ------------------------------------------------------
 Input file generated by CHIRIPA (05-May-2021 14:55:22)
 ------------------------------------------------------
 Symbolic Z-matrix:
 Charge =  0 Multiplicity = 1

                         Standard orientation:
 ---------------------------------------------------------------------
 Center     Atomic      Atomic             Coordinates (Angstroms)
 Number     Number       Type             X           Y           Z
 ---------------------------------------------------------------------
      1          6           0        5.896893    0.904770    0.410366
      2          6           0        4.989083    1.747823   -0.238992
      3          6           0        3.678399    1.326785   -0.482675
      4          6           0        3.307670    0.050656   -0.061550
      5          6           0        4.188976   -0.812460    0.587773
      6          6           0        5.494651   -0.370432    0.820952
      7          1           0        6.913118    1.239995    0.595585
      8          1           0        5.298692    2.738681   -0.558973
      9          1           0        2.955162    1.959010   -0.983312
     10          1           0        3.851072   -1.794727    0.895004
     11          1           0        6.197525   -1.027300    1.325470
     12          7           0        1.922759   -0.406188   -0.313967
     13          8           0        1.620859   -1.535077    0.066957
     14          8           0        1.165389    0.373276   -0.887955
     15          6           0       -3.987043   -0.443113   -0.436541
     16          6           0       -2.923415   -1.258758    0.299262
     17          6           0       -1.852145   -1.816052   -0.638607
     18          1           0       -4.459735   -1.074173   -1.201571
     19          1           0       -3.499973    0.384197   -0.971063
     20          1           0       -3.412501   -2.083469    0.833362
     21          1           0       -2.453333   -0.625739    1.062758
     22          1           0       -1.337880   -1.003551   -1.162034
     23          1           0       -2.302498   -2.469563   -1.392733
     24          1           0       -1.101951   -2.395726   -0.091755
     25          6           0       -5.064914    0.120682    0.487611
     26          6           0       -6.128541    0.936326   -0.248192
     27          6           0       -7.199811    1.493620    0.689677
     28          1           0       -5.551984   -0.706629    1.022133
     29          1           0       -4.592221    0.751742    1.252641
     30          1           0       -6.598623    0.303308   -1.011689
     31          1           0       -5.639455    1.761037   -0.782293
     32          1           0       -6.749458    2.147132    1.443803
     33          1           0       -7.714075    0.681120    1.213103
     34          1           0       -7.950005    2.073295    0.142824
 ---------------------------------------------------------------------

 SCF Done:  E(RHF) =  -669.536096682     A.U. after   15 cycles
 E2 =    -0.2091929357D+01 EUMP2 =    -0.67162802603835D+03

 The electronic state is 1-A.
 Alpha  occ. eigenvalues --  -20.61060 -20.61048 -15.86071 -11.31364 -11.27918
 Alpha  occ. eigenvalues --  -11.27914 -11.27648 -11.26916 -11.26906 -11.20801
 Alpha  occ. eigenvalues --  -11.20430 -11.20378 -11.20065 -11.19920 -11.18620
 Alpha  occ. eigenvalues --   -1.60097  -1.39657  -1.19524  -1.08934  -1.07240
 Alpha  occ. eigenvalues --   -1.04914  -1.02198  -0.95787  -0.94604  -0.86316
 Alpha  occ. eigenvalues --   -0.85622  -0.82617  -0.78341  -0.77674  -0.76974
 Alpha  occ. eigenvalues --   -0.72293  -0.71406  -0.70632  -0.65180  -0.64919
 Alpha  occ. eigenvalues --   -0.63886  -0.62262  -0.59607  -0.58115  -0.56201
 Alpha  occ. eigenvalues --   -0.55427  -0.53924  -0.53248  -0.53006  -0.51326
 Alpha  occ. eigenvalues --   -0.51055  -0.49266  -0.48994  -0.48275  -0.46600
 Alpha  occ. eigenvalues --   -0.45375  -0.45078  -0.44514  -0.44363  -0.42404
 Alpha  occ. eigenvalues --   -0.37501  -0.36513
 Alpha virt. eigenvalues --    0.04856   0.11143   0.16365   0.21279   0.23946
 Alpha virt. eigenvalues --    0.25782   0.27202   0.27771   0.28165   0.28594
 Alpha virt. eigenvalues --    0.29587   0.30871   0.32335   0.32698   0.32819

 Mulliken charges:
               1
     1  C   -0.170453
     2  C   -0.218569
     3  C   -0.170565
     4  C    0.158497
     5  C   -0.170698
     6  C   -0.218568
     7  H    0.226240
     8  H    0.224042
     9  H    0.275830
    10  H    0.275921
    11  H    0.224076
    12  N    0.489578
    13  O   -0.457682
    14  O   -0.459214
    15  C   -0.297520
    16  C   -0.298689
    17  C   -0.482599
    18  H    0.146038
    19  H    0.150911
    20  H    0.143611
    21  H    0.149999
    22  H    0.175171
    23  H    0.139638
    24  H    0.173860
    25  C   -0.297022
    26  C   -0.298673
    27  C   -0.474944
    28  H    0.146930
    29  H    0.147806
    30  H    0.150567
    31  H    0.151065
    32  H    0.153845
    33  H    0.153943
    34  H    0.157628
 Sum of Mulliken charges =  -0.00000

 Dipole moment (field-independent basis, Debye):
    X=              5.4253    Y=              1.6467    Z=              0.8655  Tot=              5.7354
 Quadrupole moment (field-independent basis, Debye-Ang):
   XX=            -64.9460   YY=            -90.6970   ZZ=            -95.0871
   XY=              5.3303   XZ=              3.9125   YZ=             -2.5783

 Normal termination of Gaussian 16 at Thu May  6 17:35:17 2021.
