 Gaussian 16, Revision A.03,
 Gaussian 16:  EM64L-G16RevA.03 25-Dec-2016

 -------------
 #p 6-31g* mp2
 -------------

 ------------------------------------------------------
 Input file generated by CHIRIPA (05-May-2021 14:55:23)
 ------------------------------------------------------
 Symbolic Z-matrix:
 Charge =  0 Multiplicity = 1

                         Standard orientation:
 ---------------------------------------------------------------------
 Center     Atomic      Atomic             Coordinates (Angstroms)
 Number     Number       Type             X           Y           Z
 ---------------------------------------------------------------------
      1          6           0        4.257858   -2.092776    0.001285
      2          6           0        5.172003   -1.039286   -0.103680
      3          6           0        4.729746    0.286969   -0.105807
      4          6           0        3.360134    0.524546   -0.000877
      5          6           0        2.424622   -0.503499    0.105099
      6          6           0        2.889497   -1.821998    0.105156
      7          1           0        4.610199   -3.120030    0.002133
      8          1           0        6.235271   -1.246598   -0.184481
      9          1           0        5.415629    1.121581   -0.185835
     10          1           0        1.370825   -0.265454    0.184241
     11          1           0        2.177273   -2.638157    0.186802
     12          7           0        2.879964    1.924487   -0.002033
     13          8           0        1.668167    2.107294    0.091596
     14          8           0        3.724495    2.812446   -0.096546
     15          6           0       -5.112292   -0.292277   -0.267958
     16          6           0       -5.858057    0.891937    0.348042
     17          6           0       -7.277119    1.046552   -0.199822
     18          1           0       -5.074068   -0.166116   -1.358631
     19          1           0       -5.681420   -1.213148   -0.079581
     20          1           0       -5.286995    1.810116    0.159755
     21          1           0       -5.894344    0.763039    1.437393
     22          1           0       -7.867842    0.146991    0.001264
     23          1           0       -7.257043    1.200016   -1.283633
     24          1           0       -7.792028    1.899035    0.254052
     25          6           0       -3.692244   -0.459899    0.269715
     26          6           0       -2.946479   -1.644113   -0.346286
     27          6           0       -1.527418   -1.798729    0.201578
     28          1           0       -3.123116    0.460972    0.081337
     29          1           0       -3.730468   -0.586060    1.360388
     30          1           0       -2.910192   -1.515215   -1.435636
     31          1           0       -3.517541   -2.562292   -0.157998
     32          1           0       -1.547494   -1.952193    1.285389
     33          1           0       -0.936694   -0.899167    0.000492
     34          1           0       -1.012508   -2.651212   -0.252296
 ---------------------------------------------------------------------

 SCF Done:  E(RHF) =  -669.535710044     A.U. after   15 cycles
 E2 =    -0.2091039483D+01 EUMP2 =    -0.67162674952685D+03

 The electronic state is 1-A.
 Alpha  occ. eigenvalues --  -20.60736 -20.60730 -15.85786 -11.31114 -11.27694
 Alpha  occ. eigenvalues --  -11.27648 -11.27434 -11.26709 -11.26675 -11.21925
 Alpha  occ. eigenvalues --  -11.21740 -11.21512 -11.21445 -11.21362 -11.20980
 Alpha  occ. eigenvalues --   -1.59810  -1.39365  -1.19290  -1.08695  -1.08519
 Alpha  occ. eigenvalues --   -1.04687  -1.03693  -0.96171  -0.95533  -0.87204
 Alpha  occ. eigenvalues --   -0.86090  -0.82364  -0.79769  -0.78289  -0.77411
 Alpha  occ. eigenvalues --   -0.72007  -0.71131  -0.70412  -0.65148  -0.64942
 Alpha  occ. eigenvalues --   -0.64695  -0.62074  -0.61063  -0.59558  -0.57754
 Alpha  occ. eigenvalues --   -0.55488  -0.55171  -0.53024  -0.52898  -0.52871
 Alpha  occ. eigenvalues --   -0.52502  -0.50096  -0.48764  -0.48761  -0.48071
 Alpha  occ. eigenvalues --   -0.46761  -0.45846  -0.45732  -0.44777  -0.43930
 Alpha  occ. eigenvalues --   -0.37279  -0.36288
 Alpha virt. eigenvalues --    0.05114   0.11358   0.16610   0.20277   0.22884
 Alpha virt. eigenvalues --    0.24001   0.25483   0.26375   0.26961   0.27958
 Alpha virt. eigenvalues --    0.29118   0.29453   0.31459   0.31673   0.32468

 Mulliken charges:
               1
     1  C   -0.170700
     2  C   -0.219021
     3  C   -0.170261
     4  C    0.158960
     5  C   -0.179055
     6  C   -0.223333
     7  H    0.225319
     8  H    0.223116
     9  H    0.275313
    10  H    0.287113
    11  H    0.225484
    12  N    0.487125
    13  O   -0.461246
    14  O   -0.460475
    15  C   -0.298685
    16  C   -0.300315
    17  C   -0.475866
    18  H    0.150356
    19  H    0.148449
    20  H    0.155148
    21  H    0.151971
    22  H    0.154293
    23  H    0.155469
    24  H    0.161014
    25  C   -0.300546
    26  C   -0.298237
    27  C   -0.485329
    28  H    0.156517
    29  H    0.149897
    30  H    0.154237
    31  H    0.152536
    32  H    0.157853
    33  H    0.158477
    34  H    0.154422
 Sum of Mulliken charges =  -0.00000

 Dipole moment (field-independent basis, Debye):
    X=              1.5443    Y=             -4.8865    Z=              0.0047  Tot=              5.1248
 Quadrupole moment (field-independent basis, Debye-Ang):
   XX=            -79.6195   YY=            -99.8303   ZZ=            -95.1691
   XY=            -13.8410   XZ=             -1.0212   YZ=             -0.5547

 Normal termination of Gaussian 16 at Thu May  6 19:15:17 2021.
