 Gaussian 16, Revision A.03,
 Gaussian 16:  EM64L-G16RevA.03 25-Dec-2016

 -------------
 #p 6-31g* mp2
 -------------

 ------------------------------------------------------
 Input file generated by CHIRIPA (05-May-2021 14:53:14)
 ------------------------------------------------------
 Symbolic Z-matrix:
 Charge =  0 Multiplicity = 1

                         Standard orientation:
 ---------------------------------------------------------------------
 Center     Atomic      Atomic             Coordinates (Angstroms)
 Number     Number       Type             X           Y           Z
 ---------------------------------------------------------------------
      1          6           0       -3.649971   -0.315228    0.386732
      2          6           0       -2.628220   -1.198755   -0.329780
      3          6           0       -1.369687   -1.442266    0.503642
      4          1           0       -3.182074    0.646853    0.636566
      5          1           0       -3.926084   -0.785579    1.340633
      6          1           0       -2.355155   -0.727560   -1.282684
      7          1           0       -3.098661   -2.158773   -0.578108
      8          1           0       -1.622541   -1.934058    1.448527
      9          1           0       -0.874811   -0.494713    0.739947
     10          1           0       -0.652839   -2.076165   -0.027547
     11          6           0       -4.913594   -0.062711   -0.433768
     12          6           0       -5.935345    0.820816    0.282744
     13          6           0       -7.193878    1.064327   -0.550678
     14          1           0       -4.637480    0.407640   -1.387669
     15          1           0       -5.381491   -1.024792   -0.683603
     16          1           0       -5.464904    1.780834    0.531072
     17          1           0       -6.208410    0.349621    1.235648
     18          1           0       -7.688754    0.116773   -0.786983
     19          1           0       -6.941024    1.556119   -1.495563
     20          1           0       -7.910726    1.698226   -0.019490
     21          6           0        3.706185    2.644578    0.047252
     22          6           0        4.588661    1.817782   -0.655717
     23          6           0        4.398350    0.432933   -0.678604
     24          6           0        3.310238   -0.093763    0.015582
     25          6           0        2.413588    0.703683    0.725082
     26          6           0        2.623374    2.085874    0.734196
     27          1           0        3.861587    3.719330    0.059682
     28          1           0        5.430444    2.248908   -1.190110
     29          1           0        5.066165   -0.230361   -1.214776
     30          1           0        1.583502    0.244722    1.248274
     31          1           0        1.936421    2.725541    1.280974
     32          7           0        3.098456   -1.558434   -0.001358
     33          8           0        2.132193   -1.997808    0.618256
     34          8           0        3.902736   -2.239335   -0.633928
 ---------------------------------------------------------------------

 SCF Done:  E(RHF) =  -669.535580010     A.U. after   15 cycles
 E2 =    -0.2091460884D+01 EUMP2 =    -0.67162704089379D+03

 The electronic state is 1-A.
 Alpha  occ. eigenvalues --  -20.60832 -20.60824 -15.85864 -11.31210 -11.27783
 Alpha  occ. eigenvalues --  -11.27759 -11.27527 -11.26797 -11.26785 -11.21522
 Alpha  occ. eigenvalues --  -11.21236 -11.21190 -11.21132 -11.21012 -11.20383
 Alpha  occ. eigenvalues --   -1.59897  -1.39451  -1.19384  -1.08786  -1.08213
 Alpha  occ. eigenvalues --   -1.04785  -1.03251  -0.95713  -0.95591  -0.86694
 Alpha  occ. eigenvalues --   -0.86182  -0.82456  -0.79327  -0.78037  -0.77489
 Alpha  occ. eigenvalues --   -0.72090  -0.71215  -0.70497  -0.65040  -0.64872
 Alpha  occ. eigenvalues --   -0.64778  -0.62144  -0.60658  -0.59040  -0.57285
 Alpha  occ. eigenvalues --   -0.55307  -0.54987  -0.53117  -0.52891  -0.52300
 Alpha  occ. eigenvalues --   -0.52101  -0.49660  -0.48848  -0.48835  -0.47632
 Alpha  occ. eigenvalues --   -0.46388  -0.45569  -0.45505  -0.44872  -0.43418
 Alpha  occ. eigenvalues --   -0.37367  -0.36385
 Alpha virt. eigenvalues --    0.04994   0.11238   0.16470   0.20992   0.23056
 Alpha virt. eigenvalues --    0.24394   0.25877   0.27005   0.27705   0.27793
 Alpha virt. eigenvalues --    0.29202   0.30543   0.31480   0.31942   0.32603

 Mulliken charges:
               1
     1  C   -0.297129
     2  C   -0.301446
     3  C   -0.475095
     4  H    0.144477
     5  H    0.149543
     6  H    0.149432
     7  H    0.152960
     8  H    0.154882
     9  H    0.138992
    10  H    0.182261
    11  C   -0.297821
    12  C   -0.299160
    13  C   -0.475519
    14  H    0.148552
    15  H    0.150490
    16  H    0.149852
    17  H    0.152007
    18  H    0.155740
    19  H    0.154634
    20  H    0.159476
    21  C   -0.170534
    22  C   -0.218714
    23  C   -0.170635
    24  C    0.157038
    25  C   -0.173880
    26  C   -0.219944
    27  H    0.225652
    28  H    0.223491
    29  H    0.275579
    30  H    0.282714
    31  H    0.223531
    32  N    0.488614
    33  O   -0.459949
    34  O   -0.460090
 Sum of Mulliken charges =  -0.00000

 Dipole moment (field-independent basis, Debye):
    X=              0.8835    Y=              5.0185    Z=              0.0401  Tot=              5.0958
 Quadrupole moment (field-independent basis, Debye-Ang):
   XX=            -87.9838   YY=            -95.3463   ZZ=            -93.8595
   XY=             17.5487   XZ=             -3.1508   YZ=              0.2160

 Normal termination of Gaussian 16 at Thu May  6 18:47:01 2021.
