 Gaussian 16, Revision A.03,
 Gaussian 16:  EM64L-G16RevA.03 25-Dec-2016

 -------------
 #p 6-31g* mp2
 -------------

 ------------------------------------------------------
 Input file generated by CHIRIPA (05-May-2021 14:53:12)
 ------------------------------------------------------
 Symbolic Z-matrix:
 Charge =  0 Multiplicity = 1

                         Standard orientation:
 ---------------------------------------------------------------------
 Center     Atomic      Atomic             Coordinates (Angstroms)
 Number     Number       Type             X           Y           Z
 ---------------------------------------------------------------------
      1          6           0       -2.845448    0.576178   -0.219418
      2          6           0       -2.089037    1.887840   -0.006420
      3          6           0       -0.637955    1.817559   -0.483092
      4          1           0       -2.322542   -0.231521    0.310806
      5          1           0       -2.821333    0.316256   -1.286777
      6          1           0       -2.115756    2.145925    1.060020
      7          1           0       -2.613910    2.692546   -0.537055
      8          1           0       -0.594419    1.584150   -1.551841
      9          1           0       -0.093435    1.034424    0.054308
     10          1           0       -0.115890    2.765799   -0.321384
     11          6           0       -4.297468    0.630736    0.252164
     12          6           0       -5.053879   -0.680927    0.039167
     13          6           0       -6.504961   -0.610646    0.515838
     14          1           0       -4.321583    0.890657    1.319523
     15          1           0       -4.820373    1.438434   -0.278060
     16          1           0       -4.529005   -1.485632    0.569801
     17          1           0       -5.027159   -0.939011   -1.027274
     18          1           0       -7.049481    0.172490   -0.021562
     19          1           0       -6.548496   -0.377237    1.584587
     20          1           0       -7.027026   -1.558885    0.354130
     21          6           0        4.705596    1.040006    0.629616
     22          6           0        4.093503    0.236069    1.596854
     23          6           0        3.031412   -0.605217    1.252256
     24          6           0        2.605028   -0.617572   -0.074897
     25          6           0        3.194388    0.171604   -1.061379
     26          6           0        4.254880    1.005269   -0.694080
     27          1           0        5.530033    1.690577    0.906125
     28          1           0        4.441437    0.260988    2.625622
     29          1           0        2.539474   -1.238014    1.980942
     30          1           0        2.825449    0.125076   -2.078795
     31          1           0        4.728345    1.628524   -1.447357
     32          7           0        1.481486   -1.504170   -0.451723
     33          8           0        1.124500   -1.496745   -1.627794
     34          8           0        0.979114   -2.189723    0.436126
 ---------------------------------------------------------------------

 SCF Done:  E(RHF) =  -669.535714342     A.U. after   15 cycles
 E2 =    -0.2092023131D+01 EUMP2 =    -0.67162773747293D+03

 The electronic state is 1-A.
 Alpha  occ. eigenvalues --  -20.60810 -20.60802 -15.85846 -11.31189 -11.27767
 Alpha  occ. eigenvalues --  -11.27753 -11.27504 -11.26777 -11.26764 -11.21106
 Alpha  occ. eigenvalues --  -11.20936 -11.20756 -11.20685 -11.20583 -11.20540
 Alpha  occ. eigenvalues --   -1.59877  -1.39430  -1.19366  -1.08769  -1.07795
 Alpha  occ. eigenvalues --   -1.04765  -1.02978  -0.95606  -0.95434  -0.86460
 Alpha  occ. eigenvalues --   -0.86165  -0.82438  -0.79041  -0.77577  -0.77484
 Alpha  occ. eigenvalues --   -0.72072  -0.71212  -0.70476  -0.65021  -0.64772
 Alpha  occ. eigenvalues --   -0.64426  -0.62114  -0.60382  -0.58798  -0.57034
 Alpha  occ. eigenvalues --   -0.55272  -0.54733  -0.53110  -0.52860  -0.52155
 Alpha  occ. eigenvalues --   -0.51847  -0.49381  -0.48835  -0.48822  -0.47357
 Alpha  occ. eigenvalues --   -0.46063  -0.45137  -0.45047  -0.44796  -0.43208
 Alpha  occ. eigenvalues --   -0.37328  -0.36361
 Alpha virt. eigenvalues --    0.05035   0.11267   0.16524   0.21400   0.23448
 Alpha virt. eigenvalues --    0.24710   0.27179   0.27309   0.27785   0.28356
 Alpha virt. eigenvalues --    0.28521   0.30954   0.31514   0.32171   0.32383

 Mulliken charges:
               1
     1  C   -0.300721
     2  C   -0.299295
     3  C   -0.475398
     4  H    0.159577
     5  H    0.153461
     6  H    0.149138
     7  H    0.149483
     8  H    0.160437
     9  H    0.150874
    10  H    0.154496
    11  C   -0.298130
    12  C   -0.299826
    13  C   -0.475444
    14  H    0.147021
    15  H    0.146745
    16  H    0.155829
    17  H    0.153119
    18  H    0.153338
    19  H    0.153620
    20  H    0.159670
    21  C   -0.170644
    22  C   -0.218269
    23  C   -0.172264
    24  C    0.156396
    25  C   -0.169162
    26  C   -0.218469
    27  H    0.225582
    28  H    0.223377
    29  H    0.275452
    30  H    0.275721
    31  H    0.223489
    32  N    0.491163
    33  O   -0.458843
    34  O   -0.461521
 Sum of Mulliken charges =  -0.00000

 Dipole moment (field-independent basis, Debye):
    X=              4.0459    Y=              3.0135    Z=              1.2574  Tot=              5.1992
 Quadrupole moment (field-independent basis, Debye-Ang):
   XX=            -76.2713   YY=            -99.0597   ZZ=            -89.7149
   XY=              6.1381   XZ=              3.5798   YZ=             -3.1052

 Normal termination of Gaussian 16 at Thu May  6 13:38:33 2021.
