 Gaussian 16, Revision A.03,
 Gaussian 16:  EM64L-G16RevA.03 25-Dec-2016

 -------------
 #p 6-31g* mp2
 -------------

 ------------------------------------------------------
 Input file generated by CHIRIPA (05-May-2021 14:55:21)
 ------------------------------------------------------
 Symbolic Z-matrix:
 Charge =  0 Multiplicity = 1

                         Standard orientation:
 ---------------------------------------------------------------------
 Center     Atomic      Atomic             Coordinates (Angstroms)
 Number     Number       Type             X           Y           Z
 ---------------------------------------------------------------------
      1          6           0       -0.900450   -1.709495    0.379063
      2          6           0       -1.737190   -1.846784   -0.733384
      3          6           0       -2.836249   -0.999725   -0.903995
      4          6           0       -3.070123   -0.021882    0.061622
      5          6           0       -2.254838    0.139905    1.180740
      6          6           0       -1.161483   -0.718336    1.330896
      7          1           0       -0.048890   -2.371854    0.503653
      8          1           0       -1.536891   -2.615636   -1.474188
      9          1           0       -3.500244   -1.083948   -1.755720
     10          1           0       -2.480040    0.915762    1.902368
     11          1           0       -0.513359   -0.609404    2.195832
     12          7           0       -4.230628    0.880780   -0.108169
     13          8           0       -4.415113    1.734302    0.756760
     14          8           0       -4.933772    0.717674   -1.102967
     15          6           0        3.470199    0.891216   -0.405701
     16          6           0        4.236723    2.077595    0.179902
     17          6           0        3.795877    3.416581   -0.412185
     18          1           0        3.608656    0.875252   -1.495434
     19          1           0        2.395220    1.035056   -0.229275
     20          1           0        5.310048    1.930886    0.003643
     21          1           0        4.096582    2.090625    1.268390
     22          1           0        2.731306    3.589263   -0.223851
     23          1           0        3.951666    3.428616   -1.495783
     24          1           0        4.356658    4.250962    0.020474
     25          6           0        3.899677   -0.454347    0.176310
     26          6           0        3.133153   -1.640727   -0.409292
     27          6           0        3.573998   -2.979712    0.182795
     28          1           0        4.974655   -0.598187   -0.000116
     29          1           0        3.761221   -0.438383    1.266044
     30          1           0        3.273293   -1.653756   -1.497780
     31          1           0        2.059828   -1.494016   -0.233034
     32          1           0        3.418209   -2.991747    1.266394
     33          1           0        4.638570   -3.152394   -0.005540
     34          1           0        3.013217   -3.814092   -0.249865
 ---------------------------------------------------------------------

 SCF Done:  E(RHF) =  -669.535413665     A.U. after   15 cycles
 E2 =    -0.2091687087D+01 EUMP2 =    -0.67162710075246D+03

 The electronic state is 1-A.
 Alpha  occ. eigenvalues --  -20.60791 -20.60786 -15.85846 -11.31229 -11.27799
 Alpha  occ. eigenvalues --  -11.27790 -11.27518 -11.26826 -11.26803 -11.22513
 Alpha  occ. eigenvalues --  -11.22115 -11.22054 -11.22044 -11.21912 -11.21386
 Alpha  occ. eigenvalues --   -1.59867  -1.39420  -1.19403  -1.09102  -1.08793
 Alpha  occ. eigenvalues --   -1.04805  -1.04203  -0.96637  -0.95627  -0.87648
 Alpha  occ. eigenvalues --   -0.86201  -0.82461  -0.80283  -0.78876  -0.77500
 Alpha  occ. eigenvalues --   -0.72063  -0.71190  -0.70534  -0.65745  -0.65052
 Alpha  occ. eigenvalues --   -0.64802  -0.62150  -0.61614  -0.60040  -0.58243
 Alpha  occ. eigenvalues --   -0.55950  -0.55273  -0.53341  -0.53143  -0.53041
 Alpha  occ. eigenvalues --   -0.52895  -0.50572  -0.48827  -0.48817  -0.48574
 Alpha  occ. eigenvalues --   -0.47317  -0.46415  -0.46326  -0.44821  -0.44439
 Alpha  occ. eigenvalues --   -0.37352  -0.36410
 Alpha virt. eigenvalues --    0.04988   0.11222   0.16352   0.19961   0.22715
 Alpha virt. eigenvalues --    0.23677   0.25948   0.26511   0.26927   0.27538
 Alpha virt. eigenvalues --    0.29218   0.30715   0.30851   0.31141   0.31876

 Mulliken charges:
               1
     1  C   -0.170601
     2  C   -0.219691
     3  C   -0.170805
     4  C    0.158837
     5  C   -0.170897
     6  C   -0.220419
     7  H    0.229579
     8  H    0.224040
     9  H    0.275820
    10  H    0.275688
    11  H    0.223483
    12  N    0.488052
    13  O   -0.460353
    14  O   -0.460207
    15  C   -0.299511
    16  C   -0.300027
    17  C   -0.476170
    18  H    0.151397
    19  H    0.150565
    20  H    0.152804
    21  H    0.151033
    22  H    0.156551
    23  H    0.156299
    24  H    0.161742
    25  C   -0.297620
    26  C   -0.305914
    27  C   -0.477404
    28  H    0.152360
    29  H    0.147331
    30  H    0.155589
    31  H    0.146862
    32  H    0.153374
    33  H    0.160954
    34  H    0.157260
 Sum of Mulliken charges =  -0.00000

 Dipole moment (field-independent basis, Debye):
    X=              4.1802    Y=             -3.1159    Z=              0.5444  Tot=              5.2420
 Quadrupole moment (field-independent basis, Debye-Ang):
   XX=           -119.3279   YY=            -95.1184   ZZ=            -90.8287
   XY=             10.6330   XZ=             -1.1471   YZ=              2.5584

 Normal termination of Gaussian 16 at Wed May  5 18:57:26 2021.
