 Gaussian 16, Revision A.03,
 Gaussian 16:  EM64L-G16RevA.03 25-Dec-2016

 -------------
 #p 6-31g* mp2
 -------------

 ------------------------------------------------------
 Input file generated by CHIRIPA (05-May-2021 14:53:14)
 ------------------------------------------------------
 Symbolic Z-matrix:
 Charge =  0 Multiplicity = 1

                         Standard orientation:
 ---------------------------------------------------------------------
 Center     Atomic      Atomic             Coordinates (Angstroms)
 Number     Number       Type             X           Y           Z
 ---------------------------------------------------------------------
      1          6           0       -3.624551    0.079557    0.406244
      2          6           0       -2.661849   -1.095325    0.581859
      3          6           0       -1.256904   -0.652265    0.991275
      4          1           0       -3.220374    0.766699   -0.349681
      5          1           0       -3.676999    0.645322    1.346752
      6          1           0       -2.612294   -1.659511   -0.358277
      7          1           0       -3.068459   -1.779847    1.337315
      8          1           0       -1.286003   -0.107885    1.940698
      9          1           0       -0.827246    0.013134    0.235472
     10          1           0       -0.585123   -1.507934    1.111278
     11          6           0       -5.033098   -0.347347   -0.002994
     12          6           0       -5.995800    0.827536   -0.178609
     13          6           0       -7.400745    0.384476   -0.588025
     14          1           0       -4.980650   -0.913112   -0.943502
     15          1           0       -5.437275   -1.034489    0.752931
     16          1           0       -5.589190    1.512057   -0.934065
     17          1           0       -6.045355    1.391721    0.761527
     18          1           0       -7.830403   -0.280924    0.167778
     19          1           0       -7.371646   -0.159904   -1.537448
     20          1           0       -8.072526    1.240145   -0.708028
     21          6           0        3.348113   -2.411253   -0.345235
     22          6           0        2.199107   -1.671541   -0.643787
     23          6           0        2.206347   -0.277127   -0.543251
     24          6           0        3.385160    0.347829   -0.139372
     25          6           0        4.546059   -0.361385    0.164961
     26          6           0        4.515863   -1.754972    0.057476
     27          1           0        3.333572   -3.494146   -0.426032
     28          1           0        1.290797   -2.178543   -0.956782
     29          1           0        1.331046    0.320046   -0.768311
     30          1           0        5.436542    0.172198    0.474390
     31          1           0        5.409686   -2.326873    0.289972
     32          7           0        3.404976    1.823595   -0.029261
     33          8           0        4.456145    2.350393    0.328736
     34          8           0        2.368961    2.425557   -0.303037
 ---------------------------------------------------------------------

 SCF Done:  E(RHF) =  -669.535015025     A.U. after   15 cycles
 E2 =    -0.2091665281D+01 EUMP2 =    -0.67162668030582D+03

 The electronic state is 1-A.
 Alpha  occ. eigenvalues --  -20.60725 -20.60720 -15.85778 -11.31125 -11.27710
 Alpha  occ. eigenvalues --  -11.27681 -11.27457 -11.26723 -11.26699 -11.22038
 Alpha  occ. eigenvalues --  -11.21707 -11.21630 -11.21605 -11.21553 -11.21162
 Alpha  occ. eigenvalues --   -1.59800  -1.39354  -1.19309  -1.08708  -1.08681
 Alpha  occ. eigenvalues --   -1.04715  -1.03814  -0.96272  -0.95542  -0.87292
 Alpha  occ. eigenvalues --   -0.86112  -0.82376  -0.79885  -0.78470  -0.77418
 Alpha  occ. eigenvalues --   -0.71998  -0.71121  -0.70433  -0.65322  -0.64961
 Alpha  occ. eigenvalues --   -0.64728  -0.62136  -0.61170  -0.59645  -0.57869
 Alpha  occ. eigenvalues --   -0.55592  -0.55188  -0.53201  -0.52948  -0.52806
 Alpha  occ. eigenvalues --   -0.52543  -0.50195  -0.48755  -0.48752  -0.48184
 Alpha  occ. eigenvalues --   -0.46907  -0.46014  -0.45928  -0.44762  -0.44058
 Alpha  occ. eigenvalues --   -0.37296  -0.36277
 Alpha virt. eigenvalues --    0.05098   0.11287   0.16531   0.20364   0.22811
 Alpha virt. eigenvalues --    0.23974   0.25679   0.26681   0.26949   0.27953
 Alpha virt. eigenvalues --    0.29061   0.30121   0.31439   0.31714   0.31797

 Mulliken charges:
               1
     1  C   -0.298921
     2  C   -0.300118
     3  C   -0.480357
     4  H    0.151819
     5  H    0.152439
     6  H    0.147460
     7  H    0.153408
     8  H    0.162999
     9  H    0.152048
    10  H    0.157170
    11  C   -0.298453
    12  C   -0.300090
    13  C   -0.475865
    14  H    0.148507
    15  H    0.149586
    16  H    0.153315
    17  H    0.153181
    18  H    0.155014
    19  H    0.154805
    20  H    0.161324
    21  C   -0.171432
    22  C   -0.219939
    23  C   -0.170596
    24  C    0.158230
    25  C   -0.170760
    26  C   -0.218746
    27  H    0.225308
    28  H    0.224439
    29  H    0.279059
    30  H    0.275408
    31  H    0.223166
    32  N    0.487887
    33  O   -0.460632
    34  O   -0.460662
 Sum of Mulliken charges =  -0.00000

 Dipole moment (field-independent basis, Debye):
    X=             -0.1693    Y=             -5.1496    Z=             -0.3279  Tot=              5.1628
 Quadrupole moment (field-independent basis, Debye-Ang):
   XX=            -91.4726   YY=            -99.1526   ZZ=            -94.0694
   XY=            -18.3589   XZ=             -0.3983   YZ=              0.4459

 Normal termination of Gaussian 16 at Thu May  6 02:38:04 2021.
