 Gaussian 16, Revision A.03,
 Gaussian 16:  EM64L-G16RevA.03 25-Dec-2016

 -------------
 #p 6-31g* mp2
 -------------

 ------------------------------------------------------
 Input file generated by CHIRIPA (05-May-2021 14:55:19)
 ------------------------------------------------------
 Symbolic Z-matrix:
 Charge =  0 Multiplicity = 1

                         Standard orientation:
 ---------------------------------------------------------------------
 Center     Atomic      Atomic             Coordinates (Angstroms)
 Number     Number       Type             X           Y           Z
 ---------------------------------------------------------------------
      1          6           0        3.079987   -1.492994    1.120028
      2          6           0        3.356287   -1.128500   -0.201836
      3          6           0        2.804771    0.034400   -0.747767
      4          6           0        1.977506    0.812977    0.060158
      5          6           0        1.683353    0.476487    1.380589
      6          6           0        2.245873   -0.690751    1.905636
      7          1           0        3.512692   -2.398047    1.536009
      8          1           0        4.003721   -1.749616   -0.814281
      9          1           0        3.002023    0.340107   -1.768087
     10          1           0        1.034271    1.115837    1.966542
     11          1           0        2.029550   -0.971355    2.932530
     12          7           0        1.387816    2.046383   -0.506741
     13          8           0        0.662109    2.715264    0.225779
     14          8           0        1.662490    2.320892   -1.672861
     15          6           0       -2.355729   -1.346519   -0.612559
     16          6           0       -0.865465   -1.567326   -0.351137
     17          6           0       -0.279943   -2.703149   -1.190699
     18          1           0       -2.900119   -2.277490   -0.403091
     19          1           0       -2.505601   -1.130060   -1.679367
     20          1           0       -0.718292   -1.781940    0.715117
     21          1           0       -0.324583   -0.635666   -0.561068
     22          1           0       -0.397542   -2.492939   -2.258681
     23          1           0       -0.793489   -3.645726   -0.975244
     24          1           0        0.786365   -2.843722   -0.988002
     25          6           0       -2.955489   -0.214305    0.219371
     26          6           0       -4.445753    0.006504   -0.042053
     27          6           0       -5.031273    1.142326    0.797510
     28          1           0       -2.805616   -0.430764    1.286179
     29          1           0       -2.411098    0.716667    0.009902
     30          1           0       -4.986634   -0.925157    0.167879
     31          1           0       -4.592925    0.221117   -1.108306
     32          1           0       -4.517729    2.084903    0.582055
     33          1           0       -4.913676    0.932116    1.865491
     34          1           0       -6.097582    1.282899    0.594812
 ---------------------------------------------------------------------

 SCF Done:  E(RHF) =  -669.534059599     A.U. after   15 cycles
 E2 =    -0.2095357083D+01 EUMP2 =    -0.67162941668219D+03

 The electronic state is 1-A.
 Alpha  occ. eigenvalues --  -20.60884 -20.60874 -15.85920 -11.31204 -11.27837
 Alpha  occ. eigenvalues --  -11.27800 -11.27603 -11.26859 -11.26836 -11.21447
 Alpha  occ. eigenvalues --  -11.21291 -11.21168 -11.21054 -11.21052 -11.20709
 Alpha  occ. eigenvalues --   -1.59954  -1.39506  -1.19451  -1.08854  -1.08201
 Alpha  occ. eigenvalues --   -1.04843  -1.03324  -0.95775  -0.95681  -0.86796
 Alpha  occ. eigenvalues --   -0.86244  -0.82514  -0.79418  -0.78021  -0.77558
 Alpha  occ. eigenvalues --   -0.72143  -0.71292  -0.70554  -0.65100  -0.64860
 Alpha  occ. eigenvalues --   -0.64823  -0.62186  -0.60743  -0.59232  -0.57455
 Alpha  occ. eigenvalues --   -0.55353  -0.55069  -0.53181  -0.52935  -0.52368
 Alpha  occ. eigenvalues --   -0.52200  -0.49718  -0.48902  -0.48899  -0.47721
 Alpha  occ. eigenvalues --   -0.46462  -0.45559  -0.45488  -0.44878  -0.43584
 Alpha  occ. eigenvalues --   -0.37312  -0.36367
 Alpha virt. eigenvalues --    0.04943   0.11126   0.16410   0.21280   0.23020
 Alpha virt. eigenvalues --    0.24451   0.26731   0.26890   0.27621   0.28032
 Alpha virt. eigenvalues --    0.28471   0.30846   0.31637   0.31805   0.32075

 Mulliken charges:
               1
     1  C   -0.170734
     2  C   -0.217757
     3  C   -0.170783
     4  C    0.155754
     5  C   -0.167246
     6  C   -0.215885
     7  H    0.226324
     8  H    0.224250
     9  H    0.275985
    10  H    0.275905
    11  H    0.223749
    12  N    0.489769
    13  O   -0.460693
    14  O   -0.460426
    15  C   -0.297648
    16  C   -0.298467
    17  C   -0.478227
    18  H    0.146977
    19  H    0.151211
    20  H    0.146512
    21  H    0.153940
    22  H    0.155595
    23  H    0.152722
    24  H    0.157268
    25  C   -0.301502
    26  C   -0.299230
    27  C   -0.476441
    28  H    0.144248
    29  H    0.159547
    30  H    0.149415
    31  H    0.153354
    32  H    0.160700
    33  H    0.152695
    34  H    0.159118
 Sum of Mulliken charges =  -0.00000

 Dipole moment (field-independent basis, Debye):
    X=              2.1918    Y=             -4.2051    Z=              2.0130  Tot=              5.1516
 Quadrupole moment (field-independent basis, Debye-Ang):
   XX=            -86.3804   YY=           -102.8861   ZZ=            -90.6330
   XY=             -7.2906   XZ=              2.1479   YZ=              1.2126

 Normal termination of Gaussian 16 at Wed May  5 18:54:07 2021.
