 Gaussian 16, Revision A.03,
 Gaussian 16:  EM64L-G16RevA.03 25-Dec-2016

 -------------
 #p 6-31g* mp2
 -------------

 ------------------------------------------------------
 Input file generated by CHIRIPA (05-May-2021 14:53:13)
 ------------------------------------------------------
 Symbolic Z-matrix:
 Charge =  0 Multiplicity = 1

                         Standard orientation:
 ---------------------------------------------------------------------
 Center     Atomic      Atomic             Coordinates (Angstroms)
 Number     Number       Type             X           Y           Z
 ---------------------------------------------------------------------
      1          6           0        3.952930    1.057189   -0.333074
      2          6           0        2.964182    2.095945    0.197349
      3          6           0        3.093636    3.447934   -0.504905
      4          1           0        4.976022    1.438598   -0.211606
      5          1           0        3.793821    0.927438   -1.412539
      6          1           0        3.124183    2.222683    1.275752
      7          1           0        1.943334    1.711938    0.074780
      8          1           0        2.913101    3.342679   -1.579582
      9          1           0        4.100660    3.856326   -0.371786
     10          1           0        2.377571    4.175509   -0.110259
     11          6           0        3.835745   -0.299581    0.359149
     12          6           0        4.824492   -1.338337   -0.171274
     13          6           0        4.695038   -2.690326    0.530980
     14          1           0        3.994854   -0.169830    1.438614
     15          1           0        2.812652   -0.680990    0.237681
     16          1           0        5.845341   -0.954330   -0.048705
     17          1           0        4.664491   -1.465075   -1.249677
     18          1           0        3.688015   -3.098718    0.397861
     19          1           0        4.875574   -2.585071    1.605657
     20          1           0        5.411103   -3.417901    0.136334
     21          6           0       -0.904755   -1.608993   -0.278654
     22          6           0       -0.858621   -0.272971    0.132974
     23          6           0       -2.036753    0.464201    0.285069
     24          6           0       -3.249115   -0.168999    0.015769
     25          6           0       -3.327849   -1.498518   -0.395901
     26          6           0       -2.137049   -2.216431   -0.541315
     27          1           0        0.015366   -2.174165   -0.394209
     28          1           0        0.096970    0.201364    0.337664
     29          1           0       -2.029951    1.499911    0.602366
     30          1           0       -4.295440   -1.944075   -0.592534
     31          1           0       -2.175908   -3.253856   -0.861134
     32          7           0       -4.503056    0.601217    0.173248
     33          8           0       -5.558477    0.020332   -0.070263
     34          8           0       -4.406730    1.771213    0.537210
 ---------------------------------------------------------------------

 SCF Done:  E(RHF) =  -669.535445800     A.U. after   15 cycles
 E2 =    -0.2091616291D+01 EUMP2 =    -0.67162706209115D+03

 The electronic state is 1-A.
 Alpha  occ. eigenvalues --  -20.60736 -20.60731 -15.85789 -11.31152 -11.27724
 Alpha  occ. eigenvalues --  -11.27713 -11.27468 -11.26742 -11.26701 -11.22606
 Alpha  occ. eigenvalues --  -11.22504 -11.22441 -11.22286 -11.21934 -11.21780
 Alpha  occ. eigenvalues --   -1.59811  -1.39365  -1.19324  -1.09389  -1.08721
 Alpha  occ. eigenvalues --   -1.04728  -1.04418  -0.96846  -0.95557  -0.87858
 Alpha  occ. eigenvalues --   -0.86130  -0.82391  -0.80493  -0.79227  -0.77433
 Alpha  occ. eigenvalues --   -0.72008  -0.71134  -0.70439  -0.66068  -0.64977
 Alpha  occ. eigenvalues --   -0.64713  -0.62125  -0.61772  -0.60212  -0.58464
 Alpha  occ. eigenvalues --   -0.56133  -0.55235  -0.53521  -0.53266  -0.53057
 Alpha  occ. eigenvalues --   -0.52839  -0.50786  -0.48824  -0.48763  -0.48743
 Alpha  occ. eigenvalues --   -0.47532  -0.46745  -0.46653  -0.44771  -0.44686
 Alpha  occ. eigenvalues --   -0.37308  -0.36329
 Alpha virt. eigenvalues --    0.05098   0.11307   0.16573   0.18281   0.22557
 Alpha virt. eigenvalues --    0.22920   0.24714   0.26113   0.26714   0.27238
 Alpha virt. eigenvalues --    0.29411   0.30730   0.30915   0.31294   0.31983

 Mulliken charges:
               1
     1  C   -0.298889
     2  C   -0.305579
     3  C   -0.475908
     4  H    0.154312
     5  H    0.151302
     6  H    0.155170
     7  H    0.145317
     8  H    0.157389
     9  H    0.158435
    10  H    0.163195
    11  C   -0.298691
    12  C   -0.300766
    13  C   -0.474894
    14  H    0.153128
    15  H    0.138350
    16  H    0.156058
    17  H    0.152819
    18  H    0.149201
    19  H    0.157847
    20  H    0.163710
    21  C   -0.173748
    22  C   -0.228597
    23  C   -0.173518
    24  C    0.158879
    25  C   -0.171177
    26  C   -0.218437
    27  H    0.225751
    28  H    0.237833
    29  H    0.275724
    30  H    0.275496
    31  H    0.223271
    32  N    0.488049
    33  O   -0.460615
    34  O   -0.460418
 Sum of Mulliken charges =  -0.00000

 Dipole moment (field-independent basis, Debye):
    X=              4.6929    Y=             -2.6273    Z=             -0.5597  Tot=              5.4073
 Quadrupole moment (field-independent basis, Debye-Ang):
   XX=           -120.7835   YY=            -91.3946   ZZ=            -94.8520
   XY=             11.0357   XZ=              3.2235   YZ=              1.9647

 Normal termination of Gaussian 16 at Thu May  6 13:43:29 2021.
