 Gaussian 16, Revision A.03,
 Gaussian 16:  EM64L-G16RevA.03 25-Dec-2016

 -------------
 #p 6-31g* mp2
 -------------

 ------------------------------------------------------
 Input file generated by CHIRIPA (05-May-2021 14:53:16)
 ------------------------------------------------------
 Symbolic Z-matrix:
 Charge =  0 Multiplicity = 1

                         Standard orientation:
 ---------------------------------------------------------------------
 Center     Atomic      Atomic             Coordinates (Angstroms)
 Number     Number       Type             X           Y           Z
 ---------------------------------------------------------------------
      1          6           0        3.732646   -0.154937   -0.328115
      2          6           0        4.886892   -0.999286    0.212972
      3          6           0        5.327885   -2.091616   -0.761776
      4          1           0        2.881440   -0.811396   -0.554952
      5          1           0        4.036857    0.302528   -1.279733
      6          1           0        4.581082   -1.453910    1.163978
      7          1           0        5.735383   -0.340716    0.438728
      8          1           0        5.658974   -1.652448   -1.708409
      9          1           0        4.498114   -2.771968   -0.979038
     10          1           0        6.153975   -2.683132   -0.354905
     11          6           0        3.280557    0.941314    0.634993
     12          6           0        2.126310    1.785663    0.093906
     13          6           0        1.685317    2.877993    1.068654
     14          1           0        2.976345    0.483849    1.586610
     15          1           0        4.131763    1.597773    0.861830
     16          1           0        1.277820    1.127093   -0.131850
     17          1           0        2.432121    2.240288   -0.857101
     18          1           0        2.515088    3.558345    1.285915
     19          1           0        1.354229    2.438826    2.015286
     20          1           0        0.859227    3.469510    0.661782
     21          6           0       -2.776448    2.132518   -0.762091
     22          6           0       -3.934172    1.520459   -0.270583
     23          6           0       -3.925291    0.169301    0.088365
     24          6           0       -2.735963   -0.543040   -0.057787
     25          6           0       -1.566212    0.038402   -0.544509
     26          6           0       -1.598241    1.390844   -0.897247
     27          1           0       -2.792338    3.182628   -1.038517
     28          1           0       -4.850612    2.093991   -0.164556
     29          1           0       -4.807196   -0.329566    0.471502
     30          1           0       -0.667716   -0.559255   -0.639001
     31          1           0       -0.697630    1.863553   -1.278682
     32          7           0       -2.714309   -1.974129    0.318928
     33          8           0       -1.653797   -2.579810    0.180712
     34          8           0       -3.758258   -2.463038    0.745279
 ---------------------------------------------------------------------

 SCF Done:  E(RHF) =  -669.534986620     A.U. after   15 cycles
 E2 =    -0.2092530652D+01 EUMP2 =    -0.67162751727271D+03

 The electronic state is 1-A.
 Alpha  occ. eigenvalues --  -20.60781 -20.60775 -15.85833 -11.31191 -11.27751
 Alpha  occ. eigenvalues --  -11.27744 -11.27480 -11.26769 -11.26711 -11.22383
 Alpha  occ. eigenvalues --  -11.21834 -11.21762 -11.21748 -11.21674 -11.21100
 Alpha  occ. eigenvalues --   -1.59855  -1.39409  -1.19357  -1.08855  -1.08747
 Alpha  occ. eigenvalues --   -1.04768  -1.03938  -0.96361  -0.95591  -0.87379
 Alpha  occ. eigenvalues --   -0.86154  -0.82440  -0.80067  -0.78648  -0.77460
 Alpha  occ. eigenvalues --   -0.72052  -0.71178  -0.70471  -0.65505  -0.64999
 Alpha  occ. eigenvalues --   -0.64770  -0.62213  -0.61258  -0.59752  -0.57977
 Alpha  occ. eigenvalues --   -0.55620  -0.55252  -0.53130  -0.53035  -0.52865
 Alpha  occ. eigenvalues --   -0.52748  -0.50292  -0.48809  -0.48809  -0.48347
 Alpha  occ. eigenvalues --   -0.47079  -0.46173  -0.46061  -0.44817  -0.44187
 Alpha  occ. eigenvalues --   -0.37332  -0.36332
 Alpha virt. eigenvalues --    0.05032   0.11245   0.16443   0.20031   0.22647
 Alpha virt. eigenvalues --    0.23921   0.24682   0.26189   0.26770   0.28501
 Alpha virt. eigenvalues --    0.29670   0.30526   0.31042   0.31367   0.32427

 Mulliken charges:
               1
     1  C   -0.299597
     2  C   -0.300160
     3  C   -0.476672
     4  H    0.150303
     5  H    0.148590
     6  H    0.155050
     7  H    0.151688
     8  H    0.154144
     9  H    0.158669
    10  H    0.161541
    11  C   -0.298270
    12  C   -0.306959
    13  C   -0.474483
    14  H    0.154110
    15  H    0.151489
    16  H    0.146669
    17  H    0.150333
    18  H    0.158525
    19  H    0.160726
    20  H    0.153257
    21  C   -0.172156
    22  C   -0.218376
    23  C   -0.171193
    24  C    0.158287
    25  C   -0.173770
    26  C   -0.219095
    27  H    0.225589
    28  H    0.223446
    29  H    0.275547
    30  H    0.275687
    31  H    0.230017
    32  N    0.488402
    33  O   -0.461072
    34  O   -0.460267
 Sum of Mulliken charges =  -0.00000

 Dipole moment (field-independent basis, Debye):
    X=              0.0366    Y=              5.0053    Z=             -1.2441  Tot=              5.1577
 Quadrupole moment (field-independent basis, Debye-Ang):
   XX=            -88.8805   YY=           -101.1409   ZZ=            -95.1714
   XY=            -13.5953   XZ=              2.4406   YZ=             -0.1947

 Normal termination of Gaussian 16 at Wed May  5 20:19:47 2021.
