 Gaussian 16, Revision A.03,
 Gaussian 16:  EM64L-G16RevA.03 25-Dec-2016

 -------------
 #p 6-31g* mp2
 -------------

 ------------------------------------------------------
 Input file generated by CHIRIPA (05-May-2021 14:57:21)
 ------------------------------------------------------
 Symbolic Z-matrix:
 Charge =  0 Multiplicity = 1

                         Standard orientation:
 ---------------------------------------------------------------------
 Center     Atomic      Atomic             Coordinates (Angstroms)
 Number     Number       Type             X           Y           Z
 ---------------------------------------------------------------------
      1          6           0       -2.888554    2.601831   -0.626184
      2          6           0       -2.074158    2.174944    0.427878
      3          6           0       -2.067912    0.833615    0.822019
      4          6           0       -2.892183   -0.057825    0.137036
      5          6           0       -3.714699    0.336828   -0.917007
      6          6           0       -3.704786    1.683030   -1.294085
      7          1           0       -2.887130    3.645700   -0.925735
      8          1           0       -1.439240    2.886278    0.948385
      9          1           0       -1.447240    0.476075    1.634638
     10          1           0       -4.336858   -0.395639   -1.416834
     11          1           0       -4.338285    2.011720   -2.113040
     12          7           0       -2.894124   -1.480409    0.545264
     13          8           0       -3.629389   -2.246036   -0.074282
     14          8           0       -2.160343   -1.802867    1.477049
     15          6           0        3.889088    2.093433    0.397431
     16          6           0        2.556259    1.832105    0.731790
     17          6           0        1.993246    0.577945    0.477526
     18          6           0        2.795455   -0.396096   -0.114921
     19          6           0        4.126496   -0.166309   -0.459618
     20          6           0        4.668579    1.095152   -0.196159
     21          1           0        4.318320    3.070530    0.598520
     22          1           0        1.948530    2.605481    1.192876
     23          1           0        0.964160    0.348649    0.726170
     24          1           0        4.707379   -0.957297   -0.918238
     25          1           0        5.703959    1.295275   -0.456896
     26          7           0        2.210498   -1.727683   -0.388966
     27          8           0        2.938294   -2.568889   -0.911768
     28          8           0        1.035288   -1.904962   -0.075771
 ---------------------------------------------------------------------

 SCF Done:  E(RHF) =  -868.335215105     A.U. after   16 cycles
 E2 =    -0.2602189963D+01 EUMP2 =    -0.87093740506859D+03

 The electronic state is 1-A.
 Alpha  occ. eigenvalues --  -20.60540 -20.60494 -20.60297 -20.60227 -15.85578
 Alpha  occ. eigenvalues --  -15.85331 -11.31224 -11.31143 -11.27873 -11.27842
 Alpha  occ. eigenvalues --  -11.27812 -11.27700 -11.27645 -11.27573 -11.26989
 Alpha  occ. eigenvalues --  -11.26988 -11.26877 -11.26818  -1.59594  -1.59310
 Alpha  occ. eigenvalues --   -1.39139  -1.38859  -1.19436  -1.19351  -1.08776
 Alpha  occ. eigenvalues --   -1.08652  -1.04919  -1.04825  -0.95567  -0.95418
 Alpha  occ. eigenvalues --   -0.86298  -0.86191  -0.82421  -0.82254  -0.77458
 Alpha  occ. eigenvalues --   -0.77190  -0.71808  -0.71545  -0.70930  -0.70625
 Alpha  occ. eigenvalues --   -0.70595  -0.70394  -0.65094  -0.65026  -0.64983
 Alpha  occ. eigenvalues --   -0.64782  -0.62449  -0.62006  -0.55407  -0.55288
 Alpha  occ. eigenvalues --   -0.53229  -0.53187  -0.53027  -0.52802  -0.48574
 Alpha  occ. eigenvalues --   -0.48548  -0.48337  -0.48268  -0.44484  -0.44152
 Alpha  occ. eigenvalues --   -0.37423  -0.37314  -0.36587  -0.36374
 Alpha virt. eigenvalues --    0.05151   0.05294   0.11055   0.11193   0.16573
 Alpha virt. eigenvalues --    0.16694   0.19374   0.22209   0.25238   0.26624
 Alpha virt. eigenvalues --    0.28204   0.29142   0.30370   0.31785   0.32070

 Mulliken charges:
               1
     1  C   -0.171228
     2  C   -0.218628
     3  C   -0.175888
     4  C    0.165417
     5  C   -0.169877
     6  C   -0.217290
     7  H    0.224161
     8  H    0.215109
     9  H    0.271919
    10  H    0.277924
    11  H    0.224079
    12  N    0.490646
    13  O   -0.460245
    14  O   -0.452606
    15  C   -0.170848
    16  C   -0.220490
    17  C   -0.172265
    18  C    0.157800
    19  C   -0.169601
    20  C   -0.218801
    21  H    0.224524
    22  H    0.215131
    23  H    0.277594
    24  H    0.276931
    25  H    0.223758
    26  N    0.486519
    27  O   -0.460802
    28  O   -0.452944
 Sum of Mulliken charges =  -0.00000

 Dipole moment (field-independent basis, Debye):
    X=              1.9368    Y=              9.3278    Z=             -0.5737  Tot=              9.5441
 Quadrupole moment (field-independent basis, Debye-Ang):
   XX=            -87.3035   YY=           -109.8937   ZZ=           -103.3808
   XY=             -2.7475   XZ=              7.6426   YZ=              1.0457

 Normal termination of Gaussian 16 at Thu May  6 21:05:51 2021.
