 Gaussian 16, Revision A.03,
 Gaussian 16:  EM64L-G16RevA.03 25-Dec-2016

 -------------
 #p 6-31g* mp2
 -------------

 ------------------------------------------------------
 Input file generated by CHIRIPA (05-May-2021 14:57:21)
 ------------------------------------------------------
 Symbolic Z-matrix:
 Charge =  0 Multiplicity = 1

                         Standard orientation:
 ---------------------------------------------------------------------
 Center     Atomic      Atomic             Coordinates (Angstroms)
 Number     Number       Type             X           Y           Z
 ---------------------------------------------------------------------
      1          6           0       -4.609442    2.326029    0.476639
      2          6           0       -3.521751    2.240381   -0.398640
      3          6           0       -2.940924    1.002612   -0.690386
      4          6           0       -3.475543   -0.134361   -0.086428
      5          6           0       -4.558467   -0.081597    0.789804
      6          6           0       -5.123422    1.166811    1.067027
      7          1           0       -5.054478    3.291690    0.697634
      8          1           0       -3.120503    3.138982   -0.858598
      9          1           0       -2.098190    0.907568   -1.364318
     10          1           0       -4.936495   -0.994895    1.232974
     11          1           0       -5.968066    1.230314    1.747166
     12          7           0       -2.869049   -1.450362   -0.387600
     13          8           0       -3.358586   -2.437239    0.157438
     14          8           0       -1.915626   -1.470050   -1.162993
     15          6           0        1.843124   -1.913017   -0.082029
     16          6           0        2.788273   -1.909585    0.949088
     17          6           0        3.752760   -0.900340    1.024816
     18          6           0        3.742981    0.094433    0.048279
     19          6           0        2.814514    0.118489   -0.991269
     20          6           0        1.859233   -0.900753   -1.047216
     21          1           0        1.097463   -2.700907   -0.133173
     22          1           0        2.778151   -2.694449    1.700042
     23          1           0        4.496117   -0.873438    1.812290
     24          1           0        2.849775    0.914301   -1.725339
     25          1           0        1.126440   -0.900878   -1.849125
     26          7           0        4.759167    1.168167    0.117977
     27          8           0        4.729300    2.033230   -0.754610
     28          8           0        5.566280    1.124366    1.043877
 ---------------------------------------------------------------------

 SCF Done:  E(RHF) =  -868.340548391     A.U. after   16 cycles
 E2 =    -0.2598514424D+01 EUMP2 =    -0.87093906281518D+03

 The electronic state is 1-A.
 Alpha  occ. eigenvalues --  -20.61792 -20.61746 -20.60340 -20.60333 -15.86799
 Alpha  occ. eigenvalues --  -15.85385 -11.31844 -11.30544 -11.28392 -11.28361
 Alpha  occ. eigenvalues --  -11.28040 -11.27309 -11.27300 -11.27104 -11.27074
 Alpha  occ. eigenvalues --  -11.26586 -11.26020 -11.25884  -1.60830  -1.59420
 Alpha  occ. eigenvalues --   -1.40395  -1.38980  -1.19983  -1.18671  -1.09433
 Alpha  occ. eigenvalues --   -1.08058  -1.05339  -1.04047  -0.96326  -0.94940
 Alpha  occ. eigenvalues --   -0.86751  -0.85417  -0.83175  -0.81793  -0.78260
 Alpha  occ. eigenvalues --   -0.76904  -0.73046  -0.72127  -0.71604  -0.71087
 Alpha  occ. eigenvalues --   -0.70744  -0.69669  -0.65643  -0.65336  -0.64294
 Alpha  occ. eigenvalues --   -0.63988  -0.62696  -0.61396  -0.55843  -0.54397
 Alpha  occ. eigenvalues --   -0.53680  -0.53427  -0.52391  -0.52100  -0.49802
 Alpha  occ. eigenvalues --   -0.49752  -0.48376  -0.48338  -0.45866  -0.44433
 Alpha  occ. eigenvalues --   -0.37935  -0.36925  -0.36576  -0.35676
 Alpha virt. eigenvalues --    0.04242   0.05622   0.10734   0.11992   0.15806
 Alpha virt. eigenvalues --    0.17192   0.20743   0.22325   0.26507   0.27248
 Alpha virt. eigenvalues --    0.28512   0.29258   0.30508   0.31426   0.32551

 Mulliken charges:
               1
     1  C   -0.169562
     2  C   -0.218103
     3  C   -0.168947
     4  C    0.158095
     5  C   -0.170532
     6  C   -0.218397
     7  H    0.228551
     8  H    0.226413
     9  H    0.271872
    10  H    0.276101
    11  H    0.225618
    12  N    0.491260
    13  O   -0.457293
    14  O   -0.473103
    15  C   -0.172619
    16  C   -0.220183
    17  C   -0.172581
    18  C    0.157572
    19  C   -0.174893
    20  C   -0.221717
    21  H    0.240195
    22  H    0.222147
    23  H    0.272749
    24  H    0.270760
    25  H    0.234445
    26  N    0.488225
    27  O   -0.463695
    28  O   -0.462382
 Sum of Mulliken charges =  -0.00000

 Dipole moment (field-independent basis, Debye):
    X=             -6.2159    Y=              0.7898    Z=              0.8453  Tot=              6.3226
 Quadrupole moment (field-independent basis, Debye-Ang):
   XX=           -115.2192   YY=           -105.4800   ZZ=           -100.6830
   XY=            -30.5252   XZ=             -5.5361   YZ=             -4.2024

 Normal termination of Gaussian 16 at Wed May  5 22:32:35 2021.
