 Gaussian 16, Revision A.03,
 Gaussian 16:  EM64L-G16RevA.03 25-Dec-2016

 -------------
 #p 6-31g* mp2
 -------------

 ------------------------------------------------------
 Input file generated by CHIRIPA (05-May-2021 14:55:22)
 ------------------------------------------------------
 Symbolic Z-matrix:
 Charge =  0 Multiplicity = 1

                         Standard orientation:
 ---------------------------------------------------------------------
 Center     Atomic      Atomic             Coordinates (Angstroms)
 Number     Number       Type             X           Y           Z
 ---------------------------------------------------------------------
      1          6           0        4.774222    1.343616   -1.055699
      2          6           0        3.998175    0.411722   -1.752727
      3          6           0        3.022135   -0.337577   -1.089068
      4          6           0        2.848052   -0.128468    0.278140
      5          6           0        3.605380    0.792477    1.000362
      6          6           0        4.575698    1.530689    0.316202
      7          1           0        5.530211    1.921383   -1.579208
      8          1           0        4.150159    0.264337   -2.818195
      9          1           0        2.407346   -1.065656   -1.604192
     10          1           0        3.430766    0.917252    2.062134
     11          1           0        5.176918    2.253714    0.860090
     12          7           0        1.817791   -0.915849    0.991578
     13          8           0        1.683933   -0.712926    2.196377
     14          8           0        1.163638   -1.721012    0.332462
     15          6           0       -4.400355    0.465192    0.071187
     16          6           0       -4.167944    1.934494   -0.282540
     17          6           0       -5.251579    2.856050    0.278050
     18          1           0       -5.382228    0.153602   -0.310628
     19          1           0       -4.442483    0.360644    1.164205
     20          1           0       -4.124886    2.036027   -1.374536
     21          1           0       -3.186427    2.242568    0.099993
     22          1           0       -5.291390    2.784289    1.369777
     23          1           0       -6.235180    2.576574   -0.113131
     24          1           0       -5.065775    3.901644    0.013337
     25          6           0       -3.325344   -0.468526   -0.482212
     26          6           0       -3.557755   -1.937827   -0.128485
     27          6           0       -2.474120   -2.859384   -0.689076
     28          1           0       -3.283217   -0.363979   -1.575231
     29          1           0       -2.343471   -0.156936   -0.100397
     30          1           0       -4.539272   -2.245902   -0.511019
     31          1           0       -3.600813   -2.039360    0.963510
     32          1           0       -1.490519   -2.579908   -0.297894
     33          1           0       -2.434310   -2.787622   -1.780802
     34          1           0       -2.659924   -3.904976   -0.424363
 ---------------------------------------------------------------------

 SCF Done:  E(RHF) =  -669.536376788     A.U. after   15 cycles
 E2 =    -0.2090858672D+01 EUMP2 =    -0.67162723545981D+03

 The electronic state is 1-A.
 Alpha  occ. eigenvalues --  -20.60997 -20.60989 -15.86027 -11.31315 -11.27876
 Alpha  occ. eigenvalues --  -11.27869 -11.27609 -11.26876 -11.26866 -11.21089
 Alpha  occ. eigenvalues --  -11.20694 -11.20654 -11.20549 -11.20472 -11.19647
 Alpha  occ. eigenvalues --   -1.60055  -1.39611  -1.19481  -1.08892  -1.07637
 Alpha  occ. eigenvalues --   -1.04872  -1.02690  -0.95739  -0.95127  -0.86275
 Alpha  occ. eigenvalues --   -0.86145  -0.82573  -0.78793  -0.77631  -0.77421
 Alpha  occ. eigenvalues --   -0.72252  -0.71367  -0.70590  -0.65138  -0.64875
 Alpha  occ. eigenvalues --   -0.64264  -0.62219  -0.60075  -0.58555  -0.56738
 Alpha  occ. eigenvalues --   -0.55379  -0.54393  -0.53206  -0.52964  -0.51838
 Alpha  occ. eigenvalues --   -0.51550  -0.49182  -0.49004  -0.48877  -0.47087
 Alpha  occ. eigenvalues --   -0.45828  -0.45116  -0.44944  -0.44761  -0.42961
 Alpha  occ. eigenvalues --   -0.37459  -0.36472
 Alpha virt. eigenvalues --    0.04883   0.11184   0.16372   0.21308   0.23631
 Alpha virt. eigenvalues --    0.25220   0.27241   0.27409   0.28067   0.28315
 Alpha virt. eigenvalues --    0.28978   0.30876   0.32163   0.32405   0.32587

 Mulliken charges:
               1
     1  C   -0.170478
     2  C   -0.218561
     3  C   -0.170607
     4  C    0.157400
     5  C   -0.170520
     6  C   -0.218620
     7  H    0.226105
     8  H    0.224029
     9  H    0.276320
    10  H    0.275812
    11  H    0.223873
    12  N    0.492212
    13  O   -0.458954
    14  O   -0.463868
    15  C   -0.297865
    16  C   -0.298919
    17  C   -0.475231
    18  H    0.147430
    19  H    0.150586
    20  H    0.149513
    21  H    0.151425
    22  H    0.155476
    23  H    0.154297
    24  H    0.157668
    25  C   -0.298462
    26  C   -0.297892
    27  C   -0.488394
    28  H    0.144751
    29  H    0.154887
    30  H    0.146106
    31  H    0.153428
    32  H    0.185489
    33  H    0.145986
    34  H    0.155578
 Sum of Mulliken charges =  -0.00000

 Dipole moment (field-independent basis, Debye):
    X=              3.9514    Y=              2.7594    Z=             -2.4128  Tot=              5.3898
 Quadrupole moment (field-independent basis, Debye-Ang):
   XX=            -75.5782   YY=            -96.0277   ZZ=            -92.1482
   XY=              8.8902   XZ=             -4.8110   YZ=              3.0167

 Normal termination of Gaussian 16 at Thu May  6 15:54:53 2021.
