 Gaussian 16, Revision A.03,
 Gaussian 16:  EM64L-G16RevA.03 25-Dec-2016

 -------------
 #p 6-31g* mp2
 -------------

 ------------------------------------------------------
 Input file generated by CHIRIPA (05-May-2021 14:57:25)
 ------------------------------------------------------
 Symbolic Z-matrix:
 Charge =  0 Multiplicity = 1

                         Standard orientation:
 ---------------------------------------------------------------------
 Center     Atomic      Atomic             Coordinates (Angstroms)
 Number     Number       Type             X           Y           Z
 ---------------------------------------------------------------------
      1          6           0       -4.197361    2.300559   -0.080512
      2          6           0       -4.355716    1.428952    1.001960
      3          6           0       -3.736133    0.175691    1.000939
      4          6           0       -2.961811   -0.175155   -0.103879
      5          6           0       -2.784947    0.671146   -1.197398
      6          6           0       -3.413863    1.919546   -1.174807
      7          1           0       -4.682293    3.272234   -0.071342
      8          1           0       -4.963609    1.722191    1.853149
      9          1           0       -3.841881   -0.518580    1.825695
     10          1           0       -2.172833    0.350796   -2.031730
     11          1           0       -3.289116    2.594403   -2.016859
     12          7           0       -2.300946   -1.499353   -0.116377
     13          8           0       -1.623948   -1.784779   -1.101690
     14          8           0       -2.472471   -2.226759    0.859377
     15          6           0        1.662569   -2.136159    0.056342
     16          6           0        2.324301   -1.712400   -1.100836
     17          6           0        3.107228   -0.554217   -1.087230
     18          6           0        3.206865    0.159261    0.106216
     19          6           0        2.559749   -0.237226    1.275544
     20          6           0        1.782194   -1.398519    1.238754
     21          1           0        1.056459   -3.037071    0.036767
     22          1           0        2.233207   -2.283276   -2.020536
     23          1           0        3.630269   -0.203467   -1.968604
     24          1           0        2.669607    0.352757    2.177359
     25          1           0        1.269411   -1.725237    2.138951
     26          7           0        4.032871    1.387025    0.132892
     27          8           0        4.104568    1.997950    1.196972
     28          8           0        4.592956    1.715172   -0.910785
 ---------------------------------------------------------------------

 SCF Done:  E(RHF) =  -868.340577795     A.U. after   16 cycles
 E2 =    -0.2599157006D+01 EUMP2 =    -0.87093973480151D+03

 The electronic state is 1-A.
 Alpha  occ. eigenvalues --  -20.61657 -20.61625 -20.60240 -20.60235 -15.86647
 Alpha  occ. eigenvalues --  -15.85288 -11.31698 -11.30380 -11.28240 -11.28217
 Alpha  occ. eigenvalues --  -11.27904 -11.27177 -11.27152 -11.26974 -11.26953
 Alpha  occ. eigenvalues --  -11.26419 -11.25796 -11.25777  -1.60703  -1.59326
 Alpha  occ. eigenvalues --   -1.40264  -1.38886  -1.19840  -1.18524  -1.09295
 Alpha  occ. eigenvalues --   -1.07909  -1.05195  -1.03902  -0.96186  -0.94796
 Alpha  occ. eigenvalues --   -0.86608  -0.85276  -0.83031  -0.81660  -0.78113
 Alpha  occ. eigenvalues --   -0.76788  -0.72901  -0.72004  -0.71509  -0.70944
 Alpha  occ. eigenvalues --   -0.70652  -0.69488  -0.65497  -0.65195  -0.64147
 Alpha  occ. eigenvalues --   -0.63865  -0.62549  -0.61269  -0.55707  -0.54225
 Alpha  occ. eigenvalues --   -0.53538  -0.53283  -0.52237  -0.51967  -0.49663
 Alpha  occ. eigenvalues --   -0.49627  -0.48281  -0.48238  -0.45736  -0.44355
 Alpha  occ. eigenvalues --   -0.37800  -0.36783  -0.36347  -0.35544
 Alpha virt. eigenvalues --    0.04361   0.05794   0.10879   0.12138   0.15943
 Alpha virt. eigenvalues --    0.17393   0.21051   0.22487   0.26975   0.27918
 Alpha virt. eigenvalues --    0.28200   0.29481   0.30655   0.32070   0.32220

 Mulliken charges:
               1
     1  C   -0.169386
     2  C   -0.218411
     3  C   -0.171175
     4  C    0.158383
     5  C   -0.169270
     6  C   -0.218125
     7  H    0.228229
     8  H    0.225036
     9  H    0.274634
    10  H    0.275652
    11  H    0.226191
    12  N    0.489213
    13  O   -0.463888
    14  O   -0.464924
    15  C   -0.160191
    16  C   -0.218627
    17  C   -0.173988
    18  C    0.155733
    19  C   -0.172937
    20  C   -0.226440
    21  H    0.241275
    22  H    0.224068
    23  H    0.271625
    24  H    0.271427
    25  H    0.225228
    26  N    0.488248
    27  O   -0.463909
    28  O   -0.463672
 Sum of Mulliken charges =  -0.00000

 Dipole moment (field-independent basis, Debye):
    X=             -5.6431    Y=              0.2132    Z=             -0.1279  Tot=              5.6486
 Quadrupole moment (field-independent basis, Debye-Ang):
   XX=           -110.7953   YY=           -108.2447   ZZ=            -96.4186
   XY=            -28.7457   XZ=             -3.8510   YZ=             -1.3268

 Normal termination of Gaussian 16 at Wed May  5 17:59:05 2021.
