 Gaussian 16, Revision A.03,
 Gaussian 16:  EM64L-G16RevA.03 25-Dec-2016

 -------------
 #p 6-31g* mp2
 -------------

 ------------------------------------------------------
 Input file generated by CHIRIPA (05-May-2021 14:51:11)
 ------------------------------------------------------
 Symbolic Z-matrix:
 Charge =  0 Multiplicity = 1

                         Standard orientation:
 ---------------------------------------------------------------------
 Center     Atomic      Atomic             Coordinates (Angstroms)
 Number     Number       Type             X           Y           Z
 ---------------------------------------------------------------------
      1          6           0        3.533025    0.018164   -0.332116
      2          6           0        3.092067    1.433874   -0.705354
      3          6           0        1.593648    1.529499   -0.994127
      4          1           0        3.271093   -0.667996   -1.149135
      5          1           0        2.966911   -0.314397    0.548971
      6          1           0        3.659834    1.764193   -1.584641
      7          1           0        3.355251    2.116776    0.112567
      8          1           0        1.012245    1.225702   -0.117612
      9          1           0        1.318558    0.871115   -1.824463
     10          1           0        1.300138    2.550110   -1.258826
     11          6           0        5.028434   -0.093497   -0.040551
     12          6           0        5.469393   -1.509207    0.332687
     13          6           0        6.967812   -1.604832    0.621460
     14          1           0        5.594548    0.239064   -0.921638
     15          1           0        5.290367    0.592663    0.776468
     16          1           0        5.206208   -2.192109   -0.485234
     17          1           0        4.901625   -1.839526    1.211974
     18          1           0        7.242901   -0.946448    1.451796
     19          1           0        7.549214   -1.301035   -0.255055
     20          1           0        7.261321   -2.625443    0.886158
     21          6           0       -3.730380    0.514215   -0.044856
     22          6           0       -3.218285    1.433070    1.064852
     23          6           0       -2.117575    2.380585    0.586889
     24          1           0       -2.890429   -0.069661   -0.445499
     25          1           0       -4.108229    1.127923   -0.874306
     26          1           0       -2.842784    0.817814    1.892544
     27          1           0       -4.059587    2.014689    1.463030
     28          1           0       -2.483802    3.018711   -0.223835
     29          1           0       -1.260085    1.815037    0.208119
     30          1           0       -1.766098    3.028303    1.396078
     31          6           0       -4.831080   -0.438882    0.417523
     32          6           0       -5.343174   -1.357737   -0.692183
     33          6           0       -6.443884   -2.305252   -0.214222
     34          1           0       -4.453230   -1.052589    1.246973
     35          1           0       -5.671031    0.144995    0.818166
     36          1           0       -4.501872   -1.939355   -1.090363
     37          1           0       -5.718676   -0.742482   -1.519877
     38          1           0       -7.301375   -1.739704    0.164548
     39          1           0       -6.077658   -2.943378    0.596502
     40          1           0       -6.795361   -2.952969   -1.023411
 ---------------------------------------------------------------------

 SCF Done:  E(RHF) =  -470.733109279     A.U. after   11 cycles
 E2 =    -0.1582301733D+01 EUMP2 =    -0.47231541101135D+03

 The electronic state is 1-A.
 Alpha  occ. eigenvalues --  -11.21612 -11.21605 -11.21574 -11.21540 -11.21417
 Alpha  occ. eigenvalues --  -11.21364 -11.21358 -11.21302 -11.21079 -11.21070
 Alpha  occ. eigenvalues --  -11.21051 -11.20938  -1.08441  -1.08385  -1.03546
 Alpha  occ. eigenvalues --   -1.03474  -0.96015  -0.95905  -0.87060  -0.86897
 Alpha  occ. eigenvalues --   -0.79654  -0.79497  -0.78259  -0.78193  -0.65083
 Alpha  occ. eigenvalues --   -0.65009  -0.61020  -0.60815  -0.59355  -0.59296
 Alpha  occ. eigenvalues --   -0.57624  -0.57524  -0.55451  -0.55077  -0.52747
 Alpha  occ. eigenvalues --   -0.52607  -0.52477  -0.52251  -0.50115  -0.49686
 Alpha  occ. eigenvalues --   -0.47986  -0.47790  -0.46727  -0.46461  -0.45821
 Alpha  occ. eigenvalues --   -0.45743  -0.45700  -0.45612  -0.43788  -0.43734
 Alpha virt. eigenvalues --    0.22450   0.22970   0.23694   0.24663   0.26106
 Alpha virt. eigenvalues --    0.26716   0.27034   0.27565   0.27712   0.28951
 Alpha virt. eigenvalues --    0.30484   0.31550   0.31661   0.31824   0.32162

 Mulliken charges:
               1
     1  C   -0.298524
     2  C   -0.299807
     3  C   -0.478494
     4  H    0.149552
     5  H    0.149399
     6  H    0.151949
     7  H    0.152219
     8  H    0.157195
     9  H    0.154957
    10  H    0.161960
    11  C   -0.298285
    12  C   -0.299651
    13  C   -0.475713
    14  H    0.149609
    15  H    0.149729
    16  H    0.151912
    17  H    0.151863
    18  H    0.155215
    19  H    0.155221
    20  H    0.160261
    21  C   -0.298270
    22  C   -0.299296
    23  C   -0.483117
    24  H    0.149805
    25  H    0.149500
    26  H    0.151132
    27  H    0.151537
    28  H    0.154710
    29  H    0.164667
    30  H    0.159187
    31  C   -0.298234
    32  C   -0.299622
    33  C   -0.475674
    34  H    0.149337
    35  H    0.149557
    36  H    0.151921
    37  H    0.151894
    38  H    0.155131
    39  H    0.155112
    40  H    0.160154
 Sum of Mulliken charges =  -0.00000

 Dipole moment (field-independent basis, Debye):
    X=              0.0349    Y=              0.0058    Z=             -0.0183  Tot=              0.0399
 Quadrupole moment (field-independent basis, Debye-Ang):
   XX=            -86.1629   YY=            -84.9002   ZZ=            -83.8585
   XY=             -0.8429   XZ=             -0.0515   YZ=              0.1871

 Normal termination of Gaussian 16 at Thu May  6 03:50:31 2021.
