 Gaussian 16, Revision A.03,
 Gaussian 16:  EM64L-G16RevA.03 25-Dec-2016

 -------------
 #p 6-31g* mp2
 -------------

 ------------------------------------------------------
 Input file generated by CHIRIPA (05-May-2021 14:51:10)
 ------------------------------------------------------
 Symbolic Z-matrix:
 Charge =  0 Multiplicity = 1

                         Standard orientation:
 ---------------------------------------------------------------------
 Center     Atomic      Atomic             Coordinates (Angstroms)
 Number     Number       Type             X           Y           Z
 ---------------------------------------------------------------------
      1          6           0        2.629227    0.396121   -0.735757
      2          6           0        2.713409    1.920772   -0.656153
      3          6           0        1.542729    2.614657   -1.353165
      4          1           0        2.596195    0.091662   -1.790820
      5          1           0        1.683823    0.064018   -0.284854
      6          1           0        3.659003    2.249799   -1.105829
      7          1           0        2.746438    2.221625    0.398841
      8          1           0        0.592198    2.314973   -0.900085
      9          1           0        1.509948    2.343308   -2.413304
     10          1           0        1.622950    3.703995   -1.284115
     11          6           0        3.792543   -0.311814   -0.043475
     12          6           0        3.708361   -1.836466   -0.123079
     13          6           0        4.879041   -2.530351    0.573933
     14          1           0        4.737947    0.020288   -0.494378
     15          1           0        3.825575   -0.007356    1.011588
     16          1           0        3.675332   -2.137319   -1.178073
     17          1           0        2.762767   -2.165493    0.326597
     18          1           0        4.911822   -2.259001    1.634072
     19          1           0        5.829572   -2.230667    0.120853
     20          1           0        4.798821   -3.619689    0.504883
     21          6           0       -2.937489    0.291921    1.019759
     22          6           0       -1.480523    0.736448    0.886972
     23          6           0       -0.947869    1.403032    2.155727
     24          1           0       -3.559103    1.163540    1.266380
     25          1           0       -3.025566   -0.404137    1.865420
     26          1           0       -1.394974    1.430386    0.040954
     27          1           0       -0.862334   -0.136298    0.640450
     28          1           0       -1.004217    0.714744    3.005249
     29          1           0       -1.539883    2.290331    2.402347
     30          1           0        0.095274    1.712929    2.038783
     31          6           0       -3.484281   -0.376228   -0.240527
     32          6           0       -4.941247   -0.820754   -0.107740
     33          6           0       -5.473901   -1.487338   -1.376495
     34          1           0       -3.396204    0.319829   -1.086188
     35          1           0       -2.862667   -1.247848   -0.487148
     36          1           0       -5.559436    0.051991    0.138782
     37          1           0       -5.026797   -1.514693    0.738277
     38          1           0       -4.881887   -2.374637   -1.623115
     39          1           0       -5.417553   -0.799051   -2.226017
     40          1           0       -6.517044   -1.797235   -1.259551
 ---------------------------------------------------------------------

 SCF Done:  E(RHF) =  -470.733048152     A.U. after   11 cycles
 E2 =    -0.1583667741D+01 EUMP2 =    -0.47231671589294D+03

 The electronic state is 1-A.
 Alpha  occ. eigenvalues --  -11.21684 -11.21622 -11.21598 -11.21578 -11.21448
 Alpha  occ. eigenvalues --  -11.21384 -11.21376 -11.21311 -11.21156 -11.21083
 Alpha  occ. eigenvalues --  -11.21068 -11.20991  -1.08486  -1.08401  -1.03605
 Alpha  occ. eigenvalues --   -1.03489  -0.96035  -0.95948  -0.87044  -0.86971
 Alpha  occ. eigenvalues --   -0.79716  -0.79524  -0.78347  -0.78162  -0.65116
 Alpha  occ. eigenvalues --   -0.65053  -0.61067  -0.60894  -0.59412  -0.59278
 Alpha  occ. eigenvalues --   -0.57661  -0.57535  -0.55385  -0.55165  -0.52724
 Alpha  occ. eigenvalues --   -0.52648  -0.52451  -0.52386  -0.50043  -0.49846
 Alpha  occ. eigenvalues --   -0.48104  -0.47814  -0.46734  -0.46539  -0.45990
 Alpha  occ. eigenvalues --   -0.45750  -0.45709  -0.45460  -0.43827  -0.43760
 Alpha virt. eigenvalues --    0.20044   0.23062   0.23617   0.24911   0.25619
 Alpha virt. eigenvalues --    0.26089   0.26658   0.27945   0.28068   0.29168
 Alpha virt. eigenvalues --    0.30432   0.30758   0.31317   0.31816   0.32333

 Mulliken charges:
               1
     1  C   -0.303968
     2  C   -0.299312
     3  C   -0.484066
     4  H    0.149535
     5  H    0.155386
     6  H    0.151890
     7  H    0.151447
     8  H    0.164168
     9  H    0.154825
    10  H    0.159720
    11  C   -0.298048
    12  C   -0.299486
    13  C   -0.475688
    14  H    0.149515
    15  H    0.149464
    16  H    0.151961
    17  H    0.151318
    18  H    0.155209
    19  H    0.155244
    20  H    0.160134
    21  C   -0.297500
    22  C   -0.306760
    23  C   -0.478320
    24  H    0.149967
    25  H    0.149607
    26  H    0.155909
    27  H    0.153820
    28  H    0.155604
    29  H    0.155955
    30  H    0.161865
    31  C   -0.298549
    32  C   -0.299698
    33  C   -0.475754
    34  H    0.149940
    35  H    0.149812
    36  H    0.152019
    37  H    0.151929
    38  H    0.155255
    39  H    0.155329
    40  H    0.160319
 Sum of Mulliken charges =  -0.00000

 Dipole moment (field-independent basis, Debye):
    X=             -0.0475    Y=             -0.0069    Z=              0.0056  Tot=              0.0483
 Quadrupole moment (field-independent basis, Debye-Ang):
   XX=            -85.3276   YY=            -84.6744   ZZ=            -84.8188
   XY=             -0.1053   XZ=             -1.1502   YZ=             -0.4234

 Normal termination of Gaussian 16 at Wed May  5 21:24:55 2021.
