 Gaussian 16, Revision A.03,
 Gaussian 16:  EM64L-G16RevA.03 25-Dec-2016

 -------------
 #p 6-31g* mp2
 -------------

 ------------------------------------------------------
 Input file generated by CHIRIPA (05-May-2021 14:53:15)
 ------------------------------------------------------
 Symbolic Z-matrix:
 Charge =  0 Multiplicity = 1

                         Standard orientation:
 ---------------------------------------------------------------------
 Center     Atomic      Atomic             Coordinates (Angstroms)
 Number     Number       Type             X           Y           Z
 ---------------------------------------------------------------------
      1          6           0       -4.352730    0.036743    0.267730
      2          6           0       -5.416209    0.115039   -0.828110
      3          6           0       -6.703750    0.790583   -0.355171
      4          1           0       -4.761325   -0.511088    1.127891
      5          1           0       -4.126371    1.051776    0.622506
      6          1           0       -5.639490   -0.899727   -1.181679
      7          1           0       -5.004969    0.662582   -1.685837
      8          1           0       -6.501828    1.813399   -0.020993
      9          1           0       -7.139954    0.242213    0.486030
     10          1           0       -7.450246    0.835898   -1.154265
     11          6           0       -3.059768   -0.636034   -0.189815
     12          6           0       -1.996289   -0.714329    0.906026
     13          6           0       -0.708747   -1.389873    0.433086
     14          1           0       -3.286126   -1.651066   -0.544591
     15          1           0       -2.651173   -0.088203   -1.049976
     16          1           0       -2.407528   -1.261872    1.763753
     17          1           0       -1.773008    0.300437    1.259595
     18          1           0       -0.272544   -0.841504   -0.408115
     19          1           0       -0.910669   -2.412689    0.098908
     20          1           0        0.037748   -1.435189    1.232180
     21          6           0        2.547706    2.716700    0.255294
     22          6           0        2.152929    1.833688    1.265721
     23          6           0        2.340772    0.456190    1.118201
     24          6           0        2.929131   -0.005911   -0.058059
     25          6           0        3.333049    0.848523   -1.082794
     26          6           0        3.135469    2.222171   -0.913677
     27          1           0        2.398002    3.785278    0.378281
     28          1           0        1.696208    2.214915    2.174631
     29          1           0        2.044495   -0.249760    1.884537
     30          1           0        3.785645    0.438666   -1.977552
     31          1           0        3.443038    2.905587   -1.700055
     32          7           0        3.133146   -1.462168   -0.225664
     33          8           0        3.653758   -1.844095   -1.271481
     34          8           0        2.768579   -2.194082    0.691958
 ---------------------------------------------------------------------

 SCF Done:  E(RHF) =  -669.534639502     A.U. after   15 cycles
 E2 =    -0.2093035791D+01 EUMP2 =    -0.67162767529325D+03

 The electronic state is 1-A.
 Alpha  occ. eigenvalues --  -20.60814 -20.60781 -15.85829 -11.31178 -11.27776
 Alpha  occ. eigenvalues --  -11.27768 -11.27520 -11.26777 -11.26767 -11.21618
 Alpha  occ. eigenvalues --  -11.21521 -11.21398 -11.21304 -11.21115 -11.20707
 Alpha  occ. eigenvalues --   -1.59857  -1.39416  -1.19374  -1.08766  -1.08395
 Alpha  occ. eigenvalues --   -1.04783  -1.03465  -0.95912  -0.95592  -0.86929
 Alpha  occ. eigenvalues --   -0.86165  -0.82440  -0.79541  -0.78217  -0.77486
 Alpha  occ. eigenvalues --   -0.72062  -0.71169  -0.70500  -0.65033  -0.65027
 Alpha  occ. eigenvalues --   -0.64797  -0.62175  -0.60869  -0.59260  -0.57518
 Alpha  occ. eigenvalues --   -0.55310  -0.55194  -0.53141  -0.52954  -0.52461
 Alpha  occ. eigenvalues --   -0.52286  -0.49819  -0.48825  -0.48810  -0.47838
 Alpha  occ. eigenvalues --   -0.46579  -0.45752  -0.45688  -0.44861  -0.43616
 Alpha  occ. eigenvalues --   -0.37332  -0.36349
 Alpha virt. eigenvalues --    0.05027   0.11260   0.16504   0.21101   0.22910
 Alpha virt. eigenvalues --    0.24264   0.26600   0.26698   0.27518   0.27784
 Alpha virt. eigenvalues --    0.28649   0.30236   0.31307   0.31621   0.31932

 Mulliken charges:
               1
     1  C   -0.297776
     2  C   -0.299556
     3  C   -0.475564
     4  H    0.149857
     5  H    0.146854
     6  H    0.153088
     7  H    0.151316
     8  H    0.153908
     9  H    0.155441
    10  H    0.160358
    11  C   -0.298148
    12  C   -0.300695
    13  C   -0.477939
    14  H    0.151800
    15  H    0.148905
    16  H    0.152053
    17  H    0.144399
    18  H    0.150941
    19  H    0.161724
    20  H    0.164461
    21  C   -0.170621
    22  C   -0.220329
    23  C   -0.166292
    24  C    0.159338
    25  C   -0.171623
    26  C   -0.218957
    27  H    0.225560
    28  H    0.223484
    29  H    0.275417
    30  H    0.275664
    31  H    0.223339
    32  N    0.489530
    33  O   -0.460193
    34  O   -0.459746
 Sum of Mulliken charges =  -0.00000

 Dipole moment (field-independent basis, Debye):
    X=             -0.6402    Y=              5.0336    Z=              0.5720  Tot=              5.1063
 Quadrupole moment (field-independent basis, Debye-Ang):
   XX=            -99.9193   YY=            -94.5013   ZZ=            -90.9501
   XY=             16.4564   XZ=             -0.1940   YZ=             -1.5184

 Normal termination of Gaussian 16 at Wed May  5 15:38:29 2021.
