 Gaussian 16, Revision A.03,
 Gaussian 16:  EM64L-G16RevA.03 25-Dec-2016

 -------------
 #p 6-31g* mp2
 -------------

 ------------------------------------------------------
 Input file generated by CHIRIPA (05-May-2021 14:55:23)
 ------------------------------------------------------
 Symbolic Z-matrix:
 Charge =  0 Multiplicity = 1

                         Standard orientation:
 ---------------------------------------------------------------------
 Center     Atomic      Atomic             Coordinates (Angstroms)
 Number     Number       Type             X           Y           Z
 ---------------------------------------------------------------------
      1          6           0       -4.030724    1.756362   -0.814887
      2          6           0       -4.490932    0.435632   -0.794791
      3          6           0       -3.699543   -0.583906   -0.257396
      4          6           0       -2.447483   -0.245596    0.253663
      5          6           0       -1.961009    1.060773    0.248017
      6          6           0       -2.769455    2.064174   -0.294337
      7          1           0       -4.652120    2.542096   -1.234275
      8          1           0       -5.470027    0.193656   -1.198356
      9          1           0       -4.031151   -1.614759   -0.229152
     10          1           0       -0.980541    1.271163    0.657697
     11          1           0       -2.409467    3.088991   -0.308614
     12          7           0       -1.600646   -1.316394    0.825204
     13          8           0       -0.501342   -0.992319    1.269211
     14          8           0       -2.052234   -2.459486    0.818348
     15          6           0        3.019682    0.758093    0.019310
     16          6           0        4.048107    1.889322    0.044801
     17          6           0        3.449328    3.222609    0.493801
     18          1           0        2.195121    1.035789   -0.651457
     19          1           0        2.583183    0.646116    1.021470
     20          1           0        4.483537    1.998215   -0.956778
     21          1           0        4.870409    1.608819    0.715437
     22          1           0        3.031343    3.137129    1.502059
     23          1           0        2.642271    3.528737   -0.179657
     24          1           0        4.201834    4.017263    0.504751
     25          6           0        3.603170   -0.581157   -0.427543
     26          6           0        2.574745   -1.712386   -0.453033
     27          6           0        3.173524   -3.045673   -0.902034
     28          1           0        4.039670   -0.469180   -1.429702
     29          1           0        4.427731   -0.858854    0.243225
     30          1           0        1.752442   -1.431883   -1.123669
     31          1           0        2.139315   -1.821278    0.548546
     32          1           0        3.980581   -3.351800   -0.228575
     33          1           0        3.591510   -2.960193   -1.910291
     34          1           0        2.421018   -3.840327   -0.912984
 ---------------------------------------------------------------------

 SCF Done:  E(RHF) =  -669.536072195     A.U. after   15 cycles
 E2 =    -0.2091737360D+01 EUMP2 =    -0.67162780955468D+03

 The electronic state is 1-A.
 Alpha  occ. eigenvalues --  -20.60908 -20.60876 -15.85922 -11.31249 -11.27815
 Alpha  occ. eigenvalues --  -11.27800 -11.27555 -11.26824 -11.26812 -11.21257
 Alpha  occ. eigenvalues --  -11.20975 -11.20804 -11.20586 -11.20310 -11.20056
 Alpha  occ. eigenvalues --   -1.59952  -1.39508  -1.19418  -1.08824  -1.07740
 Alpha  occ. eigenvalues --   -1.04814  -1.02834  -0.95665  -0.95347  -0.86373
 Alpha  occ. eigenvalues --   -0.86214  -0.82501  -0.78925  -0.77623  -0.77388
 Alpha  occ. eigenvalues --   -0.72147  -0.71262  -0.70526  -0.65075  -0.64818
 Alpha  occ. eigenvalues --   -0.64377  -0.62159  -0.60236  -0.58744  -0.56910
 Alpha  occ. eigenvalues --   -0.55321  -0.54663  -0.53149  -0.52906  -0.52050
 Alpha  occ. eigenvalues --   -0.51764  -0.49335  -0.48930  -0.48901  -0.47233
 Alpha  occ. eigenvalues --   -0.45960  -0.45302  -0.44921  -0.44540  -0.43087
 Alpha  occ. eigenvalues --   -0.37399  -0.36417
 Alpha virt. eigenvalues --    0.04964   0.11227   0.16449   0.21128   0.23313
 Alpha virt. eigenvalues --    0.24900   0.26511   0.27343   0.27620   0.28481
 Alpha virt. eigenvalues --    0.29133   0.31115   0.31963   0.32149   0.32554

 Mulliken charges:
               1
     1  C   -0.170626
     2  C   -0.218651
     3  C   -0.170756
     4  C    0.157852
     5  C   -0.172123
     6  C   -0.218859
     7  H    0.225835
     8  H    0.223624
     9  H    0.275666
    10  H    0.277747
    11  H    0.224003
    12  N    0.489629
    13  O   -0.460347
    14  O   -0.459843
    15  C   -0.298309
    16  C   -0.298819
    17  C   -0.475173
    18  H    0.142578
    19  H    0.157720
    20  H    0.150417
    21  H    0.152643
    22  H    0.154726
    23  H    0.149018
    24  H    0.159597
    25  C   -0.298753
    26  C   -0.301854
    27  C   -0.476400
    28  H    0.144483
    29  H    0.147884
    30  H    0.145339
    31  H    0.177405
    32  H    0.152303
    33  H    0.148772
    34  H    0.163271
 Sum of Mulliken charges =  -0.00000

 Dipole moment (field-independent basis, Debye):
    X=             -3.1674    Y=              3.6560    Z=             -1.8475  Tot=              5.1780
 Quadrupole moment (field-independent basis, Debye-Ang):
   XX=            -78.5741   YY=            -96.0480   ZZ=            -95.6923
   XY=             -5.8057   XZ=              6.0056   YZ=              1.4398

 Normal termination of Gaussian 16 at Thu May  6 06:18:29 2021.
