 Gaussian 16, Revision A.03,
 Gaussian 16:  EM64L-G16RevA.03 25-Dec-2016

 -------------
 #p 6-31g* mp2
 -------------

 ------------------------------------------------------
 Input file generated by CHIRIPA (05-May-2021 14:51:12)
 ------------------------------------------------------
 Symbolic Z-matrix:
 Charge =  0 Multiplicity = 1

                         Standard orientation:
 ---------------------------------------------------------------------
 Center     Atomic      Atomic             Coordinates (Angstroms)
 Number     Number       Type             X           Y           Z
 ---------------------------------------------------------------------
      1          6           0        2.276464   -1.177767   -0.451846
      2          6           0        0.954847   -1.480655    0.254956
      3          6           0       -0.025541   -2.251418   -0.629667
      4          1           0        2.073038   -0.601436   -1.364757
      5          1           0        2.736575   -2.122053   -0.774363
      6          1           0        0.498040   -0.536166    0.577265
      7          1           0        1.161459   -2.056168    1.166391
      8          1           0        0.406401   -3.208149   -0.940622
      9          1           0       -0.260787   -1.679510   -1.533095
     10          1           0       -0.963524   -2.457318   -0.104639
     11          6           0        3.266966   -0.407663    0.419689
     12          6           0        4.588583   -0.104774   -0.287114
     13          6           0        5.568971    0.665989    0.597509
     14          1           0        2.806855    0.536624    0.742206
     15          1           0        3.470392   -0.983994    1.332599
     16          1           0        4.381971    0.470738   -1.198548
     17          1           0        5.045390   -1.049264   -0.609423
     18          1           0        5.804217    0.094081    1.500937
     19          1           0        5.137029    1.622719    0.908465
     20          1           0        6.506954    0.871888    0.072481
     21          6           0       -2.210313    1.220669    0.307825
     22          6           0       -1.364972    1.920038   -0.757195
     23          6           0       -0.245958    2.772412   -0.157981
     24          1           0       -2.641980    1.976102    0.978593
     25          1           0       -1.558362    0.588938    0.926914
     26          1           0       -2.018538    2.549190   -1.374962
     27          1           0       -0.935423    1.162866   -1.425620
     28          1           0        0.429409    2.154572    0.442647
     29          1           0       -0.659860    3.548773    0.493594
     30          1           0        0.345832    3.263232   -0.936916
     31          6           0       -3.333117    0.364761   -0.275667
     32          6           0       -4.178457   -0.334609    0.789351
     33          6           0       -5.297473   -1.186983    0.190138
     34          1           0       -3.985068    0.996491   -0.894756
     35          1           0       -2.901450   -0.390672   -0.946436
     36          1           0       -4.608007    0.422564    1.457777
     37          1           0       -3.524892   -0.963760    1.407119
     38          1           0       -4.883571   -1.963344   -0.461437
     39          1           0       -5.972839   -0.569142   -0.410490
     40          1           0       -5.889262   -1.677802    0.969074
 ---------------------------------------------------------------------

 SCF Done:  E(RHF) =  -470.732828818     A.U. after   11 cycles
 E2 =    -0.1585000333D+01 EUMP2 =    -0.47231782915038D+03

 The electronic state is 1-A.
 Alpha  occ. eigenvalues --  -11.21657 -11.21646 -11.21617 -11.21595 -11.21448
 Alpha  occ. eigenvalues --  -11.21387 -11.21382 -11.21317 -11.21178 -11.21146
 Alpha  occ. eigenvalues --  -11.21075 -11.21061  -1.08515  -1.08400  -1.03608
 Alpha  occ. eigenvalues --   -1.03526  -0.96059  -0.95970  -0.87055  -0.87008
 Alpha  occ. eigenvalues --   -0.79670  -0.79602  -0.78364  -0.78170  -0.65483
 Alpha  occ. eigenvalues --   -0.64786  -0.61207  -0.60680  -0.59421  -0.59341
 Alpha  occ. eigenvalues --   -0.57667  -0.57588  -0.55487  -0.55107  -0.52731
 Alpha  occ. eigenvalues --   -0.52695  -0.52456  -0.52421  -0.50051  -0.49884
 Alpha  occ. eigenvalues --   -0.48062  -0.47858  -0.46909  -0.46599  -0.46021
 Alpha  occ. eigenvalues --   -0.45851  -0.45683  -0.45247  -0.43825  -0.43792
 Alpha virt. eigenvalues --    0.18853   0.21779   0.23967   0.24257   0.25470
 Alpha virt. eigenvalues --    0.26092   0.26570   0.28019   0.28942   0.30123
 Alpha virt. eigenvalues --    0.30171   0.31297   0.31712   0.31868   0.32332

 Mulliken charges:
               1
     1  C   -0.297820
     2  C   -0.308950
     3  C   -0.478326
     4  H    0.150005
     5  H    0.149792
     6  H    0.160293
     7  H    0.152281
     8  H    0.155925
     9  H    0.156203
    10  H    0.161133
    11  C   -0.301228
    12  C   -0.299574
    13  C   -0.475873
    14  H    0.151858
    15  H    0.149756
    16  H    0.152249
    17  H    0.151949
    18  H    0.155126
    19  H    0.155588
    20  H    0.160322
    21  C   -0.303007
    22  C   -0.302051
    23  C   -0.480140
    24  H    0.149775
    25  H    0.154221
    26  H    0.152731
    27  H    0.153451
    28  H    0.157666
    29  H    0.155928
    30  H    0.160298
    31  C   -0.300858
    32  C   -0.300279
    33  C   -0.475797
    34  H    0.149172
    35  H    0.153642
    36  H    0.151942
    37  H    0.151830
    38  H    0.155382
    39  H    0.155211
    40  H    0.160175
 Sum of Mulliken charges =  -0.00000

 Dipole moment (field-independent basis, Debye):
    X=              0.0118    Y=             -0.0071    Z=             -0.0036  Tot=              0.0142
 Quadrupole moment (field-independent basis, Debye-Ang):
   XX=            -85.6265   YY=            -84.0753   ZZ=            -85.0134
   XY=             -1.8644   XZ=             -0.5280   YZ=             -0.7384

 Normal termination of Gaussian 16 at Wed May  5 15:16:49 2021.
