 Gaussian 16, Revision A.03,
 Gaussian 16:  EM64L-G16RevA.03 25-Dec-2016

 -------------
 #p 6-31g* mp2
 -------------

 ------------------------------------------------------
 Input file generated by CHIRIPA (05-May-2021 14:51:11)
 ------------------------------------------------------
 Symbolic Z-matrix:
 Charge =  0 Multiplicity = 1

                         Standard orientation:
 ---------------------------------------------------------------------
 Center     Atomic      Atomic             Coordinates (Angstroms)
 Number     Number       Type             X           Y           Z
 ---------------------------------------------------------------------
      1          6           0        2.543862    0.475703    0.040910
      2          6           0        3.846230    0.824336   -0.680394
      3          6           0        3.876502    2.268833   -1.180702
      4          1           0        1.698234    0.647541   -0.639039
      5          1           0        2.407554    1.161293    0.888720
      6          1           0        3.980735    0.137406   -1.525765
      7          1           0        4.688869    0.651466    0.001287
      8          1           0        3.767296    2.968173   -0.345478
      9          1           0        3.055138    2.451192   -1.881207
     10          1           0        4.816361    2.496575   -1.693205
     11          6           0        2.498523   -0.964998    0.546926
     12          6           0        1.196156   -1.313631    1.268230
     13          6           0        1.165884   -2.758128    1.768538
     14          1           0        2.634832   -1.650588   -0.300884
     15          1           0        3.344151   -1.136836    1.226875
     16          1           0        0.353517   -1.140761    0.586549
     17          1           0        1.061651   -0.626701    2.113601
     18          1           0        1.987248   -2.940487    2.469043
     19          1           0        1.275090   -3.457468    0.933314
     20          1           0        0.226025   -2.985870    2.281041
     21          6           0       -2.666262   -0.504822   -0.320043
     22          6           0       -1.985005   -1.213851   -1.491005
     23          6           0       -2.284745   -2.712666   -1.529773
     24          1           0       -2.341423   -0.969621    0.620907
     25          1           0       -3.751842   -0.660971   -0.387349
     26          1           0       -0.901151   -1.055250   -1.422281
     27          1           0       -2.311357   -0.747185   -2.429266
     28          1           0       -3.361459   -2.887936   -1.622332
     29          1           0       -1.943242   -3.197752   -0.609627
     30          1           0       -1.787873   -3.199727   -2.374610
     31          6           0       -2.376123    0.994117   -0.267792
     32          6           0       -3.057381    1.703146    0.903169
     33          6           0       -2.757641    3.201961    0.941936
     34          1           0       -1.290545    1.150267   -0.200487
     35          1           0       -2.700963    1.458917   -1.208742
     36          1           0       -2.731030    1.236480    1.841430
     37          1           0       -4.141235    1.544545    0.834445
     38          1           0       -3.099143    3.687047    0.021790
     39          1           0       -1.680926    3.377231    1.034496
     40          1           0       -3.254513    3.689022    1.786774
 ---------------------------------------------------------------------

 SCF Done:  E(RHF) =  -470.733124351     A.U. after   11 cycles
 E2 =    -0.1584345437D+01 EUMP2 =    -0.47231746978812D+03

 The electronic state is 1-A.
 Alpha  occ. eigenvalues --  -11.21645 -11.21639 -11.21637 -11.21585 -11.21470
 Alpha  occ. eigenvalues --  -11.21410 -11.21403 -11.21341 -11.21136 -11.21099
 Alpha  occ. eigenvalues --  -11.21096 -11.21051  -1.08518  -1.08415  -1.03604
 Alpha  occ. eigenvalues --   -1.03519  -0.96031  -0.95983  -0.87056  -0.86992
 Alpha  occ. eigenvalues --   -0.79668  -0.79588  -0.78354  -0.78212  -0.65408
 Alpha  occ. eigenvalues --   -0.64844  -0.61208  -0.60710  -0.59387  -0.59353
 Alpha  occ. eigenvalues --   -0.57645  -0.57590  -0.55341  -0.55244  -0.52726
 Alpha  occ. eigenvalues --   -0.52679  -0.52457  -0.52405  -0.50088  -0.49830
 Alpha  occ. eigenvalues --   -0.48016  -0.47877  -0.46816  -0.46522  -0.46184
 Alpha  occ. eigenvalues --   -0.45794  -0.45743  -0.45298  -0.43837  -0.43790
 Alpha virt. eigenvalues --    0.19459   0.22789   0.23361   0.24617   0.25260
 Alpha virt. eigenvalues --    0.26328   0.26926   0.27859   0.28784   0.30471
 Alpha virt. eigenvalues --    0.30995   0.31373   0.31702   0.31901   0.32014

 Mulliken charges:
               1
     1  C   -0.301589
     2  C   -0.299625
     3  C   -0.475871
     4  H    0.151569
     5  H    0.149502
     6  H    0.152169
     7  H    0.152249
     8  H    0.155191
     9  H    0.155531
    10  H    0.160453
    11  C   -0.297789
    12  C   -0.310724
    13  C   -0.475921
    14  H    0.149590
    15  H    0.150081
    16  H    0.163537
    17  H    0.151572
    18  H    0.155656
    19  H    0.155800
    20  H    0.159785
    21  C   -0.300442
    22  C   -0.303760
    23  C   -0.476751
    24  H    0.151311
    25  H    0.150298
    26  H    0.153237
    27  H    0.152733
    28  H    0.155628
    29  H    0.156520
    30  H    0.160046
    31  C   -0.301525
    32  C   -0.299504
    33  C   -0.475860
    34  H    0.152670
    35  H    0.149429
    36  H    0.152265
    37  H    0.151768
    38  H    0.155052
    39  H    0.155610
    40  H    0.160107
 Sum of Mulliken charges =  -0.00000

 Dipole moment (field-independent basis, Debye):
    X=              0.0108    Y=             -0.0035    Z=             -0.0002  Tot=              0.0113
 Quadrupole moment (field-independent basis, Debye-Ang):
   XX=            -83.9233   YY=            -86.8845   ZZ=            -83.8718
   XY=             -0.3093   XZ=              0.8908   YZ=              0.4101

 Normal termination of Gaussian 16 at Thu May  6 02:14:37 2021.
