 Gaussian 16, Revision A.03,
 Gaussian 16:  EM64L-G16RevA.03 25-Dec-2016

 -------------
 #p 6-31g* mp2
 -------------

 ------------------------------------------------------
 Input file generated by CHIRIPA (05-May-2021 14:53:13)
 ------------------------------------------------------
 Symbolic Z-matrix:
 Charge =  0 Multiplicity = 1

                         Standard orientation:
 ---------------------------------------------------------------------
 Center     Atomic      Atomic             Coordinates (Angstroms)
 Number     Number       Type             X           Y           Z
 ---------------------------------------------------------------------
      1          6           0       -3.029470    0.855660    0.130522
      2          6           0       -3.181091    2.173235   -0.630395
      3          6           0       -2.656060    3.374282    0.156767
      4          1           0       -3.562322    0.929382    1.088425
      5          1           0       -1.969182    0.700695    0.373772
      6          1           0       -4.240601    2.324990   -0.873346
      7          1           0       -2.647976    2.096301   -1.586682
      8          1           0       -1.593001    3.249278    0.386727
      9          1           0       -3.194674    3.479267    1.104117
     10          1           0       -2.774253    4.305680   -0.405716
     11          6           0       -3.549867   -0.354250   -0.643450
     12          6           0       -3.398246   -1.671824    0.117467
     13          6           0       -3.923277   -2.872871   -0.669694
     14          1           0       -4.610154   -0.199284   -0.886700
     15          1           0       -3.017014   -0.427971   -1.601353
     16          1           0       -3.931360   -1.594890    1.073754
     17          1           0       -2.338736   -1.823580    0.360418
     18          1           0       -3.384662   -2.977856   -1.617045
     19          1           0       -4.986335   -2.747868   -0.899655
     20          1           0       -3.805083   -3.804270   -0.107212
     21          6           0        0.386673   -0.812021    1.304501
     22          6           0        0.766569    0.530501    1.205336
     23          6           0        1.974109    0.883514    0.595602
     24          6           0        2.781134   -0.136296    0.093618
     25          6           0        2.430303   -1.482857    0.177165
     26          6           0        1.218287   -1.812652    0.791005
     27          1           0       -0.553112   -1.077231    1.779753
     28          1           0        0.122718    1.309718    1.603234
     29          1           0        2.292625    1.914933    0.505371
     30          1           0        3.093110   -2.237342   -0.228861
     31          1           0        0.925814   -2.856101    0.866607
     32          7           0        4.061873    0.225133   -0.554053
     33          8           0        4.755147   -0.692128   -0.988381
     34          8           0        4.348190    1.418838   -0.615106
 ---------------------------------------------------------------------

 SCF Done:  E(RHF) =  -669.534242314     A.U. after   15 cycles
 E2 =    -0.2094193337D+01 EUMP2 =    -0.67162843565110D+03

 The electronic state is 1-A.
 Alpha  occ. eigenvalues --  -20.60805 -20.60799 -15.85859 -11.31247 -11.27822
 Alpha  occ. eigenvalues --  -11.27814 -11.27509 -11.26825 -11.26797 -11.22556
 Alpha  occ. eigenvalues --  -11.22315 -11.22207 -11.22140 -11.21872 -11.21841
 Alpha  occ. eigenvalues --   -1.59880  -1.39432  -1.19426  -1.09274  -1.08803
 Alpha  occ. eigenvalues --   -1.04831  -1.04345  -0.96781  -0.95646  -0.87801
 Alpha  occ. eigenvalues --   -0.86230  -0.82478  -0.80427  -0.79135  -0.77512
 Alpha  occ. eigenvalues --   -0.72077  -0.71203  -0.70546  -0.65946  -0.65073
 Alpha  occ. eigenvalues --   -0.64772  -0.62218  -0.61702  -0.60155  -0.58409
 Alpha  occ. eigenvalues --   -0.56072  -0.55338  -0.53469  -0.53261  -0.53124
 Alpha  occ. eigenvalues --   -0.52917  -0.50728  -0.48870  -0.48830  -0.48703
 Alpha  occ. eigenvalues --   -0.47445  -0.46613  -0.46527  -0.44833  -0.44585
 Alpha  occ. eigenvalues --   -0.37321  -0.36412
 Alpha virt. eigenvalues --    0.04968   0.11016   0.16324   0.19989   0.22562
 Alpha virt. eigenvalues --    0.22736   0.25798   0.26127   0.26375   0.27744
 Alpha virt. eigenvalues --    0.29923   0.30301   0.31042   0.31380   0.31902

 Mulliken charges:
               1
     1  C   -0.308782
     2  C   -0.299635
     3  C   -0.477141
     4  H    0.147566
     5  H    0.150976
     6  H    0.154831
     7  H    0.156097
     8  H    0.148595
     9  H    0.155608
    10  H    0.165614
    11  C   -0.297021
    12  C   -0.304686
    13  C   -0.475953
    14  H    0.152641
    15  H    0.153891
    16  H    0.151429
    17  H    0.145339
    18  H    0.158054
    19  H    0.158609
    20  H    0.159660
    21  C   -0.170262
    22  C   -0.222362
    23  C   -0.172867
    24  C    0.158360
    25  C   -0.170558
    26  C   -0.220762
    27  H    0.230966
    28  H    0.228316
    29  H    0.275877
    30  H    0.275926
    31  H    0.224014
    32  N    0.488104
    33  O   -0.460288
    34  O   -0.460158
 Sum of Mulliken charges =  -0.00000

 Dipole moment (field-independent basis, Debye):
    X=             -4.5977    Y=             -1.2561    Z=              2.1652  Tot=              5.2350
 Quadrupole moment (field-independent basis, Debye-Ang):
   XX=           -119.1869   YY=            -90.4215   ZZ=            -94.9201
   XY=             -4.5403   XZ=              5.6584   YZ=              0.0922

 Normal termination of Gaussian 16 at Thu May  6 07:20:52 2021.
