 Gaussian 16, Revision A.03,
 Gaussian 16:  EM64L-G16RevA.03 25-Dec-2016

 -------------
 #p 6-31g* mp2
 -------------

 ------------------------------------------------------
 Input file generated by CHIRIPA (05-May-2021 14:57:22)
 ------------------------------------------------------
 Symbolic Z-matrix:
 Charge =  0 Multiplicity = 1

                         Standard orientation:
 ---------------------------------------------------------------------
 Center     Atomic      Atomic             Coordinates (Angstroms)
 Number     Number       Type             X           Y           Z
 ---------------------------------------------------------------------
      1          6           0        2.517082    2.373617   -1.098926
      2          6           0        3.312930    1.317931   -1.555737
      3          6           0        3.382621    0.119592   -0.839026
      4          6           0        2.640020    0.010777    0.335704
      5          6           0        1.837971    1.044528    0.816711
      6          6           0        1.783436    2.233792    0.083755
      7          1           0        2.468831    3.300990   -1.661994
      8          1           0        3.883766    1.423700   -2.473889
      9          1           0        3.990688   -0.713615   -1.169843
     10          1           0        1.280288    0.909372    1.735482
     11          1           0        1.164526    3.051981    0.440913
     12          7           0        2.705776   -1.253047    1.103053
     13          8           0        2.041957   -1.323822    2.135028
     14          8           0        3.419891   -2.148928    0.657996
     15          6           0       -4.007317    1.596364    0.872829
     16          6           0       -2.635120    1.782695    0.675657
     17          6           0       -1.861707    0.783627    0.077122
     18          6           0       -2.495949   -0.394580   -0.313846
     19          6           0       -3.861023   -0.610053   -0.130990
     20          6           0       -4.614818    0.402689    0.469586
     21          1           0       -4.600504    2.377775    1.338578
     22          1           0       -2.160648    2.708693    0.987822
     23          1           0       -0.797563    0.901558   -0.087514
     24          1           0       -4.305763   -1.543934   -0.452689
     25          1           0       -5.680292    0.255224    0.621455
     26          7           0       -1.687556   -1.459487   -0.948569
     27          8           0       -2.270163   -2.488371   -1.284133
     28          8           0       -0.486637   -1.245113   -1.098483
 ---------------------------------------------------------------------

 SCF Done:  E(RHF) =  -868.336376430     A.U. after   16 cycles
 E2 =    -0.2603095341D+01 EUMP2 =    -0.87093947177131D+03

 The electronic state is 1-A.
 Alpha  occ. eigenvalues --  -20.60741 -20.60716 -20.60286 -20.60255 -15.85788
 Alpha  occ. eigenvalues --  -15.85343 -11.31219 -11.30940 -11.27812 -11.27752
 Alpha  occ. eigenvalues --  -11.27664 -11.27623 -11.27502 -11.27418 -11.26941
 Alpha  occ. eigenvalues --  -11.26841 -11.26813 -11.26580  -1.59793  -1.59324
 Alpha  occ. eigenvalues --   -1.39350  -1.38883  -1.19425  -1.19170  -1.08809
 Alpha  occ. eigenvalues --   -1.08512  -1.04893  -1.04644  -0.95631  -0.95313
 Alpha  occ. eigenvalues --   -0.86256  -0.86030  -0.82495  -0.82171  -0.77531
 Alpha  occ. eigenvalues --   -0.77152  -0.72035  -0.71584  -0.71117  -0.70587
 Alpha  occ. eigenvalues --   -0.70571  -0.70285  -0.65093  -0.64947  -0.64821
 Alpha  occ. eigenvalues --   -0.64684  -0.62351  -0.61900  -0.55381  -0.55146
 Alpha  occ. eigenvalues --   -0.53281  -0.53168  -0.52771  -0.52544  -0.48770
 Alpha  occ. eigenvalues --   -0.48751  -0.48349  -0.48307  -0.44751  -0.44246
 Alpha  occ. eigenvalues --   -0.37411  -0.37103  -0.36479  -0.36218
 Alpha virt. eigenvalues --    0.05033   0.05400   0.10961   0.11586   0.16492
 Alpha virt. eigenvalues --    0.16696   0.20134   0.22110   0.25548   0.28070
 Alpha virt. eigenvalues --    0.28382   0.29271   0.30320   0.32057   0.32510

 Mulliken charges:
               1
     1  C   -0.168871
     2  C   -0.216575
     3  C   -0.164013
     4  C    0.178947
     5  C   -0.182095
     6  C   -0.227610
     7  H    0.224136
     8  H    0.224274
     9  H    0.278515
    10  H    0.273767
    11  H    0.215468
    12  N    0.490770
    13  O   -0.463640
    14  O   -0.457208
    15  C   -0.169722
    16  C   -0.224027
    17  C   -0.179358
    18  C    0.157170
    19  C   -0.168486
    20  C   -0.219134
    21  H    0.225119
    22  H    0.215414
    23  H    0.288561
    24  H    0.276864
    25  H    0.224069
    26  N    0.489176
    27  O   -0.457795
    28  O   -0.463717
 Sum of Mulliken charges =  -0.00000

 Dipole moment (field-independent basis, Debye):
    X=             -2.8773    Y=              7.8043    Z=             -0.6309  Tot=              8.3417
 Quadrupole moment (field-independent basis, Debye-Ang):
   XX=            -86.0974   YY=           -106.8625   ZZ=           -106.9960
   XY=              4.6672   XZ=            -14.4736   YZ=              1.0516

 Normal termination of Gaussian 16 at Thu May  6 22:38:59 2021.
