 Gaussian 16, Revision A.03,
 Gaussian 16:  EM64L-G16RevA.03 25-Dec-2016

 -------------
 #p 6-31g* mp2
 -------------

 ------------------------------------------------------
 Input file generated by CHIRIPA (05-May-2021 14:55:24)
 ------------------------------------------------------
 Symbolic Z-matrix:
 Charge =  0 Multiplicity = 1

                         Standard orientation:
 ---------------------------------------------------------------------
 Center     Atomic      Atomic             Coordinates (Angstroms)
 Number     Number       Type             X           Y           Z
 ---------------------------------------------------------------------
      1          6           0        3.081642    2.742055    0.023224
      2          6           0        3.062216    2.048290   -1.191204
      3          6           0        2.887802    0.661346   -1.213874
      4          6           0        2.735093   -0.003076    0.002067
      5          6           0        2.749961    0.659926    1.228238
      6          6           0        2.925727    2.046884    1.226947
      7          1           0        3.217656    3.819472    0.031528
      8          1           0        3.183057    2.585562   -2.127570
      9          1           0        2.868803    0.099364   -2.139743
     10          1           0        2.626933    0.096871    2.145436
     11          1           0        2.940399    2.583061    2.171586
     12          7           0        2.549733   -1.471379   -0.009250
     13          8           0        2.417363   -2.033540    1.075689
     14          8           0        2.540327   -2.032272   -1.102844
     15          6           0       -3.013601   -0.706481    0.376776
     16          6           0       -2.045363   -1.459942   -0.535802
     17          6           0       -0.998135   -2.256807    0.242731
     18          1           0       -2.442997   -0.028465    1.026123
     19          1           0       -3.516048   -1.424713    1.039411
     20          1           0       -1.545910   -0.740662   -1.197464
     21          1           0       -2.618354   -2.136103   -1.183184
     22          1           0       -1.479959   -2.996082    0.890741
     23          1           0       -0.401421   -1.592712    0.876381
     24          1           0       -0.316418   -2.787604   -0.429114
     25          6           0       -4.066445    0.094852   -0.386841
     26          6           0       -5.034682    0.848313    0.525736
     27          6           0       -6.081911    1.645178   -0.252796
     28          1           0       -3.563999    0.813084   -1.049476
     29          1           0       -4.637048   -0.583164   -1.036188
     30          1           0       -4.461692    1.524475    1.173119
     31          1           0       -5.534136    0.129033    1.187399
     32          1           0       -6.678624    0.981082   -0.886446
     33          1           0       -5.600086    2.384454   -0.900807
     34          1           0       -6.763627    2.175975    0.419048
 ---------------------------------------------------------------------

 SCF Done:  E(RHF) =  -669.535907608     A.U. after   15 cycles
 E2 =    -0.2092284946D+01 EUMP2 =    -0.67162819255394D+03

 The electronic state is 1-A.
 Alpha  occ. eigenvalues --  -20.60910 -20.60899 -15.85900 -11.31275 -11.27839
 Alpha  occ. eigenvalues --  -11.27834 -11.27579 -11.26853 -11.26843 -11.21428
 Alpha  occ. eigenvalues --  -11.21106 -11.20966 -11.20964 -11.20904 -11.19941
 Alpha  occ. eigenvalues --   -1.59946  -1.39506  -1.19443  -1.08840  -1.08044
 Alpha  occ. eigenvalues --   -1.04844  -1.03060  -0.95682  -0.95478  -0.86493
 Alpha  occ. eigenvalues --   -0.86242  -0.82513  -0.79147  -0.77842  -0.77562
 Alpha  occ. eigenvalues --   -0.72143  -0.71272  -0.70550  -0.65098  -0.64846
 Alpha  occ. eigenvalues --   -0.64688  -0.62190  -0.60472  -0.58878  -0.57080
 Alpha  occ. eigenvalues --   -0.55347  -0.54789  -0.53181  -0.52935  -0.52106
 Alpha  occ. eigenvalues --   -0.51908  -0.49467  -0.48907  -0.48885  -0.47461
 Alpha  occ. eigenvalues --   -0.46241  -0.45440  -0.45329  -0.44719  -0.43282
 Alpha  occ. eigenvalues --   -0.37419  -0.36446
 Alpha virt. eigenvalues --    0.04936   0.11184   0.16400   0.21336   0.23171
 Alpha virt. eigenvalues --    0.24747   0.26955   0.27241   0.27829   0.28077
 Alpha virt. eigenvalues --    0.28647   0.30875   0.31759   0.32065   0.32444

 Mulliken charges:
               1
     1  C   -0.170710
     2  C   -0.218597
     3  C   -0.171020
     4  C    0.158956
     5  C   -0.172102
     6  C   -0.218544
     7  H    0.225929
     8  H    0.223791
     9  H    0.275852
    10  H    0.276028
    11  H    0.223808
    12  N    0.489815
    13  O   -0.457021
    14  O   -0.459905
    15  C   -0.296901
    16  C   -0.299966
    17  C   -0.482213
    18  H    0.146140
    19  H    0.149646
    20  H    0.146712
    21  H    0.150799
    22  H    0.153585
    23  H    0.151778
    24  H    0.178438
    25  C   -0.297384
    26  C   -0.299021
    27  C   -0.475307
    28  H    0.147053
    29  H    0.149821
    30  H    0.149900
    31  H    0.152268
    32  H    0.155507
    33  H    0.153681
    34  H    0.159183
 Sum of Mulliken charges =  -0.00000

 Dipole moment (field-independent basis, Debye):
    X=              0.8698    Y=              5.0648    Z=              0.0382  Tot=              5.1390
 Quadrupole moment (field-independent basis, Debye-Ang):
   XX=            -92.7616   YY=            -94.7719   ZZ=            -89.9747
   XY=             15.4649   XZ=             -0.5712   YZ=              0.2780

 Normal termination of Gaussian 16 at Thu May  6 00:00:11 2021.
