 Gaussian 16, Revision A.03,
 Gaussian 16:  EM64L-G16RevA.03 25-Dec-2016

 -------------
 #p 6-31g* mp2
 -------------

 ------------------------------------------------------
 Input file generated by CHIRIPA (05-May-2021 14:51:10)
 ------------------------------------------------------
 Symbolic Z-matrix:
 Charge =  0 Multiplicity = 1

                         Standard orientation:
 ---------------------------------------------------------------------
 Center     Atomic      Atomic             Coordinates (Angstroms)
 Number     Number       Type             X           Y           Z
 ---------------------------------------------------------------------
      1          6           0       -3.179593   -0.004402   -0.378680
      2          6           0       -4.626236   -0.096279   -0.865266
      3          6           0       -5.014850    1.060862   -1.786026
      4          1           0       -3.036421    0.949084    0.147924
      5          1           0       -2.508121    0.014887   -1.248248
      6          1           0       -5.294701   -0.116784    0.004993
      7          1           0       -4.766031   -1.049742   -1.390607
      8          1           0       -4.371916    1.080879   -2.671936
      9          1           0       -4.903589    2.019138   -1.268407
     10          1           0       -6.052932    0.975309   -2.122072
     11          6           0       -2.776178   -1.154162    0.542752
     12          6           0       -1.329535   -1.062284    1.029338
     13          6           0       -0.940921   -2.219425    1.950098
     14          1           0       -3.447650   -1.173450    1.412320
     15          1           0       -2.919350   -2.107647    0.016148
     16          1           0       -1.189740   -0.108822    1.554679
     17          1           0       -0.661070   -1.041780    0.159079
     18          1           0       -1.052182   -3.177701    1.432479
     19          1           0       -1.583855   -2.239442    2.836008
     20          1           0        0.097160   -2.133873    2.286144
     21          6           0        3.324345   -0.100490   -0.118211
     22          6           0        4.164336   -0.286447   -1.382259
     23          6           0        4.851175   -1.651254   -1.440140
     24          1           0        3.967410   -0.226631    0.763549
     25          1           0        2.567273   -0.895372   -0.069231
     26          1           0        4.918706    0.509357   -1.429551
     27          1           0        3.519236   -0.159660   -2.261114
     28          1           0        4.110039   -2.456751   -1.417907
     29          1           0        5.517462   -1.783933   -0.581619
     30          1           0        5.446278   -1.762862   -2.351873
     31          6           0        2.631427    1.259053   -0.045861
     32          6           0        1.791434    1.445011    1.218187
     33          6           0        1.104597    2.809818    1.276069
     34          1           0        3.388499    2.053936   -0.094841
     35          1           0        1.988360    1.385194   -0.927621
     36          1           0        2.436535    1.318222    2.097042
     37          1           0        1.037064    0.649206    1.265479
     38          1           0        0.438309    2.942496    0.417547
     39          1           0        1.845732    3.615313    1.253835
     40          1           0        0.509493    2.921424    2.187801
 ---------------------------------------------------------------------

 SCF Done:  E(RHF) =  -470.732909169     A.U. after   11 cycles
 E2 =    -0.1583556240D+01 EUMP2 =    -0.47231646540919D+03

 The electronic state is 1-A.
 Alpha  occ. eigenvalues --  -11.21680 -11.21638 -11.21590 -11.21459 -11.21448
 Alpha  occ. eigenvalues --  -11.21399 -11.21371 -11.21302 -11.21133 -11.21099
 Alpha  occ. eigenvalues --  -11.21064 -11.21026  -1.08498  -1.08379  -1.03608
 Alpha  occ. eigenvalues --   -1.03469  -0.96032  -0.95944  -0.87047  -0.86958
 Alpha  occ. eigenvalues --   -0.79756  -0.79484  -0.78375  -0.78127  -0.65120
 Alpha  occ. eigenvalues --   -0.65028  -0.61032  -0.60877  -0.59451  -0.59254
 Alpha  occ. eigenvalues --   -0.57670  -0.57527  -0.55323  -0.55225  -0.52728
 Alpha  occ. eigenvalues --   -0.52633  -0.52455  -0.52368  -0.49975  -0.49890
 Alpha  occ. eigenvalues --   -0.48149  -0.47780  -0.46758  -0.46525  -0.46005
 Alpha  occ. eigenvalues --   -0.45764  -0.45721  -0.45357  -0.43833  -0.43739
 Alpha virt. eigenvalues --    0.20813   0.23091   0.23737   0.24261   0.25767
 Alpha virt. eigenvalues --    0.26370   0.26813   0.27777   0.28533   0.29196
 Alpha virt. eigenvalues --    0.30838   0.31346   0.31694   0.31956   0.32007

 Mulliken charges:
               1
     1  C   -0.298646
     2  C   -0.299677
     3  C   -0.475767
     4  H    0.150110
     5  H    0.149047
     6  H    0.152106
     7  H    0.152007
     8  H    0.155112
     9  H    0.155376
    10  H    0.160419
    11  C   -0.296957
    12  C   -0.305063
    13  C   -0.477608
    14  H    0.149858
    15  H    0.149716
    16  H    0.155376
    17  H    0.152063
    18  H    0.155515
    19  H    0.155723
    20  H    0.161951
    21  C   -0.299636
    22  C   -0.299541
    23  C   -0.475686
    24  H    0.149610
    25  H    0.149925
    26  H    0.152054
    27  H    0.151681
    28  H    0.155047
    29  H    0.155208
    30  H    0.160180
    31  C   -0.297326
    32  C   -0.311177
    33  C   -0.475629
    34  H    0.149165
    35  H    0.149110
    36  H    0.150698
    37  H    0.166286
    38  H    0.155287
    39  H    0.155057
    40  H    0.159027
 Sum of Mulliken charges =  -0.00000

 Dipole moment (field-independent basis, Debye):
    X=             -0.0491    Y=             -0.0258    Z=              0.0127  Tot=              0.0569
 Quadrupole moment (field-independent basis, Debye-Ang):
   XX=            -84.5689   YY=            -85.8987   ZZ=            -84.3845
   XY=              0.9711   XZ=             -0.0792   YZ=              0.9261

 Normal termination of Gaussian 16 at Wed May  5 18:12:33 2021.
