 Gaussian 16, Revision A.03,
 Gaussian 16:  EM64L-G16RevA.03 25-Dec-2016

 -------------
 #p 6-31g* mp2
 -------------

 ------------------------------------------------------
 Input file generated by CHIRIPA (05-May-2021 14:51:08)
 ------------------------------------------------------
 Symbolic Z-matrix:
 Charge =  0 Multiplicity = 1

                         Standard orientation:
 ---------------------------------------------------------------------
 Center     Atomic      Atomic             Coordinates (Angstroms)
 Number     Number       Type             X           Y           Z
 ---------------------------------------------------------------------
      1          6           0       -3.572421   -0.151420   -0.342548
      2          6           0       -4.801126    0.119524    0.526278
      3          6           0       -5.808992    1.050177   -0.148915
      4          1           0       -3.086086    0.802985   -0.586542
      5          1           0       -3.896102   -0.590170   -1.296553
      6          1           0       -4.475114    0.556353    1.478913
      7          1           0       -5.284483   -0.835653    0.768391
      8          1           0       -6.162488    0.617273   -1.090315
      9          1           0       -5.348520    2.017188   -0.375757
     10          1           0       -6.679431    1.230357    0.489624
     11          6           0       -2.555679   -1.080170    0.318804
     12          6           0       -1.326974   -1.351114   -0.550023
     13          6           0       -0.319109   -2.281768    0.125170
     14          1           0       -2.231998   -0.641420    1.272808
     15          1           0       -3.042014   -2.034576    0.562798
     16          1           0       -0.843617   -0.395938   -0.792136
     17          1           0       -1.652986   -1.787944   -1.502657
     18          1           0       -0.779580   -3.248778    0.352012
     19          1           0        0.034388   -1.848863    1.066570
     20          1           0        0.551330   -2.461948   -0.513368
     21          6           0        3.354900    0.012904    0.379787
     22          6           0        3.598356   -1.192446   -0.528973
     23          6           0        4.180380   -2.390661    0.221574
     24          1           0        4.301565    0.301714    0.856609
     25          1           0        2.673125   -0.279595    1.190357
     26          1           0        4.278376   -0.897387   -1.338375
     27          1           0        2.651040   -1.478299   -1.003835
     28          1           0        3.501984   -2.712765    1.018210
     29          1           0        5.138566   -2.128551    0.681769
     30          1           0        4.346502   -3.241076   -0.447050
     31          6           0        2.773201    1.218686   -0.356043
     32          6           0        2.529743    2.424036    0.552718
     33          6           0        1.947720    3.622252   -0.197829
     34          1           0        3.454975    1.511186   -1.166612
     35          1           0        1.826536    0.929877   -0.832864
     36          1           0        3.477061    2.709891    1.027580
     37          1           0        1.849724    2.128977    1.362120
     38          1           0        0.989534    3.360142   -0.658024
     39          1           0        2.626117    3.944356   -0.994465
     40          1           0        1.781598    4.472667    0.470794
 ---------------------------------------------------------------------

 SCF Done:  E(RHF) =  -470.733191982     A.U. after   11 cycles
 E2 =    -0.1583440431D+01 EUMP2 =    -0.47231663241354D+03

 The electronic state is 1-A.
 Alpha  occ. eigenvalues --  -11.21691 -11.21636 -11.21620 -11.21548 -11.21462
 Alpha  occ. eigenvalues --  -11.21400 -11.21397 -11.21332 -11.21144 -11.21097
 Alpha  occ. eigenvalues --  -11.21096 -11.21027  -1.08494  -1.08414  -1.03600
 Alpha  occ. eigenvalues --   -1.03510  -0.96039  -0.95968  -0.87066  -0.86975
 Alpha  occ. eigenvalues --   -0.79668  -0.79570  -0.78306  -0.78230  -0.65214
 Alpha  occ. eigenvalues --   -0.64984  -0.61039  -0.60920  -0.59416  -0.59297
 Alpha  occ. eigenvalues --   -0.57655  -0.57571  -0.55347  -0.55230  -0.52747
 Alpha  occ. eigenvalues --   -0.52659  -0.52480  -0.52376  -0.50030  -0.49856
 Alpha  occ. eigenvalues --   -0.48034  -0.47852  -0.46709  -0.46588  -0.45871
 Alpha  occ. eigenvalues --   -0.45820  -0.45739  -0.45607  -0.43819  -0.43764
 Alpha virt. eigenvalues --    0.19611   0.23071   0.23630   0.24742   0.25814
 Alpha virt. eigenvalues --    0.26020   0.27102   0.27659   0.28066   0.29331
 Alpha virt. eigenvalues --    0.30258   0.31082   0.31789   0.31960   0.32272

 Mulliken charges:
               1
     1  C   -0.298307
     2  C   -0.299710
     3  C   -0.475762
     4  H    0.149534
     5  H    0.149718
     6  H    0.151997
     7  H    0.152038
     8  H    0.155251
     9  H    0.155300
    10  H    0.160393
    11  C   -0.298308
    12  C   -0.302189
    13  C   -0.481246
    14  H    0.149472
    15  H    0.150055
    16  H    0.153048
    17  H    0.152473
    18  H    0.155784
    19  H    0.155304
    20  H    0.165734
    21  C   -0.298656
    22  C   -0.303771
    23  C   -0.476499
    24  H    0.149525
    25  H    0.150607
    26  H    0.151682
    27  H    0.156062
    28  H    0.156559
    29  H    0.155028
    30  H    0.159837
    31  C   -0.301148
    32  C   -0.299501
    33  C   -0.475578
    34  H    0.149662
    35  H    0.151822
    36  H    0.152156
    37  H    0.151379
    38  H    0.154558
    39  H    0.155433
    40  H    0.160263
 Sum of Mulliken charges =  -0.00000

 Dipole moment (field-independent basis, Debye):
    X=             -0.0217    Y=             -0.0189    Z=             -0.0007  Tot=              0.0288
 Quadrupole moment (field-independent basis, Debye-Ang):
   XX=            -84.5081   YY=            -85.3147   ZZ=            -84.8788
   XY=              1.6807   XZ=             -0.4262   YZ=              0.8947

 Normal termination of Gaussian 16 at Thu May  6 05:16:25 2021.
