 Gaussian 16, Revision A.03,
 Gaussian 16:  EM64L-G16RevA.03 25-Dec-2016

 -------------
 #p 6-31g* mp2
 -------------

 ------------------------------------------------------
 Input file generated by CHIRIPA (05-May-2021 14:57:27)
 ------------------------------------------------------
 Symbolic Z-matrix:
 Charge =  0 Multiplicity = 1

                         Standard orientation:
 ---------------------------------------------------------------------
 Center     Atomic      Atomic             Coordinates (Angstroms)
 Number     Number       Type             X           Y           Z
 ---------------------------------------------------------------------
      1          6           0       -4.878090   -1.848167    0.193186
      2          6           0       -4.991904   -0.862743    1.179343
      3          6           0       -4.227490    0.305594    1.107170
      4          6           0       -3.355331    0.456378    0.030186
      5          6           0       -3.219512   -0.507215   -0.967978
      6          6           0       -3.993817   -1.667577   -0.875443
      7          1           0       -5.475747   -2.752661    0.257161
      8          1           0       -5.677822   -1.000296    2.010391
      9          1           0       -4.295814    1.084544    1.856827
     10          1           0       -2.527115   -0.341694   -1.784438
     11          1           0       -3.903354   -2.431186   -1.642752
     12          7           0       -2.540845    1.689022   -0.056999
     13          8           0       -1.779767    1.797884   -1.015928
     14          8           0       -2.678952    2.522966    0.835246
     15          6           0        5.895034    0.165425    0.591364
     16          6           0        5.121672    1.201420    0.057372
     17          6           0        3.787789    0.980870   -0.298525
     18          6           0        3.257017   -0.293696   -0.106033
     19          6           0        4.001875   -1.346251    0.423689
     20          6           0        5.333657   -1.102869    0.772498
     21          1           0        6.930411    0.345622    0.865080
     22          1           0        5.555005    2.187404   -0.084411
     23          1           0        3.166434    1.764929   -0.713959
     24          1           0        3.542091   -2.318473    0.553309
     25          1           0        5.931887   -1.909320    1.186990
     26          7           0        1.846007   -0.539269   -0.479054
     27          8           0        1.401880   -1.671160   -0.299577
     28          8           0        1.210901    0.404792   -0.943841
 ---------------------------------------------------------------------

 SCF Done:  E(RHF) =  -868.337217409     A.U. after   16 cycles
 E2 =    -0.2599741028D+01 EUMP2 =    -0.87093695843638D+03

 The electronic state is 1-A.
 Alpha  occ. eigenvalues --  -20.60368 -20.60260 -20.59581 -20.59432 -15.85346
 Alpha  occ. eigenvalues --  -15.84546 -11.30799 -11.30031 -11.27419 -11.27334
 Alpha  occ. eigenvalues --  -11.27163 -11.26702 -11.26551 -11.26471 -11.26449
 Alpha  occ. eigenvalues --  -11.26396 -11.25755 -11.25658  -1.59400  -1.58575
 Alpha  occ. eigenvalues --   -1.38942  -1.38118  -1.18989  -1.18237  -1.08375
 Alpha  occ. eigenvalues --   -1.07626  -1.04401  -1.03662  -0.95191  -0.94434
 Alpha  occ. eigenvalues --   -0.85797  -0.85060  -0.82014  -0.81262  -0.77047
 Alpha  occ. eigenvalues --   -0.76274  -0.71581  -0.70770  -0.70718  -0.70100
 Alpha  occ. eigenvalues --   -0.69870  -0.69372  -0.64636  -0.64410  -0.63898
 Alpha  occ. eigenvalues --   -0.63691  -0.61742  -0.61005  -0.54915  -0.54207
 Alpha  occ. eigenvalues --   -0.52733  -0.52494  -0.51984  -0.51769  -0.48377
 Alpha  occ. eigenvalues --   -0.48332  -0.47570  -0.47506  -0.44351  -0.43434
 Alpha  occ. eigenvalues --   -0.36984  -0.36249  -0.36009  -0.35260
 Alpha virt. eigenvalues --    0.05477   0.06277   0.11643   0.12390   0.16948
 Alpha virt. eigenvalues --    0.17714   0.21765   0.22415   0.27671   0.28318
 Alpha virt. eigenvalues --    0.28684   0.29351   0.31305   0.31916   0.32964

 Mulliken charges:
               1
     1  C   -0.171415
     2  C   -0.219302
     3  C   -0.172109
     4  C    0.158203
     5  C   -0.163750
     6  C   -0.218405
     7  H    0.221489
     8  H    0.218832
     9  H    0.271996
    10  H    0.282928
    11  H    0.221788
    12  N    0.487512
    13  O   -0.447342
    14  O   -0.470414
    15  C   -0.171115
    16  C   -0.218831
    17  C   -0.170788
    18  C    0.157923
    19  C   -0.171553
    20  C   -0.218783
    21  H    0.224375
    22  H    0.223724
    23  H    0.281109
    24  H    0.273409
    25  H    0.221582
    26  N    0.486912
    27  O   -0.469559
    28  O   -0.448415
 Sum of Mulliken charges =  -0.00000

 Dipole moment (field-independent basis, Debye):
    X=              2.3014    Y=             -3.3205    Z=              1.3671  Tot=              4.2651
 Quadrupole moment (field-independent basis, Debye-Ang):
   XX=            -55.5310   YY=           -105.3467   ZZ=           -102.0944
   XY=             14.0253   XZ=              1.2703   YZ=             -0.6858

 Normal termination of Gaussian 16 at Thu May  6 16:29:36 2021.
