 Gaussian 16, Revision A.03,
 Gaussian 16:  EM64L-G16RevA.03 25-Dec-2016

 -------------
 #p 6-31g* mp2
 -------------

 ------------------------------------------------------
 Input file generated by CHIRIPA (05-May-2021 14:53:12)
 ------------------------------------------------------
 Symbolic Z-matrix:
 Charge =  0 Multiplicity = 1

                         Standard orientation:
 ---------------------------------------------------------------------
 Center     Atomic      Atomic             Coordinates (Angstroms)
 Number     Number       Type             X           Y           Z
 ---------------------------------------------------------------------
      1          6           0       -2.829088   -0.590334    0.035826
      2          6           0       -2.153069   -1.357062   -1.101326
      3          6           0       -0.680231   -1.655496   -0.819407
      4          1           0       -2.288964    0.350934    0.206777
      5          1           0       -2.743104   -1.172969    0.963478
      6          1           0       -2.241512   -0.773791   -2.026846
      7          1           0       -2.694980   -2.296526   -1.269717
      8          1           0       -0.576205   -2.257724    0.088944
      9          1           0       -0.120160   -0.726337   -0.672487
     10          1           0       -0.216574   -2.204149   -1.645156
     11          6           0       -4.301805   -0.284560   -0.231257
     12          6           0       -4.977823    0.482168    0.905894
     13          6           0       -6.450662    0.780602    0.623975
     14          1           0       -4.387788    0.298075   -1.158910
     15          1           0       -4.841929   -1.225829   -0.402208
     16          1           0       -4.435912    1.421632    1.074286
     17          1           0       -4.889380   -0.101104    1.831415
     18          1           0       -7.010732   -0.148557    0.477055
     19          1           0       -6.554688    1.382830   -0.284375
     20          1           0       -6.914319    1.329254    1.449725
     21          6           0        3.519319   -1.939939    0.864574
     22          6           0        3.161846   -1.743040   -0.473322
     23          6           0        2.753725   -0.483109   -0.921161
     24          6           0        2.714563    0.562341    0.000137
     25          6           0        3.064544    0.397799    1.339438
     26          6           0        3.469614   -0.870776    1.765096
     27          1           0        3.835171   -2.922041    1.203850
     28          1           0        3.199488   -2.571536   -1.174908
     29          1           0        2.471531   -0.302766   -1.951336
     30          1           0        3.016926    1.242965    2.015341
     31          1           0        3.746662   -1.020764    2.804708
     32          7           0        2.284118    1.900749   -0.462229
     33          8           0        2.258139    2.805515    0.369253
     34          8           0        1.980867    2.019685   -1.647358
 ---------------------------------------------------------------------

 SCF Done:  E(RHF) =  -669.534923434     A.U. after   15 cycles
 E2 =    -0.2092462011D+01 EUMP2 =    -0.67162738544495D+03

 The electronic state is 1-A.
 Alpha  occ. eigenvalues --  -20.60805 -20.60797 -15.85852 -11.31161 -11.27757
 Alpha  occ. eigenvalues --  -11.27740 -11.27498 -11.26747 -11.26733 -11.21511
 Alpha  occ. eigenvalues --  -11.21417 -11.21254 -11.21188 -11.21113 -11.20898
 Alpha  occ. eigenvalues --   -1.59879  -1.39433  -1.19359  -1.08758  -1.08292
 Alpha  occ. eigenvalues --   -1.04757  -1.03421  -0.95894  -0.95593  -0.86915
 Alpha  occ. eigenvalues --   -0.86154  -0.82428  -0.79492  -0.78099  -0.77478
 Alpha  occ. eigenvalues --   -0.72069  -0.71209  -0.70472  -0.65010  -0.64919
 Alpha  occ. eigenvalues --   -0.64752  -0.62107  -0.60819  -0.59267  -0.57505
 Alpha  occ. eigenvalues --   -0.55288  -0.55183  -0.53291  -0.52845  -0.52547
 Alpha  occ. eigenvalues --   -0.52167  -0.49808  -0.48829  -0.48824  -0.47797
 Alpha  occ. eigenvalues --   -0.46510  -0.45645  -0.45557  -0.44835  -0.43687
 Alpha  occ. eigenvalues --   -0.37319  -0.36274
 Alpha virt. eigenvalues --    0.05045   0.11268   0.16503   0.21246   0.23005
 Alpha virt. eigenvalues --    0.24291   0.26772   0.26896   0.27604   0.28077
 Alpha virt. eigenvalues --    0.28606   0.30578   0.31428   0.32022   0.32263

 Mulliken charges:
               1
     1  C   -0.299159
     2  C   -0.300150
     3  C   -0.475050
     4  H    0.153997
     5  H    0.147119
     6  H    0.155223
     7  H    0.149709
     8  H    0.152668
     9  H    0.159712
    10  H    0.151464
    11  C   -0.298385
    12  C   -0.300021
    13  C   -0.475735
    14  H    0.151523
    15  H    0.148131
    16  H    0.154549
    17  H    0.150401
    18  H    0.154075
    19  H    0.156157
    20  H    0.160112
    21  C   -0.170940
    22  C   -0.214739
    23  C   -0.169191
    24  C    0.158353
    25  C   -0.171091
    26  C   -0.218676
    27  H    0.225588
    28  H    0.223421
    29  H    0.275831
    30  H    0.275511
    31  H    0.223258
    32  N    0.487759
    33  O   -0.460485
    34  O   -0.460939
 Sum of Mulliken charges =  -0.00000

 Dipole moment (field-independent basis, Debye):
    X=              1.5627    Y=             -4.6652    Z=              1.6333  Tot=              5.1840
 Quadrupole moment (field-independent basis, Debye-Ang):
   XX=            -88.3390   YY=            -99.4933   ZZ=            -90.4396
   XY=            -11.6310   XZ=              5.0424   YZ=              2.3684

 Normal termination of Gaussian 16 at Thu May  6 02:32:54 2021.
