 Gaussian 16, Revision A.03,
 Gaussian 16:  EM64L-G16RevA.03 25-Dec-2016

 -------------
 #p 6-31g* mp2
 -------------

 ------------------------------------------------------
 Input file generated by CHIRIPA (05-May-2021 14:51:11)
 ------------------------------------------------------
 Symbolic Z-matrix:
 Charge =  0 Multiplicity = 1

                         Standard orientation:
 ---------------------------------------------------------------------
 Center     Atomic      Atomic             Coordinates (Angstroms)
 Number     Number       Type             X           Y           Z
 ---------------------------------------------------------------------
      1          6           0       -2.672131   -0.083919   -0.342734
      2          6           0       -4.124068   -0.003991   -0.815465
      3          6           0       -4.367160    1.152752   -1.785335
      4          1           0       -2.397346    0.864374    0.139115
      5          1           0       -2.014789   -0.192521   -1.216520
      6          1           0       -4.778582    0.103037    0.059047
      7          1           0       -4.395488   -0.952654   -1.296074
      8          1           0       -3.738207    1.047945   -2.675298
      9          1           0       -4.123477    2.109635   -1.312477
     10          1           0       -5.411480    1.191257   -2.110562
     11          6           0       -2.413383   -1.235293    0.627378
     12          6           0       -0.961446   -1.315221    1.100110
     13          6           0       -0.718354   -2.471964    2.069979
     14          1           0       -3.070725   -1.126691    1.501165
     15          1           0       -2.688168   -2.183586    0.145530
     16          1           0       -0.690026   -0.366558    1.580719
     17          1           0       -0.306932   -1.422249    0.225597
     18          1           0       -0.962036   -3.428847    1.597122
     19          1           0       -1.347307   -2.367157    2.959943
     20          1           0        0.325966   -2.510469    2.395207
     21          6           0        1.941846    1.126374   -0.075499
     22          6           0        2.040477    2.074453    1.120078
     23          6           0        0.830909    3.001956    1.240399
     24          1           0        1.837809    1.716910   -0.996036
     25          1           0        1.026019    0.526136    0.015980
     26          1           0        2.956556    2.671753    1.027083
     27          1           0        2.144484    1.481596    2.037857
     28          1           0       -0.089692    2.421201    1.357948
     29          1           0        0.726994    3.618120    0.341430
     30          1           0        0.922208    3.671107    2.101655
     31          6           0        3.143668    0.192838   -0.209146
     32          6           0        3.045037   -0.755241   -1.404722
     33          6           0        4.254605   -1.682744   -1.525044
     34          1           0        4.059496    0.793076   -0.300624
     35          1           0        3.247705   -0.397698    0.711392
     36          1           0        2.941030   -0.162384   -2.322502
     37          1           0        2.128958   -1.352541   -1.311728
     38          1           0        4.358520   -2.298908   -0.626074
     39          1           0        5.175206   -1.101989   -1.642592
     40          1           0        4.163305   -2.351895   -2.386300
 ---------------------------------------------------------------------

 SCF Done:  E(RHF) =  -470.732478743     A.U. after   11 cycles
 E2 =    -0.1584678209D+01 EUMP2 =    -0.47231715695182D+03

 The electronic state is 1-A.
 Alpha  occ. eigenvalues --  -11.21722 -11.21638 -11.21591 -11.21538 -11.21479
 Alpha  occ. eigenvalues --  -11.21414 -11.21317 -11.21177 -11.21157 -11.21083
 Alpha  occ. eigenvalues --  -11.21060 -11.21058  -1.08528  -1.08346  -1.03613
 Alpha  occ. eigenvalues --   -1.03489  -0.96049  -0.95932  -0.87071  -0.86949
 Alpha  occ. eigenvalues --   -0.79735  -0.79545  -0.78472  -0.78018  -0.65146
 Alpha  occ. eigenvalues --   -0.65011  -0.61074  -0.60834  -0.59427  -0.59295
 Alpha  occ. eigenvalues --   -0.57678  -0.57532  -0.55330  -0.55227  -0.52754
 Alpha  occ. eigenvalues --   -0.52642  -0.52493  -0.52344  -0.49990  -0.49895
 Alpha  occ. eigenvalues --   -0.48136  -0.47867  -0.46771  -0.46623  -0.46268
 Alpha  occ. eigenvalues --   -0.45748  -0.45683  -0.44972  -0.43847  -0.43720
 Alpha virt. eigenvalues --    0.20166   0.22088   0.23295   0.24647   0.25035
 Alpha virt. eigenvalues --    0.25984   0.26792   0.28059   0.28706   0.29533
 Alpha virt. eigenvalues --    0.30699   0.31556   0.31809   0.31944   0.32058

 Mulliken charges:
               1
     1  C   -0.301442
     2  C   -0.299605
     3  C   -0.475811
     4  H    0.151647
     5  H    0.150409
     6  H    0.152039
     7  H    0.152081
     8  H    0.155388
     9  H    0.155631
    10  H    0.160311
    11  C   -0.297520
    12  C   -0.309503
    13  C   -0.474863
    14  H    0.149794
    15  H    0.149961
    16  H    0.155831
    17  H    0.156634
    18  H    0.155653
    19  H    0.155711
    20  H    0.160010
    21  C   -0.308717
    22  C   -0.299116
    23  C   -0.479046
    24  H    0.148264
    25  H    0.163219
    26  H    0.151668
    27  H    0.151098
    28  H    0.156642
    29  H    0.155574
    30  H    0.159966
    31  C   -0.297474
    32  C   -0.302056
    33  C   -0.475543
    34  H    0.149183
    35  H    0.148847
    36  H    0.151989
    37  H    0.152691
    38  H    0.155144
    39  H    0.155356
    40  H    0.159956
 Sum of Mulliken charges =  -0.00000

 Dipole moment (field-independent basis, Debye):
    X=             -0.0684    Y=             -0.0349    Z=             -0.0004  Tot=              0.0768
 Quadrupole moment (field-independent basis, Debye-Ang):
   XX=            -85.3469   YY=            -85.1492   ZZ=            -84.3796
   XY=              1.0214   XZ=             -0.5081   YZ=              0.4242

 Normal termination of Gaussian 16 at Wed May  5 15:14:19 2021.
