 Gaussian 16, Revision A.03,
 Gaussian 16:  EM64L-G16RevA.03 25-Dec-2016

 -------------
 #p 6-31g* mp2
 -------------

 ------------------------------------------------------
 Input file generated by CHIRIPA (05-May-2021 14:51:08)
 ------------------------------------------------------
 Symbolic Z-matrix:
 Charge =  0 Multiplicity = 1

                         Standard orientation:
 ---------------------------------------------------------------------
 Center     Atomic      Atomic             Coordinates (Angstroms)
 Number     Number       Type             X           Y           Z
 ---------------------------------------------------------------------
      1          6           0        3.521488    0.273958   -0.486238
      2          6           0        3.633147   -1.197066   -0.084235
      3          6           0        4.716629   -1.942432   -0.864164
      4          1           0        3.310524    0.338371   -1.562476
      5          1           0        4.491778    0.764765   -0.327993
      6          1           0        2.662555   -1.684624   -0.241887
      7          1           0        3.843680   -1.257988    0.991209
      8          1           0        5.696121   -1.482300   -0.698412
      9          1           0        4.508285   -1.911360   -1.938514
     10          1           0        4.779261   -2.992194   -0.560952
     11          6           0        2.442606    1.032467    0.284739
     12          6           0        2.330947    2.503490   -0.117263
     13          6           0        1.247465    3.248857    0.662666
     14          1           0        1.472316    0.541659    0.126495
     15          1           0        2.653570    0.968054    1.360978
     16          1           0        2.120414    2.564413   -1.192708
     17          1           0        3.301539    2.991049    0.040388
     18          1           0        1.455808    3.217785    1.737016
     19          1           0        0.267972    2.788725    0.496914
     20          1           0        1.184833    4.298619    0.359454
     21          6           0       -2.590445   -1.258263    0.353719
     22          6           0       -1.092876   -0.990379    0.507060
     23          6           0       -0.322991   -2.210261    1.013971
     24          1           0       -3.000639   -1.576123    1.322043
     25          1           0       -2.736462   -2.098876   -0.338698
     26          1           0       -0.949780   -0.149626    1.197910
     27          1           0       -0.686238   -0.672934   -0.461697
     28          1           0       -0.436150   -3.051735    0.322800
     29          1           0       -0.701188   -2.525453    1.991836
     30          1           0        0.745529   -1.996583    1.116272
     31          6           0       -3.373649   -0.048162   -0.152221
     32          6           0       -4.871217   -0.316047   -0.305562
     33          6           0       -5.641102    0.903836   -0.812472
     34          1           0       -3.227632    0.792452    0.540196
     35          1           0       -2.963455    0.269699   -1.120544
     36          1           0       -5.277856   -0.633491    0.663195
     37          1           0       -5.014314   -1.156799   -0.996412
     38          1           0       -5.262906    1.219029   -1.790338
     39          1           0       -5.527944    1.745311   -0.121302
     40          1           0       -6.709623    0.690158   -0.914773
 ---------------------------------------------------------------------

 SCF Done:  E(RHF) =  -470.732583025     A.U. after   11 cycles
 E2 =    -0.1584277480D+01 EUMP2 =    -0.47231686050486D+03

 The electronic state is 1-A.
 Alpha  occ. eigenvalues --  -11.21652 -11.21624 -11.21581 -11.21563 -11.21438
 Alpha  occ. eigenvalues --  -11.21379 -11.21359 -11.21267 -11.21086 -11.21063
 Alpha  occ. eigenvalues --  -11.21040 -11.21037  -1.08482  -1.08385  -1.03561
 Alpha  occ. eigenvalues --   -1.03507  -0.96011  -0.95944  -0.87036  -0.86954
 Alpha  occ. eigenvalues --   -0.79720  -0.79500  -0.78383  -0.78127  -0.65129
 Alpha  occ. eigenvalues --   -0.65023  -0.60975  -0.60893  -0.59441  -0.59272
 Alpha  occ. eigenvalues --   -0.57686  -0.57515  -0.55285  -0.55236  -0.52799
 Alpha  occ. eigenvalues --   -0.52601  -0.52426  -0.52359  -0.49977  -0.49871
 Alpha  occ. eigenvalues --   -0.48153  -0.47718  -0.46675  -0.46591  -0.45997
 Alpha  occ. eigenvalues --   -0.45773  -0.45703  -0.45373  -0.43792  -0.43733
 Alpha virt. eigenvalues --    0.21143   0.23095   0.23610   0.24051   0.26144
 Alpha virt. eigenvalues --    0.26263   0.26613   0.27294   0.28508   0.29672
 Alpha virt. eigenvalues --    0.30560   0.31091   0.31570   0.32001   0.32636

 Mulliken charges:
               1
     1  C   -0.297300
     2  C   -0.305901
     3  C   -0.475156
     4  H    0.148920
     5  H    0.149347
     6  H    0.158052
     7  H    0.151429
     8  H    0.155185
     9  H    0.154995
    10  H    0.160330
    11  C   -0.309776
    12  C   -0.298806
    13  C   -0.476941
    14  H    0.163482
    15  H    0.148517
    16  H    0.151425
    17  H    0.151668
    18  H    0.154758
    19  H    0.156422
    20  H    0.160087
    21  C   -0.297460
    22  C   -0.303289
    23  C   -0.483473
    24  H    0.150038
    25  H    0.149574
    26  H    0.154322
    27  H    0.150871
    28  H    0.154418
    29  H    0.155427
    30  H    0.168953
    31  C   -0.298570
    32  C   -0.299643
    33  C   -0.475751
    34  H    0.149634
    35  H    0.149280
    36  H    0.152107
    37  H    0.151975
    38  H    0.155144
    39  H    0.155359
    40  H    0.160349
 Sum of Mulliken charges =  -0.00000

 Dipole moment (field-independent basis, Debye):
    X=             -0.0246    Y=             -0.0188    Z=              0.0089  Tot=              0.0322
 Quadrupole moment (field-independent basis, Debye-Ang):
   XX=            -85.4413   YY=            -85.7917   ZZ=            -83.6752
   XY=              1.1033   XZ=              0.4405   YZ=              0.4218

 Normal termination of Gaussian 16 at Thu May  6 02:04:52 2021.
