 Gaussian 16, Revision A.03,
 Gaussian 16:  EM64L-G16RevA.03 25-Dec-2016

 -------------
 #p 6-31g* mp2
 -------------

 ------------------------------------------------------
 Input file generated by CHIRIPA (05-May-2021 14:53:16)
 ------------------------------------------------------
 Symbolic Z-matrix:
 Charge =  0 Multiplicity = 1

                         Standard orientation:
 ---------------------------------------------------------------------
 Center     Atomic      Atomic             Coordinates (Angstroms)
 Number     Number       Type             X           Y           Z
 ---------------------------------------------------------------------
      1          6           0        3.404719    0.347196   -0.162741
      2          6           0        3.113601   -1.147386   -0.302240
      3          6           0        4.373038   -1.972711   -0.567670
      4          1           0        3.893723    0.706079   -1.078723
      5          1           0        4.122813    0.499018    0.654991
      6          1           0        2.395212   -1.296221   -1.118561
      7          1           0        2.625061   -1.502712    0.614105
      8          1           0        5.091032   -1.853782    0.250218
      9          1           0        4.859876   -1.646118   -1.492292
     10          1           0        4.141927   -3.038155   -0.663987
     11          6           0        2.155552    1.185502    0.102874
     12          6           0        2.446669    2.680085    0.242373
     13          6           0        1.187233    3.505409    0.507804
     14          1           0        1.437458    1.033680   -0.714858
     15          1           0        1.666548    0.826619    1.018857
     16          1           0        2.935210    3.035411   -0.673972
     17          1           0        3.165059    2.828920    1.058694
     18          1           0        0.700394    3.178816    1.432426
     19          1           0        0.469239    3.386480   -0.310085
     20          1           0        1.418344    4.570854    0.604120
     21          6           0       -0.368303   -2.161955    0.841269
     22          6           0       -1.264595   -1.590589    1.750512
     23          6           0       -2.267908   -0.723054    1.308592
     24          6           0       -2.346354   -0.447581   -0.055685
     25          6           0       -1.468300   -1.001105   -0.986234
     26          6           0       -0.472831   -1.865912   -0.521799
     27          1           0        0.408049   -2.834817    1.193308
     28          1           0       -1.185793   -1.818698    2.809662
     29          1           0       -2.974974   -0.266830    1.990748
     30          1           0       -1.571899   -0.754727   -2.035988
     31          1           0        0.221859   -2.308186   -1.230207
     32          7           0       -3.404365    0.469394   -0.535443
     33          8           0       -3.452329    0.696056   -1.742489
     34          8           0       -4.165635    0.944097    0.304654
 ---------------------------------------------------------------------

 SCF Done:  E(RHF) =  -669.534216124     A.U. after   15 cycles
 E2 =    -0.2094105220D+01 EUMP2 =    -0.67162832134390D+03

 The electronic state is 1-A.
 Alpha  occ. eigenvalues --  -20.60758 -20.60753 -15.85811 -11.31178 -11.27744
 Alpha  occ. eigenvalues --  -11.27731 -11.27466 -11.26776 -11.26723 -11.22431
 Alpha  occ. eigenvalues --  -11.21906 -11.21833 -11.21767 -11.21636 -11.21088
 Alpha  occ. eigenvalues --   -1.59833  -1.39387  -1.19349  -1.08916  -1.08717
 Alpha  occ. eigenvalues --   -1.04758  -1.03982  -0.96393  -0.95580  -0.87415
 Alpha  occ. eigenvalues --   -0.86159  -0.82417  -0.80119  -0.78662  -0.77451
 Alpha  occ. eigenvalues --   -0.72030  -0.71155  -0.70463  -0.65549  -0.65003
 Alpha  occ. eigenvalues --   -0.64768  -0.62136  -0.61370  -0.59807  -0.58006
 Alpha  occ. eigenvalues --   -0.55674  -0.55256  -0.53274  -0.52978  -0.52891
 Alpha  occ. eigenvalues --   -0.52761  -0.50329  -0.48801  -0.48786  -0.48376
 Alpha  occ. eigenvalues --   -0.47130  -0.46162  -0.46097  -0.44793  -0.44211
 Alpha  occ. eigenvalues --   -0.37258  -0.36304
 Alpha virt. eigenvalues --    0.05033   0.11236   0.16390   0.20275   0.22764
 Alpha virt. eigenvalues --    0.24005   0.25188   0.26283   0.27440   0.28019
 Alpha virt. eigenvalues --    0.28939   0.29583   0.31256   0.31626   0.31923

 Mulliken charges:
               1
     1  C   -0.298244
     2  C   -0.300959
     3  C   -0.475705
     4  H    0.151422
     5  H    0.150413
     6  H    0.146342
     7  H    0.146554
     8  H    0.157785
     9  H    0.158529
    10  H    0.156065
    11  C   -0.299021
    12  C   -0.300430
    13  C   -0.475952
    14  H    0.150522
    15  H    0.150016
    16  H    0.152319
    17  H    0.150925
    18  H    0.154702
    19  H    0.158921
    20  H    0.161531
    21  C   -0.169762
    22  C   -0.219980
    23  C   -0.170881
    24  C    0.159481
    25  C   -0.173546
    26  C   -0.212538
    27  H    0.225895
    28  H    0.223160
    29  H    0.275483
    30  H    0.274969
    31  H    0.225054
    32  N    0.488071
    33  O   -0.460819
    34  O   -0.460325
 Sum of Mulliken charges =  -0.00000

 Dipole moment (field-independent basis, Debye):
    X=              3.7396    Y=             -3.1513    Z=              1.6944  Tot=              5.1755
 Quadrupole moment (field-independent basis, Debye-Ang):
   XX=           -113.1399   YY=            -93.0057   ZZ=            -89.6671
   XY=              6.4321   XZ=             -5.7281   YZ=             -0.3121

 Normal termination of Gaussian 16 at Wed May  5 15:42:26 2021.
