 Gaussian 16, Revision A.03,
 Gaussian 16:  EM64L-G16RevA.03 25-Dec-2016

 -------------
 #p 6-31g* mp2
 -------------

 ------------------------------------------------------
 Input file generated by CHIRIPA (05-May-2021 14:51:09)
 ------------------------------------------------------
 Symbolic Z-matrix:
 Charge =  0 Multiplicity = 1

                         Standard orientation:
 ---------------------------------------------------------------------
 Center     Atomic      Atomic             Coordinates (Angstroms)
 Number     Number       Type             X           Y           Z
 ---------------------------------------------------------------------
      1          6           0       -2.108538    1.095823    0.030783
      2          6           0       -2.758300    2.477863   -0.045109
      3          6           0       -1.739485    3.615222    0.033804
      4          1           0       -1.539621    1.016063    0.967221
      5          1           0       -1.381019    0.994999   -0.786496
      6          1           0       -3.485380    2.575534    0.771243
      7          1           0       -3.325894    2.554273   -0.981387
      8          1           0       -1.020177    3.545831   -0.788620
      9          1           0       -1.180569    3.567212    0.973968
     10          1           0       -2.225556    4.594225   -0.022304
     11          6           0       -3.114201   -0.051499   -0.046813
     12          6           0       -2.464439   -1.433540    0.029079
     13          6           0       -3.483254   -2.570898   -0.049834
     14          1           0       -3.841721    0.049325    0.770466
     15          1           0       -3.683118    0.028260   -0.983251
     16          1           0       -1.896846   -1.509949    0.965357
     17          1           0       -1.737360   -1.531210   -0.787273
     18          1           0       -4.042170   -2.522889   -0.989998
     19          1           0       -4.202563   -2.501507    0.772590
     20          1           0       -2.997184   -3.549901    0.006273
     21          6           0        2.686291   -1.276025   -0.089499
     22          6           0        1.397121   -2.053230    0.178792
     23          6           0        1.562944   -3.560079   -0.020459
     24          1           0        3.021055   -1.476895   -1.116401
     25          1           0        3.476845   -1.649985    0.575762
     26          1           0        0.608866   -1.676972   -0.485813
     27          1           0        1.065282   -1.850336    1.205112
     28          1           0        2.330087   -3.955615    0.653073
     29          1           0        1.871077   -3.781265   -1.047461
     30          1           0        0.629358   -4.096231    0.176566
     31          6           0        2.536449    0.231702    0.105528
     32          6           0        3.825619    1.008905   -0.162762
     33          6           0        3.659796    2.515756    0.036490
     34          1           0        1.745894    0.605662   -0.559733
     35          1           0        2.201684    0.432571    1.132432
     36          1           0        4.157457    0.806012   -1.189082
     37          1           0        4.613873    0.632647    0.501844
     38          1           0        3.351662    2.736941    1.063491
     39          1           0        2.892653    2.911290   -0.637042
     40          1           0        4.593381    3.051908   -0.160535
 ---------------------------------------------------------------------

 SCF Done:  E(RHF) =  -470.732863878     A.U. after   11 cycles
 E2 =    -0.1583882005D+01 EUMP2 =    -0.47231674588354D+03

 The electronic state is 1-A.
 Alpha  occ. eigenvalues --  -11.21600 -11.21567 -11.21557 -11.21481 -11.21399
 Alpha  occ. eigenvalues --  -11.21350 -11.21339 -11.21290 -11.21066 -11.21064
 Alpha  occ. eigenvalues --  -11.21037 -11.21031  -1.08441  -1.08361  -1.03549
 Alpha  occ. eigenvalues --   -1.03453  -0.95979  -0.95926  -0.87001  -0.86937
 Alpha  occ. eigenvalues --   -0.79741  -0.79415  -0.78408  -0.77998  -0.65133
 Alpha  occ. eigenvalues --   -0.64943  -0.61013  -0.60799  -0.59472  -0.59185
 Alpha  occ. eigenvalues --   -0.57688  -0.57422  -0.55280  -0.55204  -0.52692
 Alpha  occ. eigenvalues --   -0.52604  -0.52449  -0.52303  -0.49962  -0.49839
 Alpha  occ. eigenvalues --   -0.48226  -0.47595  -0.46832  -0.46409  -0.46188
 Alpha  occ. eigenvalues --   -0.45852  -0.45533  -0.45127  -0.43786  -0.43711
 Alpha virt. eigenvalues --    0.21119   0.22603   0.23554   0.24356   0.25291
 Alpha virt. eigenvalues --    0.25814   0.26450   0.27945   0.28864   0.29670
 Alpha virt. eigenvalues --    0.30466   0.30636   0.31166   0.32108   0.32555

 Mulliken charges:
               1
     1  C   -0.299252
     2  C   -0.299759
     3  C   -0.475383
     4  H    0.150698
     5  H    0.149520
     6  H    0.152000
     7  H    0.151747
     8  H    0.154633
     9  H    0.155661
    10  H    0.160217
    11  C   -0.298307
    12  C   -0.303060
    13  C   -0.475566
    14  H    0.149389
    15  H    0.149211
    16  H    0.154622
    17  H    0.154677
    18  H    0.154934
    19  H    0.155064
    20  H    0.159926
    21  C   -0.298184
    22  C   -0.303422
    23  C   -0.476278
    24  H    0.148956
    25  H    0.148982
    26  H    0.158515
    27  H    0.151012
    28  H    0.154976
    29  H    0.154647
    30  H    0.160099
    31  C   -0.299017
    32  C   -0.299694
    33  C   -0.475444
    34  H    0.150727
    35  H    0.149291
    36  H    0.151644
    37  H    0.151820
    38  H    0.155112
    39  H    0.155250
    40  H    0.160039
 Sum of Mulliken charges =  -0.00000

 Dipole moment (field-independent basis, Debye):
    X=             -0.0278    Y=              0.0108    Z=              0.0099  Tot=              0.0314
 Quadrupole moment (field-independent basis, Debye-Ang):
   XX=            -85.2672   YY=            -86.9768   ZZ=            -82.7491
   XY=             -0.6117   XZ=              0.1173   YZ=             -0.2241

 Normal termination of Gaussian 16 at Thu May  6 03:43:11 2021.
