 Gaussian 16, Revision A.03,
 Gaussian 16:  EM64L-G16RevA.03 25-Dec-2016

 -------------
 #p 6-31g* mp2
 -------------

 ------------------------------------------------------
 Input file generated by CHIRIPA (05-May-2021 14:53:15)
 ------------------------------------------------------
 Symbolic Z-matrix:
 Charge =  0 Multiplicity = 1

                         Standard orientation:
 ---------------------------------------------------------------------
 Center     Atomic      Atomic             Coordinates (Angstroms)
 Number     Number       Type             X           Y           Z
 ---------------------------------------------------------------------
      1          6           0        3.722125    1.086014    0.259941
      2          6           0        2.636270    2.124067   -0.025282
      3          6           0        3.047971    3.538245    0.385078
      4          1           0        3.963963    1.102648    1.331474
      5          1           0        4.640428    1.370520   -0.272197
      6          1           0        1.719873    1.836946    0.506126
      7          1           0        2.396853    2.104826   -1.096228
      8          1           0        3.948310    3.849251   -0.154613
      9          1           0        3.267484    3.579849    1.456845
     10          1           0        2.257105    4.264279    0.172322
     11          6           0        3.325367   -0.332597   -0.144847
     12          6           0        4.411221   -1.370649    0.140376
     13          6           0        3.999520   -2.784827   -0.269984
     14          1           0        2.407064   -0.617103    0.387291
     15          1           0        3.083529   -0.349231   -1.216380
     16          1           0        4.650638   -1.351408    1.211322
     17          1           0        5.327618   -1.083529   -0.391032
     18          1           0        3.780008   -2.826432   -1.341751
     19          1           0        3.099181   -3.095833    0.269707
     20          1           0        4.790386   -3.510861   -0.057228
     21          6           0       -4.863675    1.087355   -0.003947
     22          6           0       -3.680863    1.631227   -0.515493
     23          6           0       -2.505410    0.874858   -0.543173
     24          6           0       -2.548867   -0.427878   -0.048924
     25          6           0       -3.711663   -0.997913    0.467075
     26          6           0       -4.875280   -0.223168    0.484843
     27          1           0       -5.772198    1.682058    0.013707
     28          1           0       -3.668900    2.648721   -0.895764
     29          1           0       -1.575891    1.271055   -0.933609
     30          1           0       -3.692505   -2.015098    0.839077
     31          1           0       -5.792418   -0.648150    0.882703
     32          7           0       -1.310733   -1.238338   -0.072981
     33          8           0       -1.375261   -2.383604    0.368425
     34          8           0       -0.299201   -0.712965   -0.532787
 ---------------------------------------------------------------------

 SCF Done:  E(RHF) =  -669.536020295     A.U. after   15 cycles
 E2 =    -0.2091497806D+01 EUMP2 =    -0.67162751810094D+03

 The electronic state is 1-A.
 Alpha  occ. eigenvalues --  -20.60964 -20.60953 -15.85984 -11.31299 -11.27864
 Alpha  occ. eigenvalues --  -11.27855 -11.27600 -11.26869 -11.26858 -11.20813
 Alpha  occ. eigenvalues --  -11.20569 -11.20384 -11.20377 -11.19818 -11.19769
 Alpha  occ. eigenvalues --   -1.60023  -1.39578  -1.19469  -1.08876  -1.07309
 Alpha  occ. eigenvalues --   -1.04862  -1.02526  -0.95718  -0.94961  -0.86263
 Alpha  occ. eigenvalues --   -0.85977  -0.82552  -0.78612  -0.77617  -0.77009
 Alpha  occ. eigenvalues --   -0.72197  -0.71336  -0.70575  -0.65123  -0.64865
 Alpha  occ. eigenvalues --   -0.63953  -0.62208  -0.59935  -0.58376  -0.56557
 Alpha  occ. eigenvalues --   -0.55368  -0.54249  -0.53196  -0.52953  -0.51728
 Alpha  occ. eigenvalues --   -0.51371  -0.49047  -0.48970  -0.48824  -0.46912
 Alpha  occ. eigenvalues --   -0.45660  -0.45118  -0.44585  -0.44273  -0.42728
 Alpha  occ. eigenvalues --   -0.37448  -0.36464
 Alpha virt. eigenvalues --    0.04894   0.11187   0.16378   0.21229   0.23809
 Alpha virt. eigenvalues --    0.25192   0.26984   0.27625   0.27832   0.28920
 Alpha virt. eigenvalues --    0.29124   0.31015   0.32059   0.32368   0.32514

 Mulliken charges:
               1
     1  C   -0.298364
     2  C   -0.298385
     3  C   -0.474666
     4  H    0.145734
     5  H    0.144715
     6  H    0.154337
     7  H    0.150232
     8  H    0.153996
     9  H    0.153862
    10  H    0.153562
    11  C   -0.301323
    12  C   -0.299560
    13  C   -0.475025
    14  H    0.171591
    15  H    0.150095
    16  H    0.147239
    17  H    0.145622
    18  H    0.154614
    19  H    0.164266
    20  H    0.153468
    21  C   -0.170547
    22  C   -0.218605
    23  C   -0.171598
    24  C    0.157624
    25  C   -0.170670
    26  C   -0.218623
    27  H    0.226030
    28  H    0.224003
    29  H    0.276997
    30  H    0.275779
    31  H    0.223808
    32  N    0.489392
    33  O   -0.459533
    34  O   -0.460065
 Sum of Mulliken charges =  -0.00000

 Dipole moment (field-independent basis, Debye):
    X=             -4.6969    Y=              2.6948    Z=              0.0671  Tot=              5.4155
 Quadrupole moment (field-independent basis, Debye-Ang):
   XX=            -73.0387   YY=            -96.3658   ZZ=            -93.9221
   XY=             -3.7249   XZ=             -1.6839   YZ=             -2.5376

 Normal termination of Gaussian 16 at Wed May  5 17:11:00 2021.
