 Gaussian 16, Revision A.03,
 Gaussian 16:  EM64L-G16RevA.03 25-Dec-2016

 -------------
 #p 6-31g* mp2
 -------------

 ------------------------------------------------------
 Input file generated by CHIRIPA (05-May-2021 14:57:26)
 ------------------------------------------------------
 Symbolic Z-matrix:
 Charge =  0 Multiplicity = 1

                         Standard orientation:
 ---------------------------------------------------------------------
 Center     Atomic      Atomic             Coordinates (Angstroms)
 Number     Number       Type             X           Y           Z
 ---------------------------------------------------------------------
      1          6           0        0.909111    0.019580    0.264723
      2          6           0        1.475649   -0.130910   -1.005280
      3          6           0        2.863428   -0.199053   -1.160121
      4          6           0        3.658410   -0.112998   -0.018242
      5          6           0        3.123952    0.037165    1.260467
      6          6           0        1.733617    0.102990    1.391557
      7          1           0       -0.169941    0.071615    0.375782
      8          1           0        0.837777   -0.195960   -1.882168
      9          1           0        3.328491   -0.315357   -2.131515
     10          1           0        3.785634    0.099135    2.115894
     11          1           0        1.296411    0.219883    2.379095
     12          7           0        5.128942   -0.183911   -0.169593
     13          8           0        5.807524   -0.105669    0.852191
     14          8           0        5.575118   -0.316392   -1.307139
     15          6           0       -4.087060   -2.329331    0.080723
     16          6           0       -4.112841   -1.639348   -1.135739
     17          6           0       -3.743143   -0.292410   -1.195994
     18          6           0       -3.351177    0.336297   -0.015155
     19          6           0       -3.315053   -0.323977    1.212046
     20          6           0       -3.688951   -1.670606    1.248673
     21          1           0       -4.375882   -3.375545    0.118353
     22          1           0       -4.421585   -2.148370   -2.044374
     23          1           0       -3.753890    0.265730   -2.124317
     24          1           0       -3.002720    0.210337    2.101075
     25          1           0       -3.667965   -2.203943    2.194801
     26          7           0       -2.957572    1.762075   -0.066437
     27          8           0       -2.616101    2.293259    0.988019
     28          8           0       -2.997987    2.321419   -1.160118
 ---------------------------------------------------------------------

 SCF Done:  E(RHF) =  -868.337950174     A.U. after   16 cycles
 E2 =    -0.2600346993D+01 EUMP2 =    -0.87093829716726D+03

 The electronic state is 1-A.
 Alpha  occ. eigenvalues --  -20.61889 -20.61873 -20.60541 -20.60535 -15.86929
 Alpha  occ. eigenvalues --  -15.85593 -11.32338 -11.30907 -11.28888 -11.28835
 Alpha  occ. eigenvalues --  -11.28522 -11.27844 -11.27815 -11.27480 -11.27475
 Alpha  occ. eigenvalues --  -11.27183 -11.26476 -11.26466  -1.60965  -1.59617
 Alpha  occ. eigenvalues --   -1.40512  -1.39172  -1.20486  -1.19075  -1.09855
 Alpha  occ. eigenvalues --   -1.08474  -1.05859  -1.04476  -0.96683  -0.95321
 Alpha  occ. eigenvalues --   -0.87249  -0.85874  -0.83496  -0.82161  -0.78565
 Alpha  occ. eigenvalues --   -0.77216  -0.73121  -0.72355  -0.71813  -0.71522
 Alpha  occ. eigenvalues --   -0.70939  -0.70162  -0.66101  -0.65816  -0.64729
 Alpha  occ. eigenvalues --   -0.64484  -0.63189  -0.61832  -0.56300  -0.55081
 Alpha  occ. eigenvalues --   -0.54108  -0.53916  -0.52797  -0.52573  -0.49895
 Alpha  occ. eigenvalues --   -0.49885  -0.48570  -0.48568  -0.45891  -0.44590
 Alpha  occ. eigenvalues --   -0.38439  -0.37473  -0.37030  -0.36079
 Alpha virt. eigenvalues --    0.03932   0.05328   0.10099   0.11582   0.15449
 Alpha virt. eigenvalues --    0.16834   0.20432   0.21492   0.26316   0.27215
 Alpha virt. eigenvalues --    0.27568   0.27841   0.30282   0.30950   0.31573

 Mulliken charges:
               1
     1  C   -0.168588
     2  C   -0.218923
     3  C   -0.170817
     4  C    0.158078
     5  C   -0.170957
     6  C   -0.219040
     7  H    0.225179
     8  H    0.222528
     9  H    0.274649
    10  H    0.274712
    11  H    0.222670
    12  N    0.488131
    13  O   -0.461131
    14  O   -0.461199
    15  C   -0.170232
    16  C   -0.217792
    17  C   -0.173984
    18  C    0.152503
    19  C   -0.179854
    20  C   -0.216560
    21  H    0.230147
    22  H    0.227562
    23  H    0.277907
    24  H    0.275614
    25  H    0.227207
    26  N    0.487993
    27  O   -0.459794
    28  O   -0.456009
 Sum of Mulliken charges =  -0.00000

 Dipole moment (field-independent basis, Debye):
    X=             -6.8867    Y=             -4.8453    Z=              0.6726  Tot=              8.4472
 Quadrupole moment (field-independent basis, Debye-Ang):
   XX=           -133.9984   YY=           -109.2502   ZZ=            -94.9311
   XY=             18.6712   XZ=              3.2447   YZ=              0.5124

 Normal termination of Gaussian 16 at Thu May  6 09:54:18 2021.
