 Gaussian 16, Revision A.03,
 Gaussian 16:  EM64L-G16RevA.03 25-Dec-2016

 -------------
 #p 6-31g* mp2
 -------------

 ------------------------------------------------------
 Input file generated by CHIRIPA (05-May-2021 14:57:22)
 ------------------------------------------------------
 Symbolic Z-matrix:
 Charge =  0 Multiplicity = 1

                         Standard orientation:
 ---------------------------------------------------------------------
 Center     Atomic      Atomic             Coordinates (Angstroms)
 Number     Number       Type             X           Y           Z
 ---------------------------------------------------------------------
      1          6           0        2.743609    2.252435    0.092378
      2          6           0        4.134739    2.389460    0.042365
      3          6           0        4.956024    1.262554   -0.058248
      4          6           0        4.349827    0.008177   -0.106766
      5          6           0        2.966933   -0.160975   -0.058987
      6          6           0        2.165165    0.979899    0.041632
      7          1           0        2.113196    3.133268    0.170539
      8          1           0        4.586729    3.376482    0.081586
      9          1           0        6.035747    1.339842   -0.098777
     10          1           0        2.545487   -1.158027   -0.100074
     11          1           0        1.085084    0.870465    0.080284
     12          7           0        5.208953   -1.192221   -0.213284
     13          8           0        4.650309   -2.286235   -0.254350
     14          8           0        6.424714   -1.016349   -0.253690
     15          6           0       -6.434674    0.742460   -0.624420
     16          6           0       -6.222571   -0.639911   -0.648563
     17          6           0       -4.992952   -1.176539   -0.255353
     18          6           0       -3.992988   -0.297713    0.158202
     19          6           0       -4.173717    1.084095    0.193315
     20          6           0       -5.411375    1.598543   -0.204299
     21          1           0       -7.392994    1.150710   -0.931586
     22          1           0       -7.015469   -1.307150   -0.974371
     23          1           0       -4.801752   -2.242738   -0.264286
     24          1           0       -3.364240    1.724000    0.522992
     25          1           0       -5.573268    2.672528   -0.184525
     26          7           0       -2.686991   -0.854076    0.576808
     27          8           0       -1.822128   -0.058527    0.937017
     28          8           0       -2.552942   -2.075167    0.536775
 ---------------------------------------------------------------------

 SCF Done:  E(RHF) =  -868.339688674     A.U. after   16 cycles
 E2 =    -0.2598329010D+01 EUMP2 =    -0.87093801768382D+03

 The electronic state is 1-A.
 Alpha  occ. eigenvalues --  -20.61660 -20.61592 -20.60020 -20.60002 -15.86659
 Alpha  occ. eigenvalues --  -15.85058 -11.31819 -11.30312 -11.28394 -11.28334
 Alpha  occ. eigenvalues --  -11.28056 -11.27342 -11.27304 -11.26912 -11.26743
 Alpha  occ. eigenvalues --  -11.26596 -11.25951 -11.25659  -1.60686  -1.59091
 Alpha  occ. eigenvalues --   -1.40247  -1.38647  -1.19969  -1.18463  -1.09399
 Alpha  occ. eigenvalues --   -1.07892  -1.05343  -1.03821  -0.96270  -0.94747
 Alpha  occ. eigenvalues --   -0.86750  -0.85233  -0.83112  -0.81559  -0.78186
 Alpha  occ. eigenvalues --   -0.76613  -0.72888  -0.71988  -0.71281  -0.71074
 Alpha  occ. eigenvalues --   -0.70412  -0.69599  -0.65627  -0.65342  -0.64107
 Alpha  occ. eigenvalues --   -0.63790  -0.62696  -0.61143  -0.55844  -0.54376
 Alpha  occ. eigenvalues --   -0.53680  -0.53432  -0.52197  -0.51882  -0.49655
 Alpha  occ. eigenvalues --   -0.49610  -0.48042  -0.48027  -0.45692  -0.44076
 Alpha  occ. eigenvalues --   -0.37932  -0.36936  -0.36475  -0.35423
 Alpha virt. eigenvalues --    0.04315   0.05875   0.10722   0.12218   0.15832
 Alpha virt. eigenvalues --    0.17397   0.20860   0.22413   0.26795   0.27593
 Alpha virt. eigenvalues --    0.28535   0.29155   0.30448   0.31698   0.32214

 Mulliken charges:
               1
     1  C   -0.172554
     2  C   -0.218653
     3  C   -0.173047
     4  C    0.158060
     5  C   -0.172972
     6  C   -0.225825
     7  H    0.221569
     8  H    0.219257
     9  H    0.272443
    10  H    0.280473
    11  H    0.243851
    12  N    0.487947
    13  O   -0.459628
    14  O   -0.463830
    15  C   -0.169949
    16  C   -0.218387
    17  C   -0.170114
    18  C    0.157986
    19  C   -0.170693
    20  C   -0.218286
    21  H    0.227716
    22  H    0.225882
    23  H    0.277524
    24  H    0.272148
    25  H    0.224302
    26  N    0.490872
    27  O   -0.471838
    28  O   -0.454254
 Sum of Mulliken charges =  -0.00000

 Dipole moment (field-independent basis, Debye):
    X=             -8.1788    Y=              6.0213    Z=             -1.1157  Tot=             10.2173
 Quadrupole moment (field-independent basis, Debye-Ang):
   XX=            -91.3861   YY=           -100.5251   ZZ=           -106.9729
   XY=             16.2138   XZ=              7.8712   YZ=              1.2632

 Normal termination of Gaussian 16 at Wed May  5 22:36:57 2021.
