 Gaussian 16, Revision A.03,
 Gaussian 16:  EM64L-G16RevA.03 25-Dec-2016

 -------------
 #p 6-31g* mp2
 -------------

 ------------------------------------------------------
 Input file generated by CHIRIPA (05-May-2021 14:57:27)
 ------------------------------------------------------
 Symbolic Z-matrix:
 Charge =  0 Multiplicity = 1

                         Standard orientation:
 ---------------------------------------------------------------------
 Center     Atomic      Atomic             Coordinates (Angstroms)
 Number     Number       Type             X           Y           Z
 ---------------------------------------------------------------------
      1          6           0        1.738425    0.470068   -0.003307
      2          6           0        2.161877   -0.753247    0.526515
      3          6           0        3.519320   -1.087251    0.544878
      4          6           0        4.430204   -0.170196    0.022775
      5          6           0        4.039462    1.056462   -0.511939
      6          6           0        2.676915    1.369433   -0.519932
      7          1           0        0.681949    0.721361   -0.013544
      8          1           0        1.435268   -1.453647    0.928416
      9          1           0        3.874630   -2.027382    0.949013
     10          1           0        4.787323    1.734194   -0.905385
     11          1           0        2.350938    2.320200   -0.932032
     12          7           0        5.869969   -0.512657    0.036726
     13          8           0        6.652584    0.312544   -0.429315
     14          8           0        6.188582   -1.599796    0.513438
     15          6           0       -2.196551    1.642033    0.191245
     16          6           0       -3.114222    1.539565    1.241913
     17          6           0       -4.223981    0.695954    1.135594
     18          6           0       -4.385914   -0.033994   -0.040944
     19          6           0       -3.489166    0.046511   -1.105207
     20          6           0       -2.386617    0.896493   -0.976901
     21          1           0       -1.337264    2.299845    0.282376
     22          1           0       -2.969152    2.117373    2.150284
     23          1           0       -4.949899    0.597580    1.933582
     24          1           0       -3.660516   -0.542000   -1.998353
     25          1           0       -1.675564    0.974075   -1.794477
     26          7           0       -5.556950   -0.930459   -0.165137
     27          8           0       -5.677040   -1.562971   -1.212107
     28          8           0       -6.332545   -0.983623    0.786841
 ---------------------------------------------------------------------

 SCF Done:  E(RHF) =  -868.336655966     A.U. after   16 cycles
 E2 =    -0.2600530569D+01 EUMP2 =    -0.87093718653515D+03

 The electronic state is 1-A.
 Alpha  occ. eigenvalues --  -20.61516 -20.61510 -20.61199 -20.61192 -15.86574
 Alpha  occ. eigenvalues --  -15.86255 -11.32160 -11.31741 -11.28736 -11.28701
 Alpha  occ. eigenvalues --  -11.28616 -11.28335 -11.28288 -11.28134 -11.27881
 Alpha  occ. eigenvalues --  -11.27795 -11.27440 -11.27341  -1.60586  -1.60271
 Alpha  occ. eigenvalues --   -1.40133  -1.39820  -1.20360  -1.19931  -1.09748
 Alpha  occ. eigenvalues --   -1.09322  -1.05773  -1.05347  -0.96542  -0.96129
 Alpha  occ. eigenvalues --   -0.87179  -0.86751  -0.83346  -0.82956  -0.78330
 Alpha  occ. eigenvalues --   -0.77968  -0.72790  -0.72471  -0.71912  -0.71672
 Alpha  occ. eigenvalues --   -0.71595  -0.70959  -0.66015  -0.65781  -0.65590
 Alpha  occ. eigenvalues --   -0.65356  -0.63094  -0.62685  -0.56477  -0.55829
 Alpha  occ. eigenvalues --   -0.54065  -0.53862  -0.53675  -0.53444  -0.49566
 Alpha  occ. eigenvalues --   -0.49529  -0.49241  -0.49218  -0.45488  -0.45198
 Alpha  occ. eigenvalues --   -0.38395  -0.37955  -0.37362  -0.36945
 Alpha virt. eigenvalues --    0.04134   0.04556   0.10148   0.10694   0.15457
 Alpha virt. eigenvalues --    0.16013   0.18822   0.21845   0.25527   0.26462
 Alpha virt. eigenvalues --    0.26965   0.29377   0.30062   0.30731   0.31912

 Mulliken charges:
               1
     1  C   -0.177631
     2  C   -0.220600
     3  C   -0.170044
     4  C    0.158981
     5  C   -0.169899
     6  C   -0.220611
     7  H    0.223720
     8  H    0.227191
     9  H    0.277867
    10  H    0.276900
    11  H    0.219499
    12  N    0.487889
    13  O   -0.459394
    14  O   -0.458508
    15  C   -0.177645
    16  C   -0.218458
    17  C   -0.170369
    18  C    0.159688
    19  C   -0.170234
    20  C   -0.221071
    21  H    0.221289
    22  H    0.227128
    23  H    0.279055
    24  H    0.279038
    25  H    0.223763
    26  N    0.487819
    27  O   -0.457806
    28  O   -0.457558
 Sum of Mulliken charges =  -0.00000

 Dipole moment (field-independent basis, Debye):
    X=             -1.1443    Y=              4.2136    Z=              0.4506  Tot=              4.3894
 Quadrupole moment (field-independent basis, Debye-Ang):
   XX=           -184.4813   YY=           -102.1225   ZZ=           -100.3583
   XY=             -7.3145   XZ=             -4.6060   YZ=             -0.8231

 Normal termination of Gaussian 16 at Fri May  7 05:07:00 2021.
