 Gaussian 16, Revision A.03,
 Gaussian 16:  EM64L-G16RevA.03 25-Dec-2016

 -------------
 #p 6-31g* mp2
 -------------

 ------------------------------------------------------
 Input file generated by CHIRIPA (05-May-2021 14:55:23)
 ------------------------------------------------------
 Symbolic Z-matrix:
 Charge =  0 Multiplicity = 1

                         Standard orientation:
 ---------------------------------------------------------------------
 Center     Atomic      Atomic             Coordinates (Angstroms)
 Number     Number       Type             X           Y           Z
 ---------------------------------------------------------------------
      1          6           0       -5.851709   -0.053960    0.303320
      2          6           0       -5.028954    1.069287    0.437149
      3          6           0       -3.647455    0.963780    0.250395
      4          6           0       -3.119952   -0.285968   -0.070794
      5          6           0       -3.913407   -1.423526   -0.211078
      6          6           0       -5.292297   -1.294594   -0.019796
      7          1           0       -6.923877    0.037099    0.450154
      8          1           0       -5.460640    2.034045    0.688017
      9          1           0       -2.987319    1.817089    0.347870
     10          1           0       -3.453986   -2.371920   -0.461877
     11          1           0       -5.928829   -2.168628   -0.124372
     12          7           0       -1.658802   -0.410063   -0.270899
     13          8           0       -1.218635   -1.522341   -0.553259
     14          8           0       -0.981387    0.607299   -0.141593
     15          6           0        3.738612    0.776234    0.323810
     16          6           0        3.397085    1.964576   -0.575738
     17          6           0        2.268590    2.828135   -0.011328
     18          1           0        2.839492    0.160878    0.464746
     19          1           0        4.022198    1.147682    1.318295
     20          1           0        3.115562    1.591070   -1.568641
     21          1           0        4.297171    2.577072   -0.714706
     22          1           0        2.543684    3.228434    0.969837
     23          1           0        1.355362    2.236831    0.111051
     24          1           0        2.040732    3.671826   -0.670209
     25          6           0        4.864951   -0.096515   -0.227005
     26          6           0        5.206478   -1.284857    0.672545
     27          6           0        6.334974   -2.148416    0.108134
     28          1           0        4.581366   -0.467963   -1.221489
     29          1           0        5.764072    0.518841   -0.367941
     30          1           0        4.306393   -1.897352    0.811512
     31          1           0        5.488001   -0.911351    1.665446
     32          1           0        7.248202   -1.557112   -0.014244
     33          1           0        6.059879   -2.548715   -0.873031
     34          1           0        6.562832   -2.992107    0.767016
 ---------------------------------------------------------------------

 SCF Done:  E(RHF) =  -669.536406202     A.U. after   15 cycles
 E2 =    -0.2090751555D+01 EUMP2 =    -0.67162715775711D+03

 The electronic state is 1-A.
 Alpha  occ. eigenvalues --  -20.61007 -20.61000 -15.86045 -11.31328 -11.27888
 Alpha  occ. eigenvalues --  -11.27882 -11.27621 -11.26889 -11.26879 -11.20680
 Alpha  occ. eigenvalues --  -11.20332 -11.20314 -11.20311 -11.20077 -11.19566
 Alpha  occ. eigenvalues --   -1.60068  -1.39625  -1.19494  -1.08905  -1.07287
 Alpha  occ. eigenvalues --   -1.04885  -1.02400  -0.95754  -0.94849  -0.86287
 Alpha  occ. eigenvalues --   -0.85871  -0.82589  -0.78494  -0.77643  -0.77081
 Alpha  occ. eigenvalues --   -0.72274  -0.71380  -0.70603  -0.65152  -0.64888
 Alpha  occ. eigenvalues --   -0.63904  -0.62232  -0.59779  -0.58256  -0.56465
 Alpha  occ. eigenvalues --   -0.55392  -0.54110  -0.53219  -0.52976  -0.51582
 Alpha  occ. eigenvalues --   -0.51276  -0.49087  -0.49020  -0.48699  -0.46798
 Alpha  occ. eigenvalues --   -0.45504  -0.45047  -0.44634  -0.44497  -0.42663
 Alpha  occ. eigenvalues --   -0.37472  -0.36485
 Alpha virt. eigenvalues --    0.04888   0.11171   0.16394   0.21290   0.24000
 Alpha virt. eigenvalues --    0.25453   0.27228   0.27741   0.28131   0.28675
 Alpha virt. eigenvalues --    0.29160   0.30858   0.32213   0.32643   0.32802

 Mulliken charges:
               1
     1  C   -0.170496
     2  C   -0.218571
     3  C   -0.170646
     4  C    0.157179
     5  C   -0.170377
     6  C   -0.218634
     7  H    0.226131
     8  H    0.224053
     9  H    0.276151
    10  H    0.275854
    11  H    0.223906
    12  N    0.495545
    13  O   -0.459349
    14  O   -0.467317
    15  C   -0.301304
    16  C   -0.296316
    17  C   -0.488034
    18  H    0.163370
    19  H    0.144270
    20  H    0.153126
    21  H    0.144841
    22  H    0.146940
    23  H    0.183853
    24  H    0.152231
    25  C   -0.297560
    26  C   -0.299613
    27  C   -0.475119
    28  H    0.150321
    29  H    0.145484
    30  H    0.155267
    31  H    0.149245
    32  H    0.152928
    33  H    0.155028
    34  H    0.157614
 Sum of Mulliken charges =  -0.00000

 Dipole moment (field-independent basis, Debye):
    X=             -5.5484    Y=              0.3104    Z=              0.6912  Tot=              5.5999
 Quadrupole moment (field-independent basis, Debye-Ang):
   XX=            -64.7337   YY=            -91.1444   ZZ=            -95.5237
   XY=              1.2579   XZ=             -1.3275   YZ=              0.9872

 Normal termination of Gaussian 16 at Thu May  6 15:55:59 2021.
