 Gaussian 16, Revision A.03,
 Gaussian 16:  EM64L-G16RevA.03 25-Dec-2016

 -------------
 #p 6-31g* mp2
 -------------

 ------------------------------------------------------
 Input file generated by CHIRIPA (05-May-2021 14:53:11)
 ------------------------------------------------------
 Symbolic Z-matrix:
 Charge =  0 Multiplicity = 1

                         Standard orientation:
 ---------------------------------------------------------------------
 Center     Atomic      Atomic             Coordinates (Angstroms)
 Number     Number       Type             X           Y           Z
 ---------------------------------------------------------------------
      1          6           0        3.839838   -0.269599   -0.646757
      2          6           0        5.024591   -0.680228    0.228303
      3          6           0        5.770301   -1.897426   -0.319546
      4          1           0        3.146342   -1.117065   -0.735131
      5          1           0        4.200337   -0.053533   -1.662016
      6          1           0        4.662163   -0.894119    1.241966
      7          1           0        5.715252    0.168376    0.314761
      8          1           0        6.159263   -1.691824   -1.322061
      9          1           0        5.100190   -2.760355   -0.389589
     10          1           0        6.613358   -2.173706    0.321379
     11          6           0        3.084336    0.945768   -0.112129
     12          6           0        1.899583    1.356397   -0.987189
     13          6           0        1.153873    2.573595   -0.439340
     14          1           0        2.723836    0.729701    0.903130
     15          1           0        3.777831    1.793234   -0.023754
     16          1           0        1.208922    0.507793   -1.073647
     17          1           0        2.262011    1.570288   -2.000851
     18          1           0        1.823983    3.436524   -0.369297
     19          1           0        0.764911    2.367992    0.563175
     20          1           0        0.310816    2.849875   -1.080265
     21          6           0       -1.094903    0.272090    2.163729
     22          6           0       -1.395991   -1.059659    1.859898
     23          6           0       -2.286544   -1.368492    0.827384
     24          6           0       -2.860390   -0.315968    0.115917
     25          6           0       -2.580523    1.020915    0.394682
     26          6           0       -1.687086    1.306303    1.431442
     27          1           0       -0.401980    0.502893    2.967460
     28          1           0       -0.937589   -1.864887    2.426926
     29          1           0       -2.537385   -2.390638    0.571037
     30          1           0       -3.053232    1.802057   -0.188226
     31          1           0       -1.455118    2.341484    1.665186
     32          7           0       -3.804706   -0.630506   -0.979407
     33          8           0       -4.296967    0.314962   -1.591294
     34          8           0       -4.034717   -1.816552   -1.205294
 ---------------------------------------------------------------------

 SCF Done:  E(RHF) =  -669.534564744     A.U. after   15 cycles
 E2 =    -0.2092833936D+01 EUMP2 =    -0.67162739868005D+03

 The electronic state is 1-A.
 Alpha  occ. eigenvalues --  -20.60809 -20.60804 -15.85862 -11.31254 -11.27796
 Alpha  occ. eigenvalues --  -11.27785 -11.27552 -11.26848 -11.26815 -11.21979
 Alpha  occ. eigenvalues --  -11.21959 -11.21832 -11.21731 -11.21541 -11.21382
 Alpha  occ. eigenvalues --   -1.59883  -1.39436  -1.19421  -1.08850  -1.08792
 Alpha  occ. eigenvalues --   -1.04829  -1.03911  -0.96385  -0.95645  -0.87418
 Alpha  occ. eigenvalues --   -0.86220  -0.82473  -0.79985  -0.78637  -0.77516
 Alpha  occ. eigenvalues --   -0.72080  -0.71206  -0.70524  -0.65477  -0.65073
 Alpha  occ. eigenvalues --   -0.64839  -0.62199  -0.61305  -0.59744  -0.57985
 Alpha  occ. eigenvalues --   -0.55759  -0.55312  -0.53214  -0.53016  -0.52961
 Alpha  occ. eigenvalues --   -0.52715  -0.50304  -0.48841  -0.48833  -0.48296
 Alpha  occ. eigenvalues --   -0.47009  -0.46180  -0.46104  -0.44836  -0.44181
 Alpha  occ. eigenvalues --   -0.37374  -0.36362
 Alpha virt. eigenvalues --    0.04987   0.11144   0.16447   0.20729   0.22599
 Alpha virt. eigenvalues --    0.24054   0.25996   0.26390   0.26896   0.28276
 Alpha virt. eigenvalues --    0.28512   0.30506   0.31171   0.31296   0.31754

 Mulliken charges:
               1
     1  C   -0.298728
     2  C   -0.299399
     3  C   -0.475835
     4  H    0.150168
     5  H    0.151751
     6  H    0.148976
     7  H    0.152528
     8  H    0.156730
     9  H    0.155243
    10  H    0.160620
    11  C   -0.297252
    12  C   -0.299857
    13  C   -0.475349
    14  H    0.143244
    15  H    0.150057
    16  H    0.155930
    17  H    0.154614
    18  H    0.154460
    19  H    0.147861
    20  H    0.160153
    21  C   -0.172423
    22  C   -0.218324
    23  C   -0.171721
    24  C    0.158583
    25  C   -0.172320
    26  C   -0.214002
    27  H    0.225789
    28  H    0.223605
    29  H    0.275684
    30  H    0.275829
    31  H    0.225669
    32  N    0.488039
    33  O   -0.460098
    34  O   -0.460222
 Sum of Mulliken charges =  -0.00000

 Dipole moment (field-independent basis, Debye):
    X=              3.3268    Y=              1.0786    Z=              3.7951  Tot=              5.1609
 Quadrupole moment (field-independent basis, Debye-Ang):
   XX=           -114.4374   YY=            -91.2128   ZZ=            -94.1579
   XY=             -4.1455   XZ=            -10.9607   YZ=             -2.6837

 Normal termination of Gaussian 16 at Wed May  5 23:19:11 2021.
