 Gaussian 16, Revision A.03,
 Gaussian 16:  EM64L-G16RevA.03 25-Dec-2016

 -------------
 #p 6-31g* mp2
 -------------

 ------------------------------------------------------
 Input file generated by CHIRIPA (05-May-2021 14:57:22)
 ------------------------------------------------------
 Symbolic Z-matrix:
 Charge =  0 Multiplicity = 1

                         Standard orientation:
 ---------------------------------------------------------------------
 Center     Atomic      Atomic             Coordinates (Angstroms)
 Number     Number       Type             X           Y           Z
 ---------------------------------------------------------------------
      1          6           0        2.141498    2.428606   -0.979953
      2          6           0        3.434970    2.188992   -0.504520
      3          6           0        3.830843    0.897693   -0.143442
      4          6           0        2.903444   -0.135228   -0.271095
      5          6           0        1.607601    0.071609   -0.741519
      6          6           0        1.233543    1.371014   -1.096729
      7          1           0        1.842447    3.434867   -1.258168
      8          1           0        4.142208    3.008410   -0.412785
      9          1           0        4.825920    0.684048    0.227498
     10          1           0        0.924794   -0.765483   -0.821948
     11          1           0        0.228356    1.554151   -1.465655
     12          7           0        3.310991   -1.506560    0.108056
     13          8           0        2.475207   -2.399464   -0.013707
     14          8           0        4.458492   -1.662540    0.519819
     15          6           0       -1.239036    0.482020    2.200840
     16          6           0       -1.033737   -0.668519    1.432313
     17          6           0       -1.912317   -0.995727    0.395212
     18          6           0       -2.990691   -0.146160    0.153064
     19          6           0       -3.222041    1.007167    0.901130
     20          6           0       -2.330610    1.314723    1.933267
     21          1           0       -0.551542    0.728570    3.004556
     22          1           0       -0.186855   -1.317050    1.637853
     23          1           0       -1.777032   -1.880244   -0.215316
     24          1           0       -4.075208    1.634237    0.672418
     25          1           0       -2.492528    2.208895    2.528484
     26          7           0       -3.927608   -0.482158   -0.942241
     27          8           0       -4.870097    0.282705   -1.135464
     28          8           0       -3.701732   -1.504015   -1.586778
 ---------------------------------------------------------------------

 SCF Done:  E(RHF) =  -868.338073456     A.U. after   16 cycles
 E2 =    -0.2602319926D+01 EUMP2 =    -0.87094039338215D+03

 The electronic state is 1-A.
 Alpha  occ. eigenvalues --  -20.61480 -20.61445 -20.61166 -20.61156 -15.86491
 Alpha  occ. eigenvalues --  -15.86216 -11.31673 -11.31643 -11.28222 -11.28192
 Alpha  occ. eigenvalues --  -11.28173 -11.28106 -11.27910 -11.27825 -11.27198
 Alpha  occ. eigenvalues --  -11.27196 -11.27128 -11.27051  -1.60530  -1.60244
 Alpha  occ. eigenvalues --   -1.40091  -1.39792  -1.19855  -1.19768  -1.09259
 Alpha  occ. eigenvalues --   -1.09150  -1.05285  -1.05087  -0.96124  -0.95982
 Alpha  occ. eigenvalues --   -0.86642  -0.86515  -0.82953  -0.82800  -0.78077
 Alpha  occ. eigenvalues --   -0.77817  -0.72706  -0.72420  -0.71854  -0.71582
 Alpha  occ. eigenvalues --   -0.70959  -0.70815  -0.65481  -0.65424  -0.65220
 Alpha  occ. eigenvalues --   -0.65057  -0.62699  -0.62333  -0.55719  -0.55603
 Alpha  occ. eigenvalues --   -0.53850  -0.53318  -0.53262  -0.53116  -0.49484
 Alpha  occ. eigenvalues --   -0.49442  -0.49185  -0.49181  -0.45522  -0.45184
 Alpha  occ. eigenvalues --   -0.37926  -0.37817  -0.37146  -0.36213
 Alpha virt. eigenvalues --    0.04415   0.04642   0.10349   0.11309   0.15955
 Alpha virt. eigenvalues --    0.16116   0.20570   0.21508   0.25894   0.27202
 Alpha virt. eigenvalues --    0.27711   0.28643   0.30535   0.31053   0.31913

 Mulliken charges:
               1
     1  C   -0.171831
     2  C   -0.219379
     3  C   -0.171660
     4  C    0.154686
     5  C   -0.169874
     6  C   -0.217889
     7  H    0.227250
     8  H    0.224413
     9  H    0.275870
    10  H    0.272911
    11  H    0.228349
    12  N    0.488099
    13  O   -0.466072
    14  O   -0.456708
    15  C   -0.169894
    16  C   -0.224664
    17  C   -0.184444
    18  C    0.157091
    19  C   -0.174325
    20  C   -0.219427
    21  H    0.228560
    22  H    0.239415
    23  H    0.280606
    24  H    0.275800
    25  H    0.224003
    26  N    0.487432
    27  O   -0.460107
    28  O   -0.458210
 Sum of Mulliken charges =  -0.00000

 Dipole moment (field-independent basis, Debye):
    X=              1.8945    Y=              6.0628    Z=              2.5876  Tot=              6.8587
 Quadrupole moment (field-independent basis, Debye-Ang):
   XX=           -127.9824   YY=           -103.1999   ZZ=           -103.5350
   XY=              9.7191   XZ=            -14.0512   YZ=             -0.1944

 Normal termination of Gaussian 16 at Thu May  6 22:39:56 2021.
