 Gaussian 16, Revision A.03,
 Gaussian 16:  EM64L-G16RevA.03 25-Dec-2016

 -------------
 #p 6-31g* mp2
 -------------

 ------------------------------------------------------
 Input file generated by CHIRIPA (05-May-2021 14:55:20)
 ------------------------------------------------------
 Symbolic Z-matrix:
 Charge =  0 Multiplicity = 1

                         Standard orientation:
 ---------------------------------------------------------------------
 Center     Atomic      Atomic             Coordinates (Angstroms)
 Number     Number       Type             X           Y           Z
 ---------------------------------------------------------------------
      1          6           0        5.132832   -1.442713    0.551290
      2          6           0        3.844777   -1.946058    0.761242
      3          6           0        2.721656   -1.194293    0.403476
      4          6           0        2.924191    0.062562   -0.164489
      5          6           0        4.194729    0.591532   -0.386334
      6          6           0        5.303396   -0.177755   -0.020819
      7          1           0        5.999686   -2.033508    0.832221
      8          1           0        3.709300   -2.928122    1.205360
      9          1           0        1.713207   -1.559723    0.554837
     10          1           0        4.298010    1.573869   -0.831043
     11          1           0        6.302534    0.215691   -0.185041
     12          7           0        1.742844    0.867697   -0.547341
     13          8           0        1.948099    1.972146   -1.046039
     14          8           0        0.634017    0.379067   -0.341474
     15          6           0       -3.949621   -0.615085   -0.161420
     16          6           0       -5.243258   -1.415040   -0.004700
     17          6           0       -5.142458   -2.823072   -0.592134
     18          1           0       -3.692152   -0.551574   -1.227545
     19          1           0       -3.128962   -1.159044    0.326455
     20          1           0       -6.061501   -0.869063   -0.491530
     21          1           0       -5.497778   -1.476491    1.061161
     22          1           0       -4.345314   -3.389640   -0.100031
     23          1           0       -4.912240   -2.778760   -1.661543
     24          1           0       -6.078189   -3.377291   -0.469222
     25          6           0       -4.034742    0.794628    0.420979
     26          6           0       -2.741105    1.594582    0.264258
     27          6           0       -2.841905    3.002614    0.851691
     28          1           0       -4.855400    1.338587   -0.066898
     29          1           0       -4.292210    0.731117    1.487103
     30          1           0       -2.486584    1.656034   -0.801602
     31          1           0       -1.922862    1.048606    0.751088
     32          1           0       -3.072123    2.958302    1.921101
     33          1           0       -3.639049    3.569182    0.359589
     34          1           0       -1.906173    3.556834    0.728779
 ---------------------------------------------------------------------

 SCF Done:  E(RHF) =  -669.535768058     A.U. after   15 cycles
 E2 =    -0.2091046720D+01 EUMP2 =    -0.67162681477716D+03

 The electronic state is 1-A.
 Alpha  occ. eigenvalues --  -20.60921 -20.60915 -15.85957 -11.31293 -11.27859
 Alpha  occ. eigenvalues --  -11.27854 -11.27596 -11.26868 -11.26858 -11.20882
 Alpha  occ. eigenvalues --  -11.20525 -11.20400 -11.20208 -11.19878 -11.19710
 Alpha  occ. eigenvalues --   -1.59985  -1.39541  -1.19463  -1.08864  -1.07347
 Alpha  occ. eigenvalues --   -1.04861  -1.02431  -0.95704  -0.94950  -0.86261
 Alpha  occ. eigenvalues --   -0.85978  -0.82540  -0.78520  -0.77594  -0.77050
 Alpha  occ. eigenvalues --   -0.72172  -0.71302  -0.70571  -0.65118  -0.64864
 Alpha  occ. eigenvalues --   -0.63996  -0.62209  -0.59841  -0.58338  -0.56502
 Alpha  occ. eigenvalues --   -0.55363  -0.54274  -0.53192  -0.52953  -0.51657
 Alpha  occ. eigenvalues --   -0.51362  -0.48991  -0.48937  -0.48912  -0.46797
 Alpha  occ. eigenvalues --   -0.45584  -0.44997  -0.44592  -0.44421  -0.42693
 Alpha  occ. eigenvalues --   -0.37442  -0.36463
 Alpha virt. eigenvalues --    0.04928   0.11192   0.16413   0.21316   0.23826
 Alpha virt. eigenvalues --    0.25369   0.27227   0.27640   0.28111   0.28715
 Alpha virt. eigenvalues --    0.29005   0.30906   0.32325   0.32468   0.32814

 Mulliken charges:
               1
     1  C   -0.170645
     2  C   -0.218506
     3  C   -0.170815
     4  C    0.157798
     5  C   -0.170659
     6  C   -0.218556
     7  H    0.225983
     8  H    0.223794
     9  H    0.275413
    10  H    0.275848
    11  H    0.223807
    12  N    0.490683
    13  O   -0.459559
    14  O   -0.461416
    15  C   -0.295980
    16  C   -0.298798
    17  C   -0.474613
    18  H    0.151114
    19  H    0.148982
    20  H    0.150575
    21  H    0.149401
    22  H    0.152585
    23  H    0.154906
    24  H    0.157429
    25  C   -0.298997
    26  C   -0.298783
    27  C   -0.477026
    28  H    0.144927
    29  H    0.143955
    30  H    0.158102
    31  H    0.166763
    32  H    0.147851
    33  H    0.149291
    34  H    0.165149
 Sum of Mulliken charges =  -0.00000

 Dipole moment (field-independent basis, Debye):
    X=              4.5231    Y=             -2.8196    Z=              1.2696  Tot=              5.4791
 Quadrupole moment (field-independent basis, Debye-Ang):
   XX=            -70.3453   YY=            -94.2214   ZZ=            -94.9424
   XY=             -5.8599   XZ=              2.8014   YZ=             -1.8294

 Normal termination of Gaussian 16 at Wed May  5 17:23:53 2021.
