 Gaussian 16, Revision A.03,
 Gaussian 16:  EM64L-G16RevA.03 25-Dec-2016

 -------------
 #p 6-31g* mp2
 -------------

 ------------------------------------------------------
 Input file generated by CHIRIPA (05-May-2021 14:57:21)
 ------------------------------------------------------
 Symbolic Z-matrix:
 Charge =  0 Multiplicity = 1

                         Standard orientation:
 ---------------------------------------------------------------------
 Center     Atomic      Atomic             Coordinates (Angstroms)
 Number     Number       Type             X           Y           Z
 ---------------------------------------------------------------------
      1          6           0       -2.974517    2.207456    0.537161
      2          6           0       -2.402376    1.035077    1.041840
      3          6           0       -2.980797   -0.209340    0.774625
      4          6           0       -4.136346   -0.244736   -0.004311
      5          6           0       -4.730086    0.905640   -0.521416
      6          6           0       -4.134501    2.139117   -0.241484
      7          1           0       -2.518519    3.169900    0.749679
      8          1           0       -1.501533    1.085127    1.646838
      9          1           0       -2.558778   -1.132570    1.152731
     10          1           0       -5.628258    0.823888   -1.121434
     11          1           0       -4.581026    3.047966   -0.634745
     12          7           0       -4.757780   -1.556354   -0.293932
     13          8           0       -5.775680   -1.560639   -0.982770
     14          8           0       -4.215194   -2.555278    0.173387
     15          6           0        1.695326    0.943398    0.201437
     16          6           0        2.278704    0.223637    1.249356
     17          6           0        3.573838   -0.287876    1.124742
     18          6           0        4.260014   -0.059877   -0.067093
     19          6           0        3.706019    0.653262   -1.129079
     20          6           0        2.409587    1.155540   -0.982350
     21          1           0        0.688731    1.337167    0.306830
     22          1           0        1.726354    0.057345    2.169846
     23          1           0        4.049502   -0.848601    1.920196
     24          1           0        4.281441    0.802816   -2.034585
     25          1           0        1.959048    1.714149   -1.797834
     26          7           0        5.631802   -0.596503   -0.210723
     27          8           0        6.215375   -0.381947   -1.270933
     28          8           0        6.097460   -1.221507    0.739628
 ---------------------------------------------------------------------

 SCF Done:  E(RHF) =  -868.336569457     A.U. after   16 cycles
 E2 =    -0.2599971923D+01 EUMP2 =    -0.87093654138022D+03

 The electronic state is 1-A.
 Alpha  occ. eigenvalues --  -20.61425 -20.61419 -20.61076 -20.61071 -15.86488
 Alpha  occ. eigenvalues --  -15.86134 -11.32044 -11.31613 -11.28707 -11.28625
 Alpha  occ. eigenvalues --  -11.28489 -11.28212 -11.28182 -11.28035 -11.27835
 Alpha  occ. eigenvalues --  -11.27648 -11.27317 -11.27241  -1.60497  -1.60149
 Alpha  occ. eigenvalues --   -1.40045  -1.39699  -1.20263  -1.19810  -1.09628
 Alpha  occ. eigenvalues --   -1.09204  -1.05703  -1.05231  -0.96418  -0.96015
 Alpha  occ. eigenvalues --   -0.87100  -0.86638  -0.83255  -0.82839  -0.78262
 Alpha  occ. eigenvalues --   -0.77851  -0.72702  -0.72352  -0.71824  -0.71472
 Alpha  occ. eigenvalues --   -0.71368  -0.70987  -0.65919  -0.65754  -0.65470
 Alpha  occ. eigenvalues --   -0.65244  -0.63044  -0.62574  -0.56223  -0.55812
 Alpha  occ. eigenvalues --   -0.53991  -0.53781  -0.53550  -0.53338  -0.49477
 Alpha  occ. eigenvalues --   -0.49443  -0.49121  -0.49097  -0.45407  -0.45079
 Alpha  occ. eigenvalues --   -0.38264  -0.37828  -0.37294  -0.36825
 Alpha virt. eigenvalues --    0.04295   0.04692   0.10159   0.10815   0.15675
 Alpha virt. eigenvalues --    0.16159   0.18424   0.21872   0.24964   0.26675
 Alpha virt. eigenvalues --    0.27522   0.28795   0.30376   0.30575   0.31761

 Mulliken charges:
               1
     1  C   -0.172766
     2  C   -0.222925
     3  C   -0.169170
     4  C    0.158815
     5  C   -0.168836
     6  C   -0.218401
     7  H    0.226153
     8  H    0.215717
     9  H    0.277553
    10  H    0.278845
    11  H    0.226505
    12  N    0.488050
    13  O   -0.457852
    14  O   -0.458373
    15  C   -0.172734
    16  C   -0.219466
    17  C   -0.169579
    18  C    0.158988
    19  C   -0.169810
    20  C   -0.218749
    21  H    0.220545
    22  H    0.218582
    23  H    0.277246
    24  H    0.277289
    25  H    0.224553
    26  N    0.488002
    27  O   -0.459022
    28  O   -0.459162
 Sum of Mulliken charges =  -0.00000

 Dipole moment (field-independent basis, Debye):
    X=             -2.7866    Y=              6.4295    Z=              1.3892  Tot=              7.1437
 Quadrupole moment (field-independent basis, Debye-Ang):
   XX=           -160.6432   YY=           -106.6210   ZZ=            -99.9708
   XY=            -13.2503   XZ=              0.2370   YZ=             -4.0745

 Normal termination of Gaussian 16 at Thu May  6 12:46:14 2021.
