 Gaussian 16, Revision A.03,
 Gaussian 16:  EM64L-G16RevA.03 25-Dec-2016

 -------------
 #p 6-31g* mp2
 -------------

 ------------------------------------------------------
 Input file generated by CHIRIPA (05-May-2021 14:53:12)
 ------------------------------------------------------
 Symbolic Z-matrix:
 Charge =  0 Multiplicity = 1

                         Standard orientation:
 ---------------------------------------------------------------------
 Center     Atomic      Atomic             Coordinates (Angstroms)
 Number     Number       Type             X           Y           Z
 ---------------------------------------------------------------------
      1          6           0       -3.873030    0.768553   -0.202903
      2          6           0       -2.744946    1.773364    0.033242
      3          6           0       -3.238745    3.220089    0.063991
      4          1           0       -4.374885    1.006424   -1.150797
      5          1           0       -4.627714    0.882654    0.587559
      6          1           0       -1.991939    1.656459   -0.756650
      7          1           0       -2.245595    1.532957    0.980591
      8          1           0       -3.974008    3.359283    0.863124
      9          1           0       -3.718911    3.483486   -0.883988
     10          1           0       -2.416024    3.921581    0.233986
     11          6           0       -3.395116   -0.682038   -0.236245
     12          6           0       -4.523201   -1.686849   -0.472390
     13          6           0       -4.029402   -3.133574   -0.503138
     14          1           0       -2.640433   -0.796139   -1.026706
     15          1           0       -2.893261   -0.919909    0.711649
     16          1           0       -5.022551   -1.446442   -1.419739
     17          1           0       -5.276207   -1.569944    0.317502
     18          1           0       -3.549235   -3.396971    0.444840
     19          1           0       -3.294138   -3.272768   -1.302271
     20          1           0       -4.852123   -3.835066   -0.673134
     21          6           0        4.942791   -0.214613   -1.209688
     22          6           0        3.894018    0.606944   -1.635881
     23          6           0        2.723796    0.714777   -0.878582
     24          6           0        2.635744   -0.016314    0.305074
     25          6           0        3.663280   -0.843294    0.756259
     26          6           0        4.824283   -0.935838   -0.017082
     27          1           0        5.848267   -0.292442   -1.804206
     28          1           0        3.983276    1.168215   -2.561652
     29          1           0        1.896533    1.343350   -1.185093
     30          1           0        3.545046   -1.390599    1.683564
     31          1           0        5.637166   -1.574651    0.316362
     32          7           0        1.401762    0.089751    1.115283
     33          8           0        1.348890   -0.564640    2.154328
     34          8           0        0.510806    0.825267    0.695939
 ---------------------------------------------------------------------

 SCF Done:  E(RHF) =  -669.535627766     A.U. after   15 cycles
 E2 =    -0.2091455364D+01 EUMP2 =    -0.67162708313066D+03

 The electronic state is 1-A.
 Alpha  occ. eigenvalues --  -20.60922 -20.60909 -15.85948 -11.31286 -11.27853
 Alpha  occ. eigenvalues --  -11.27848 -11.27590 -11.26862 -11.26852 -11.20759
 Alpha  occ. eigenvalues --  -11.20373 -11.20269 -11.20198 -11.19987 -11.19920
 Alpha  occ. eigenvalues --   -1.59984  -1.39540  -1.19456  -1.08859  -1.07296
 Alpha  occ. eigenvalues --   -1.04855  -1.02440  -0.95700  -0.94954  -0.86255
 Alpha  occ. eigenvalues --   -0.85976  -0.82539  -0.78499  -0.77596  -0.77021
 Alpha  occ. eigenvalues --   -0.72160  -0.71296  -0.70565  -0.65111  -0.64859
 Alpha  occ. eigenvalues --   -0.63941  -0.62203  -0.59849  -0.58317  -0.56526
 Alpha  occ. eigenvalues --   -0.55359  -0.54268  -0.53186  -0.52947  -0.51676
 Alpha  occ. eigenvalues --   -0.51365  -0.49032  -0.48943  -0.48861  -0.46780
 Alpha  occ. eigenvalues --   -0.45515  -0.45015  -0.44517  -0.44442  -0.42694
 Alpha  occ. eigenvalues --   -0.37436  -0.36457
 Alpha virt. eigenvalues --    0.04942   0.11198   0.16434   0.21281   0.23892
 Alpha virt. eigenvalues --    0.25245   0.27074   0.27640   0.28082   0.28845
 Alpha virt. eigenvalues --    0.29045   0.30841   0.31996   0.32552   0.32898

 Mulliken charges:
               1
     1  C   -0.298935
     2  C   -0.298407
     3  C   -0.475979
     4  H    0.142656
     5  H    0.145927
     6  H    0.150321
     7  H    0.173785
     8  H    0.151646
     9  H    0.147976
    10  H    0.158410
    11  C   -0.296971
    12  C   -0.298829
    13  C   -0.474958
    14  H    0.146219
    15  H    0.158640
    16  H    0.148288
    17  H    0.150532
    18  H    0.156821
    19  H    0.152392
    20  H    0.156832
    21  C   -0.170636
    22  C   -0.218533
    23  C   -0.170906
    24  C    0.157715
    25  C   -0.170557
    26  C   -0.218568
    27  H    0.225961
    28  H    0.223781
    29  H    0.275555
    30  H    0.275822
    31  H    0.223787
    32  N    0.492568
    33  O   -0.460132
    34  O   -0.462221
 Sum of Mulliken charges =  -0.00000

 Dipole moment (field-independent basis, Debye):
    X=              4.6790    Y=             -0.3989    Z=             -2.6941  Tot=              5.4139
 Quadrupole moment (field-independent basis, Debye-Ang):
   XX=            -73.0067   YY=            -95.1979   ZZ=            -93.7001
   XY=             -2.1458   XZ=             -5.6066   YZ=             -2.6836

 Normal termination of Gaussian 16 at Thu May  6 11:59:51 2021.
