 Gaussian 16, Revision A.03,
 Gaussian 16:  EM64L-G16RevA.03 25-Dec-2016

 -------------
 #p 6-31g* mp2
 -------------

 ------------------------------------------------------
 Input file generated by CHIRIPA (05-May-2021 14:51:14)
 ------------------------------------------------------
 Symbolic Z-matrix:
 Charge =  0 Multiplicity = 1

                         Standard orientation:
 ---------------------------------------------------------------------
 Center     Atomic      Atomic             Coordinates (Angstroms)
 Number     Number       Type             X           Y           Z
 ---------------------------------------------------------------------
      1          6           0        1.887401   -0.849582    0.659943
      2          6           0        1.244330   -2.236806    0.652509
      3          6           0        0.111650   -2.368779    1.671043
      4          1           0        2.271087   -0.635675    1.666906
      5          1           0        1.116502   -0.094607    0.452286
      6          1           0        2.016474   -2.989052    0.858750
      7          1           0        0.862301   -2.447514   -0.354602
      8          1           0       -0.678940   -1.640126    1.464567
      9          1           0        0.481790   -2.184742    2.684812
     10          1           0       -0.333866   -3.368219    1.648764
     11          6           0        3.021429   -0.702104   -0.352953
     12          6           0        3.664500    0.685120   -0.345519
     13          6           0        4.797181    0.817093   -1.364054
     14          1           0        3.792329   -1.457079   -0.145296
     15          1           0        2.637744   -0.916011   -1.359916
     16          1           0        4.046530    0.895828    0.661591
     17          1           0        2.892357    1.437366   -0.551760
     18          1           0        4.427041    0.633056   -2.377823
     19          1           0        5.587771    0.088440   -1.157577
     20          1           0        5.242696    1.816533   -1.341774
     21          6           0       -1.854404    1.106109    0.184650
     22          6           0       -1.989664    2.623827    0.312010
     23          6           0       -0.781473    3.270130    0.990508
     24          1           0       -1.717412    0.671417    1.184261
     25          1           0       -0.944332    0.872621   -0.385131
     26          1           0       -2.899946    2.854415    0.880193
     27          1           0       -2.126541    3.054938   -0.688003
     28          1           0        0.132563    3.069255    0.422364
     29          1           0       -0.645235    2.867594    1.999470
     30          1           0       -0.899199    4.355253    1.071201
     31          6           0       -3.054427    0.445578   -0.491640
     32          6           0       -2.919166   -1.072141   -0.618999
     33          6           0       -4.127357   -1.718444   -1.297498
     34          1           0       -3.964498    0.679065    0.078140
     35          1           0       -3.191419    0.880270   -1.491250
     36          1           0       -2.782289   -1.503252    0.381012
     37          1           0       -2.008885   -1.302729   -1.187183
     38          1           0       -4.263595   -1.315908   -2.306460
     39          1           0       -5.041394   -1.517569   -0.729354
     40          1           0       -4.009632   -2.803567   -1.378191
 ---------------------------------------------------------------------

 SCF Done:  E(RHF) =  -470.732080319     A.U. after   11 cycles
 E2 =    -0.1585251855D+01 EUMP2 =    -0.47231733217367D+03

 The electronic state is 1-A.
 Alpha  occ. eigenvalues --  -11.21673 -11.21637 -11.21590 -11.21515 -11.21491
 Alpha  occ. eigenvalues --  -11.21427 -11.21343 -11.21237 -11.21121 -11.21104
 Alpha  occ. eigenvalues --  -11.21062 -11.20904  -1.08535  -1.08353  -1.03595
 Alpha  occ. eigenvalues --   -1.03465  -0.96042  -0.95917  -0.87070  -0.86927
 Alpha  occ. eigenvalues --   -0.79671  -0.79555  -0.78485  -0.78044  -0.65186
 Alpha  occ. eigenvalues --   -0.64983  -0.61001  -0.60876  -0.59423  -0.59283
 Alpha  occ. eigenvalues --   -0.57665  -0.57517  -0.55373  -0.55188  -0.52736
 Alpha  occ. eigenvalues --   -0.52616  -0.52491  -0.52324  -0.49992  -0.49919
 Alpha  occ. eigenvalues --   -0.47969  -0.47893  -0.46909  -0.46592  -0.46254
 Alpha  occ. eigenvalues --   -0.45698  -0.45640  -0.44975  -0.43845  -0.43718
 Alpha virt. eigenvalues --    0.20444   0.22437   0.23511   0.24143   0.25211
 Alpha virt. eigenvalues --    0.25888   0.26921   0.27775   0.28837   0.29735
 Alpha virt. eigenvalues --    0.31022   0.31262   0.31423   0.31726   0.32133

 Mulliken charges:
               1
     1  C   -0.306775
     2  C   -0.298947
     3  C   -0.484088
     4  H    0.149171
     5  H    0.158440
     6  H    0.151414
     7  H    0.151280
     8  H    0.166089
     9  H    0.153634
    10  H    0.158848
    11  C   -0.297932
    12  C   -0.300003
    13  C   -0.475652
    14  H    0.149496
    15  H    0.148621
    16  H    0.152383
    17  H    0.151212
    18  H    0.154905
    19  H    0.155336
    20  H    0.160226
    21  C   -0.306054
    22  C   -0.299205
    23  C   -0.477089
    24  H    0.152674
    25  H    0.153208
    26  H    0.152338
    27  H    0.152003
    28  H    0.155736
    29  H    0.156072
    30  H    0.160699
    31  C   -0.297613
    32  C   -0.304523
    33  C   -0.475264
    34  H    0.149805
    35  H    0.149646
    36  H    0.156684
    37  H    0.152271
    38  H    0.155035
    39  H    0.155309
    40  H    0.160612
 Sum of Mulliken charges =  -0.00000

 Dipole moment (field-independent basis, Debye):
    X=             -0.0715    Y=              0.0410    Z=              0.0075  Tot=              0.0828
 Quadrupole moment (field-independent basis, Debye-Ang):
   XX=            -85.4566   YY=            -85.1918   ZZ=            -84.1896
   XY=             -0.8100   XZ=              0.2224   YZ=             -0.3635

 Normal termination of Gaussian 16 at Wed May  5 16:54:50 2021.
