 Gaussian 16, Revision A.03,
 Gaussian 16:  EM64L-G16RevA.03 25-Dec-2016

 -------------
 #p 6-31g* mp2
 -------------

 ------------------------------------------------------
 Input file generated by CHIRIPA (05-May-2021 14:53:16)
 ------------------------------------------------------
 Symbolic Z-matrix:
 Charge =  0 Multiplicity = 1

                         Standard orientation:
 ---------------------------------------------------------------------
 Center     Atomic      Atomic             Coordinates (Angstroms)
 Number     Number       Type             X           Y           Z
 ---------------------------------------------------------------------
      1          6           0       -4.077622    0.948907   -0.519098
      2          6           0       -2.644173    1.333827   -0.151612
      3          6           0       -2.177020    2.610495   -0.851384
      4          1           0       -4.147962    0.818791   -1.607706
      5          1           0       -4.750531    1.777803   -0.259251
      6          1           0       -1.974348    0.503905   -0.410801
      7          1           0       -2.577193    1.462854    0.936267
      8          1           0       -2.821502    3.454187   -0.584122
      9          1           0       -2.215233    2.489788   -1.938845
     10          1           0       -1.149770    2.867225   -0.574426
     11          6           0       -4.558994   -0.325305    0.172562
     12          6           0       -5.992443   -0.710225   -0.194923
     13          6           0       -6.459595   -1.986893    0.504848
     14          1           0       -3.886084   -1.154200   -0.087284
     15          1           0       -4.488654   -0.195189    1.261170
     16          1           0       -6.059423   -0.839252   -1.282803
     17          1           0       -6.662268    0.119698    0.064266
     18          1           0       -6.421383   -1.866186    1.592309
     19          1           0       -5.815113   -2.830584    0.237587
     20          1           0       -7.486846   -2.243623    0.227890
     21          6           0        0.930007   -0.106364    0.748197
     22          6           0        1.362643   -1.039612   -0.199641
     23          6           0        2.714213   -1.124520   -0.546909
     24          6           0        3.609924   -0.256862    0.076119
     25          6           0        3.209742    0.683570    1.024134
     26          6           0        1.853309    0.750737    1.355988
     27          1           0       -0.121815   -0.047297    1.011976
     28          1           0        0.647832   -1.706516   -0.673275
     29          1           0        3.076381   -1.837643   -1.277462
     30          1           0        3.945886    1.335016    1.479250
     31          1           0        1.520173    1.476491    2.092430
     32          7           0        5.043345   -0.337359   -0.283358
     33          8           0        5.812553    0.438326    0.279905
     34          8           0        5.370508   -1.174613   -1.121574
 ---------------------------------------------------------------------

 SCF Done:  E(RHF) =  -669.535473241     A.U. after   15 cycles
 E2 =    -0.2091478623D+01 EUMP2 =    -0.67162695186426D+03

 The electronic state is 1-A.
 Alpha  occ. eigenvalues --  -20.60732 -20.60727 -15.85787 -11.31144 -11.27722
 Alpha  occ. eigenvalues --  -11.27717 -11.27387 -11.26724 -11.26711 -11.22773
 Alpha  occ. eigenvalues --  -11.22307 -11.22279 -11.22216 -11.21949 -11.21668
 Alpha  occ. eigenvalues --   -1.59808  -1.39362  -1.19316  -1.09322  -1.08704
 Alpha  occ. eigenvalues --   -1.04722  -1.04382  -0.96786  -0.95542  -0.87802
 Alpha  occ. eigenvalues --   -0.86116  -0.82386  -0.80492  -0.79145  -0.77432
 Alpha  occ. eigenvalues --   -0.72004  -0.71132  -0.70416  -0.65948  -0.64965
 Alpha  occ. eigenvalues --   -0.64729  -0.62074  -0.61771  -0.60187  -0.58427
 Alpha  occ. eigenvalues --   -0.56058  -0.55196  -0.53481  -0.53209  -0.53033
 Alpha  occ. eigenvalues --   -0.52811  -0.50724  -0.48807  -0.48760  -0.48714
 Alpha  occ. eigenvalues --   -0.47520  -0.46656  -0.46585  -0.44769  -0.44628
 Alpha  occ. eigenvalues --   -0.37271  -0.36332
 Alpha virt. eigenvalues --    0.05087   0.11284   0.16520   0.20280   0.22362
 Alpha virt. eigenvalues --    0.23792   0.25306   0.25824   0.26883   0.27623
 Alpha virt. eigenvalues --    0.29145   0.30256   0.30802   0.31065   0.32104

 Mulliken charges:
               1
     1  C   -0.297780
     2  C   -0.304773
     3  C   -0.475870
     4  H    0.152690
     5  H    0.153076
     6  H    0.145550
     7  H    0.148191
     8  H    0.158490
     9  H    0.159253
    10  H    0.160981
    11  C   -0.298665
    12  C   -0.300206
    13  C   -0.476154
    14  H    0.145715
    15  H    0.149310
    16  H    0.153485
    17  H    0.153858
    18  H    0.155665
    19  H    0.154956
    20  H    0.162755
    21  C   -0.173254
    22  C   -0.220775
    23  C   -0.170683
    24  C    0.158216
    25  C   -0.170715
    26  C   -0.221046
    27  H    0.234103
    28  H    0.222665
    29  H    0.275365
    30  H    0.275405
    31  H    0.223271
    32  N    0.488108
    33  O   -0.460569
    34  O   -0.460619
 Sum of Mulliken charges =  -0.00000

 Dipole moment (field-independent basis, Debye):
    X=             -5.2720    Y=              0.3527    Z=              1.2125  Tot=              5.4211
 Quadrupole moment (field-independent basis, Debye-Ang):
   XX=           -130.9461   YY=            -92.8360   ZZ=            -92.5115
   XY=              2.4329   XZ=              5.0732   YZ=              3.2063

 Normal termination of Gaussian 16 at Thu May  6 15:33:47 2021.
