 Gaussian 16, Revision A.03,
 Gaussian 16:  EM64L-G16RevA.03 25-Dec-2016

 -------------
 #p 6-31g* mp2
 -------------

 ------------------------------------------------------
 Input file generated by CHIRIPA (05-May-2021 14:53:14)
 ------------------------------------------------------
 Symbolic Z-matrix:
 Charge =  0 Multiplicity = 1

                         Standard orientation:
 ---------------------------------------------------------------------
 Center     Atomic      Atomic             Coordinates (Angstroms)
 Number     Number       Type             X           Y           Z
 ---------------------------------------------------------------------
      1          6           0       -5.116739   -0.502803   -0.183261
      2          6           0       -6.404298    0.321108   -0.219989
      3          6           0       -7.515725   -0.354510   -1.023769
      4          1           0       -4.772329   -0.679127   -1.211481
      5          1           0       -5.333653   -1.490174    0.247367
      6          1           0       -6.184737    1.307128   -0.649144
      7          1           0       -6.745579    0.495654    0.808445
      8          1           0       -7.763452   -1.330384   -0.593765
      9          1           0       -7.199424   -0.514299   -2.059636
     10          1           0       -8.426939    0.251605   -1.036941
     11          6           0       -3.996311    0.159498    0.616567
     12          6           0       -2.708752   -0.664414    0.653295
     13          6           0       -1.597325    0.011205    1.457075
     14          1           0       -3.779397    1.146869    0.185939
     15          1           0       -4.340721    0.335822    1.644787
     16          1           0       -2.367471   -0.838960   -0.375140
     17          1           0       -2.928312   -1.650433    1.082450
     18          1           0       -1.913626    0.170994    2.492942
     19          1           0       -1.349598    0.987079    1.027071
     20          1           0       -0.686110   -0.594910    1.470247
     21          6           0        5.256717   -1.732761   -0.135206
     22          6           0        5.681123   -0.400340   -0.102733
     23          6           0        4.749750    0.642133   -0.121187
     24          6           0        3.395732    0.314585   -0.172552
     25          6           0        2.941606   -1.002969   -0.205859
     26          6           0        3.890721   -2.029300   -0.186574
     27          1           0        5.987123   -2.536309   -0.120547
     28          1           0        6.741331   -0.167075   -0.062823
     29          1           0        5.050711    1.682445   -0.096889
     30          1           0        1.877957   -1.204218   -0.245462
     31          1           0        3.558227   -3.063154   -0.211880
     32          7           0        2.400337    1.409660   -0.192529
     33          8           0        1.213171    1.094681   -0.237933
     34          8           0        2.826159    2.562224   -0.162401
 ---------------------------------------------------------------------

 SCF Done:  E(RHF) =  -669.535609804     A.U. after   15 cycles
 E2 =    -0.2091220502D+01 EUMP2 =    -0.67162683030566D+03

 The electronic state is 1-A.
 Alpha  occ. eigenvalues --  -20.60870 -20.60854 -15.85898 -11.31250 -11.27816
 Alpha  occ. eigenvalues --  -11.27812 -11.27557 -11.26830 -11.26820 -11.21142
 Alpha  occ. eigenvalues --  -11.20850 -11.20801 -11.20703 -11.20668 -11.19867
 Alpha  occ. eigenvalues --   -1.59932  -1.39487  -1.19420  -1.08820  -1.07796
 Alpha  occ. eigenvalues --   -1.04821  -1.02844  -0.95669  -0.95262  -0.86286
 Alpha  occ. eigenvalues --   -0.86219  -0.82492  -0.78931  -0.77619  -0.77523
 Alpha  occ. eigenvalues --   -0.72135  -0.71247  -0.70530  -0.65079  -0.64825
 Alpha  occ. eigenvalues --   -0.64421  -0.62171  -0.60222  -0.58686  -0.56902
 Alpha  occ. eigenvalues --   -0.55324  -0.54528  -0.53151  -0.52916  -0.51970
 Alpha  occ. eigenvalues --   -0.51702  -0.49239  -0.48883  -0.48825  -0.47231
 Alpha  occ. eigenvalues --   -0.45968  -0.45147  -0.45091  -0.44822  -0.43098
 Alpha  occ. eigenvalues --   -0.37400  -0.36423
 Alpha virt. eigenvalues --    0.04978   0.11219   0.16468   0.21052   0.23423
 Alpha virt. eigenvalues --    0.24444   0.26792   0.27278   0.27713   0.28169
 Alpha virt. eigenvalues --    0.29217   0.30581   0.31580   0.32151   0.32408

 Mulliken charges:
               1
     1  C   -0.297712
     2  C   -0.299366
     3  C   -0.475350
     4  H    0.148981
     5  H    0.146990
     6  H    0.152868
     7  H    0.151173
     8  H    0.153851
     9  H    0.154645
    10  H    0.159214
    11  C   -0.298389
    12  C   -0.300392
    13  C   -0.473426
    14  H    0.153347
    15  H    0.147849
    16  H    0.151292
    17  H    0.144750
    18  H    0.146963
    19  H    0.177739
    20  H    0.152045
    21  C   -0.170607
    22  C   -0.218595
    23  C   -0.170617
    24  C    0.157863
    25  C   -0.172130
    26  C   -0.218800
    27  H    0.225831
    28  H    0.223656
    29  H    0.275750
    30  H    0.277439
    31  H    0.223839
    32  N    0.491366
    33  O   -0.462062
    34  O   -0.460005
 Sum of Mulliken charges =  -0.00000

 Dipole moment (field-independent basis, Debye):
    X=              3.7225    Y=             -3.7086    Z=              0.0115  Tot=              5.2546
 Quadrupole moment (field-independent basis, Debye-Ang):
   XX=            -69.9121   YY=            -95.1991   ZZ=            -95.5416
   XY=             -9.9112   XZ=             -0.8564   YZ=              0.3551

 Normal termination of Gaussian 16 at Thu May  6 20:22:22 2021.
