 Gaussian 16, Revision A.03,
 Gaussian 16:  EM64L-G16RevA.03 25-Dec-2016

 -------------
 #p 6-31g* mp2
 -------------

 ------------------------------------------------------
 Input file generated by CHIRIPA (05-May-2021 14:57:23)
 ------------------------------------------------------
 Symbolic Z-matrix:
 Charge =  0 Multiplicity = 1

                         Standard orientation:
 ---------------------------------------------------------------------
 Center     Atomic      Atomic             Coordinates (Angstroms)
 Number     Number       Type             X           Y           Z
 ---------------------------------------------------------------------
      1          6           0       -1.693448    1.400752   -0.497792
      2          6           0       -1.509639    0.066874   -0.118974
      3          6           0       -2.610174   -0.759160    0.128088
      4          6           0       -3.886173   -0.216040   -0.013821
      5          6           0       -4.101866    1.108890   -0.389758
      6          6           0       -2.986695    1.916594   -0.631739
      7          1           0       -0.832841    2.035316   -0.687743
      8          1           0       -0.506443   -0.336434   -0.014168
      9          1           0       -2.496606   -1.795375    0.422670
     10          1           0       -5.114080    1.482494   -0.485994
     11          1           0       -3.132454    2.952127   -0.925796
     12          7           0       -5.059008   -1.080822    0.245043
     13          8           0       -6.172883   -0.578329    0.113064
     14          8           0       -4.842192   -2.244757    0.575018
     15          6           0        2.170698    2.007091    0.613418
     16          6           0        2.231204    1.518408   -0.695799
     17          6           0        3.071035    0.447515   -1.015829
     18          6           0        3.840035   -0.113418    0.002643
     19          6           0        3.801815    0.351035    1.316459
     20          6           0        2.954814    1.422875    1.613605
     21          1           0        1.515512    2.839354    0.853136
     22          1           0        1.623381    1.970162   -1.474589
     23          1           0        3.137347    0.049397   -2.021077
     24          1           0        4.419648   -0.119895    2.071393
     25          1           0        2.909865    1.800318    2.631230
     26          7           0        4.732921   -1.247626   -0.324046
     27          8           0        5.400343   -1.724417    0.591299
     28          8           0        4.748438   -1.638350   -1.489262
 ---------------------------------------------------------------------

 SCF Done:  E(RHF) =  -868.336759008     A.U. after   16 cycles
 E2 =    -0.2601106017D+01 EUMP2 =    -0.87093786502483D+03

 The electronic state is 1-A.
 Alpha  occ. eigenvalues --  -20.61548 -20.61540 -20.61086 -20.61079 -15.86610
 Alpha  occ. eigenvalues --  -15.86139 -11.32206 -11.31618 -11.28852 -11.28764
 Alpha  occ. eigenvalues --  -11.28659 -11.28186 -11.28140 -11.28044 -11.27983
 Alpha  occ. eigenvalues --  -11.27804 -11.27292 -11.27182  -1.60619  -1.60157
 Alpha  occ. eigenvalues --   -1.40165  -1.39707  -1.20429  -1.19798  -1.09794
 Alpha  occ. eigenvalues --   -1.09198  -1.05856  -1.05199  -0.96574  -0.96015
 Alpha  occ. eigenvalues --   -0.87256  -0.86600  -0.83387  -0.82833  -0.78389
 Alpha  occ. eigenvalues --   -0.77834  -0.72823  -0.72356  -0.71949  -0.71580
 Alpha  occ. eigenvalues --   -0.71481  -0.70967  -0.66075  -0.65873  -0.65450
 Alpha  occ. eigenvalues --   -0.65189  -0.63175  -0.62531  -0.56374  -0.55822
 Alpha  occ. eigenvalues --   -0.54192  -0.53920  -0.53542  -0.53261  -0.49599
 Alpha  occ. eigenvalues --   -0.49561  -0.49124  -0.49104  -0.45518  -0.45087
 Alpha  occ. eigenvalues --   -0.38450  -0.37827  -0.37459  -0.36791
 Alpha virt. eigenvalues --    0.04126   0.04675   0.10031   0.10838   0.15553
 Alpha virt. eigenvalues --    0.16118   0.18591   0.21909   0.25002   0.26729
 Alpha virt. eigenvalues --    0.27000   0.29283   0.29780   0.30606   0.32047

 Mulliken charges:
               1
     1  C   -0.174175
     2  C   -0.221272
     3  C   -0.170789
     4  C    0.159539
     5  C   -0.170882
     6  C   -0.218381
     7  H    0.214380
     8  H    0.229185
     9  H    0.278131
    10  H    0.276683
    11  H    0.222650
    12  N    0.487825
    13  O   -0.459577
    14  O   -0.458439
    15  C   -0.173003
    16  C   -0.227274
    17  C   -0.171883
    18  C    0.158352
    19  C   -0.169625
    20  C   -0.218262
    21  H    0.225345
    22  H    0.221085
    23  H    0.279405
    24  H    0.279769
    25  H    0.228173
    26  N    0.487935
    27  O   -0.457004
    28  O   -0.457892
 Sum of Mulliken charges =  -0.00000

 Dipole moment (field-independent basis, Debye):
    X=              1.2085    Y=              6.8511    Z=              0.3619  Tot=              6.9663
 Quadrupole moment (field-independent basis, Debye-Ang):
   XX=           -158.3129   YY=           -105.2314   ZZ=           -100.6580
   XY=              0.2798   XZ=             10.5306   YZ=             -0.9384

 Normal termination of Gaussian 16 at Thu May  6 14:36:49 2021.
