 Gaussian 16, Revision A.03,
 Gaussian 16:  EM64L-G16RevA.03 25-Dec-2016

 -------------
 #p 6-31g* mp2
 -------------

 ------------------------------------------------------
 Input file generated by CHIRIPA (05-May-2021 14:55:24)
 ------------------------------------------------------
 Symbolic Z-matrix:
 Charge =  0 Multiplicity = 1

                         Standard orientation:
 ---------------------------------------------------------------------
 Center     Atomic      Atomic             Coordinates (Angstroms)
 Number     Number       Type             X           Y           Z
 ---------------------------------------------------------------------
      1          6           0        0.562853   -1.371990    1.176687
      2          6           0        0.738811   -1.419025   -0.210161
      3          6           0        1.836033   -0.792237   -0.808314
      4          6           0        2.741898   -0.124302    0.014220
      5          6           0        2.594071   -0.059694    1.398873
      6          6           0        1.489411   -0.693670    1.975370
      7          1           0       -0.292384   -1.861686    1.632936
      8          1           0        0.020833   -1.945087   -0.832905
      9          1           0        1.996506   -0.812993   -1.879405
     10          1           0        3.326637    0.472401    1.993550
     11          1           0        1.355302   -0.655501    3.052683
     12          7           0        3.907415    0.543055   -0.607555
     13          8           0        4.691257    1.125013    0.139140
     14          8           0        4.015035    0.471535   -1.829823
     15          6           0       -2.991372   -0.393208    0.020491
     16          6           0       -3.741565   -1.527550   -0.678410
     17          6           0       -3.184999   -2.908008   -0.328603
     18          1           0       -1.928521   -0.441751   -0.253251
     19          1           0       -3.041398   -0.545042    1.107616
     20          1           0       -3.691318   -1.372872   -1.763843
     21          1           0       -4.802789   -1.476185   -0.403123
     22          1           0       -3.249934   -3.087708    0.749400
     23          1           0       -2.132148   -2.983808   -0.619052
     24          1           0       -3.735909   -3.704127   -0.839047
     25          6           0       -3.536132    0.992993   -0.319234
     26          6           0       -2.785939    2.127334    0.379668
     27          6           0       -3.342505    3.507792    0.029861
     28          1           0       -3.486107    1.144826   -1.406358
     29          1           0       -4.598983    1.041536   -0.045492
     30          1           0       -1.724716    2.075970    0.104380
     31          1           0       -2.836186    1.972657    1.465100
     32          1           0       -4.395357    3.583592    0.320309
     33          1           0       -3.277571    3.687493   -1.048142
     34          1           0       -2.791595    4.303911    0.540304
 ---------------------------------------------------------------------

 SCF Done:  E(RHF) =  -669.534263149     A.U. after   15 cycles
 E2 =    -0.2093700528D+01 EUMP2 =    -0.67162796367726D+03

 The electronic state is 1-A.
 Alpha  occ. eigenvalues --  -20.60765 -20.60760 -15.85820 -11.31182 -11.27767
 Alpha  occ. eigenvalues --  -11.27764 -11.27467 -11.26752 -11.26738 -11.22518
 Alpha  occ. eigenvalues --  -11.22313 -11.22165 -11.22044 -11.21953 -11.21393
 Alpha  occ. eigenvalues --   -1.59842  -1.39395  -1.19366  -1.09174  -1.08744
 Alpha  occ. eigenvalues --   -1.04778  -1.04258  -0.96727  -0.95586  -0.87745
 Alpha  occ. eigenvalues --   -0.86184  -0.82420  -0.80341  -0.78958  -0.77470
 Alpha  occ. eigenvalues --   -0.72039  -0.71166  -0.70446  -0.65895  -0.65007
 Alpha  occ. eigenvalues --   -0.64751  -0.62198  -0.61577  -0.60099  -0.58330
 Alpha  occ. eigenvalues --   -0.56064  -0.55243  -0.53425  -0.53275  -0.53023
 Alpha  occ. eigenvalues --   -0.52840  -0.50687  -0.48815  -0.48794  -0.48620
 Alpha  occ. eigenvalues --   -0.47346  -0.46475  -0.46368  -0.44802  -0.44483
 Alpha  occ. eigenvalues --   -0.37266  -0.36354
 Alpha virt. eigenvalues --    0.05065   0.11127   0.16529   0.19245   0.22691
 Alpha virt. eigenvalues --    0.23961   0.24758   0.26100   0.27350   0.27695
 Alpha virt. eigenvalues --    0.29306   0.30032   0.30822   0.31617   0.32011

 Mulliken charges:
               1
     1  C   -0.168592
     2  C   -0.224717
     3  C   -0.173309
     4  C    0.158275
     5  C   -0.170598
     6  C   -0.219445
     7  H    0.229458
     8  H    0.229440
     9  H    0.275883
    10  H    0.275653
    11  H    0.223506
    12  N    0.488008
    13  O   -0.460452
    14  O   -0.460548
    15  C   -0.307714
    16  C   -0.300114
    17  C   -0.480053
    18  H    0.155006
    19  H    0.144894
    20  H    0.154333
    21  H    0.156178
    22  H    0.154614
    23  H    0.145734
    24  H    0.167406
    25  C   -0.297866
    26  C   -0.300787
    27  C   -0.476186
    28  H    0.151270
    29  H    0.150814
    30  H    0.155573
    31  H    0.150003
    32  H    0.155217
    33  H    0.156793
    34  H    0.162323
 Sum of Mulliken charges =  -0.00000

 Dipole moment (field-independent basis, Debye):
    X=             -4.2193    Y=             -2.2816    Z=              2.1803  Tot=              5.2690
 Quadrupole moment (field-independent basis, Debye-Ang):
   XX=           -116.7930   YY=            -95.4024   ZZ=            -90.0821
   XY=             -5.0609   XZ=              7.2540   YZ=              1.3448

 Normal termination of Gaussian 16 at Thu May  6 00:01:55 2021.
