 Gaussian 16, Revision A.03,
 Gaussian 16:  EM64L-G16RevA.03 25-Dec-2016

 -------------
 #p 6-31g* mp2
 -------------

 ------------------------------------------------------
 Input file generated by CHIRIPA (05-May-2021 14:53:18)
 ------------------------------------------------------
 Symbolic Z-matrix:
 Charge =  0 Multiplicity = 1

                         Standard orientation:
 ---------------------------------------------------------------------
 Center     Atomic      Atomic             Coordinates (Angstroms)
 Number     Number       Type             X           Y           Z
 ---------------------------------------------------------------------
      1          6           0       -4.190046   -0.179116    0.628645
      2          6           0       -2.798408   -0.291998    0.005278
      3          6           0       -1.690577   -0.418907    1.051413
      4          1           0       -4.215180    0.691055    1.298807
      5          1           0       -4.376015   -1.062056    1.255723
      6          1           0       -2.615668    0.590228   -0.621539
      7          1           0       -2.776642   -1.161889   -0.663625
      8          1           0       -1.845361   -1.308537    1.670445
      9          1           0       -1.683472    0.453535    1.712771
     10          1           0       -0.704154   -0.498305    0.583947
     11          6           0       -5.308115   -0.051578   -0.404498
     12          6           0       -6.699753    0.061304    0.218869
     13          6           0       -7.807584    0.188213   -0.827266
     14          1           0       -5.122146    0.831362   -1.031576
     15          1           0       -5.282981   -0.921749   -1.074659
     16          1           0       -6.721519    0.931195    0.887772
     17          1           0       -6.882493   -0.820922    0.845686
     18          1           0       -7.814689   -0.684229   -1.488624
     19          1           0       -7.652800    1.077843   -1.446298
     20          1           0       -8.794007    0.267611   -0.359800
     21          6           0        3.225537    2.564403    0.006813
     22          6           0        2.175305    1.642547    0.067779
     23          6           0        2.432121    0.269248    0.016353
     24          6           0        3.757076   -0.149090   -0.096681
     25          6           0        4.825002    0.744698   -0.159669
     26          6           0        4.544708    2.113331   -0.106516
     27          1           0        3.016918    3.629402    0.047434
     28          1           0        1.149837    1.989981    0.155803
     29          1           0        1.638086   -0.466198    0.061567
     30          1           0        5.836879    0.368072   -0.247299
     31          1           0        5.362326    2.826974   -0.154070
     32          7           0        4.041383   -1.600470   -0.152037
     33          8           0        5.217420   -1.943459   -0.251720
     34          8           0        3.082805   -2.367592   -0.094696
 ---------------------------------------------------------------------

 SCF Done:  E(RHF) =  -669.535447841     A.U. after   15 cycles
 E2 =    -0.2090989582D+01 EUMP2 =    -0.67162643742274D+03

 The electronic state is 1-A.
 Alpha  occ. eigenvalues --  -20.60735 -20.60730 -15.85786 -11.31145 -11.27717
 Alpha  occ. eigenvalues --  -11.27702 -11.27462 -11.26737 -11.26714 -11.22094
 Alpha  occ. eigenvalues --  -11.21831 -11.21765 -11.21757 -11.21652 -11.21257
 Alpha  occ. eigenvalues --   -1.59809  -1.39363  -1.19319  -1.08784  -1.08717
 Alpha  occ. eigenvalues --   -1.04724  -1.03914  -0.96376  -0.95553  -0.87395
 Alpha  occ. eigenvalues --   -0.86121  -0.82384  -0.79974  -0.78573  -0.77433
 Alpha  occ. eigenvalues --   -0.72006  -0.71131  -0.70444  -0.65409  -0.64974
 Alpha  occ. eigenvalues --   -0.64731  -0.62136  -0.61300  -0.59740  -0.57974
 Alpha  occ. eigenvalues --   -0.55647  -0.55233  -0.53154  -0.53047  -0.52856
 Alpha  occ. eigenvalues --   -0.52683  -0.50297  -0.48764  -0.48761  -0.48289
 Alpha  occ. eigenvalues --   -0.46992  -0.46121  -0.46032  -0.44770  -0.44168
 Alpha  occ. eigenvalues --   -0.37303  -0.36323
 Alpha virt. eigenvalues --    0.05102   0.11328   0.16594   0.19792   0.22704
 Alpha virt. eigenvalues --    0.23754   0.25852   0.26277   0.27175   0.27649
 Alpha virt. eigenvalues --    0.28764   0.30411   0.31202   0.31509   0.31688

 Mulliken charges:
               1
     1  C   -0.299135
     2  C   -0.299296
     3  C   -0.480786
     4  H    0.148812
     5  H    0.152112
     6  H    0.148367
     7  H    0.157052
     8  H    0.163875
     9  H    0.153399
    10  H    0.153833
    11  C   -0.298559
    12  C   -0.299944
    13  C   -0.475909
    14  H    0.148771
    15  H    0.151478
    16  H    0.151574
    17  H    0.153076
    18  H    0.156126
    19  H    0.154894
    20  H    0.160995
    21  C   -0.170799
    22  C   -0.221404
    23  C   -0.180651
    24  C    0.161042
    25  C   -0.170441
    26  C   -0.218842
    27  H    0.225374
    28  H    0.224646
    29  H    0.284744
    30  H    0.275479
    31  H    0.223307
    32  N    0.487613
    33  O   -0.460559
    34  O   -0.460243
 Sum of Mulliken charges =  -0.00000

 Dipole moment (field-independent basis, Debye):
    X=             -1.1620    Y=              5.0575    Z=              0.2164  Tot=              5.1938
 Quadrupole moment (field-independent basis, Debye-Ang):
   XX=            -97.7567   YY=            -95.5882   ZZ=            -96.0584
   XY=             21.0772   XZ=             -0.1928   YZ=             -0.5689

 Normal termination of Gaussian 16 at Thu May  6 06:02:06 2021.
