 Gaussian 16, Revision A.03,
 Gaussian 16:  EM64L-G16RevA.03 25-Dec-2016

 -------------
 #p 6-31g* mp2
 -------------

 ------------------------------------------------------
 Input file generated by CHIRIPA (05-May-2021 14:53:14)
 ------------------------------------------------------
 Symbolic Z-matrix:
 Charge =  0 Multiplicity = 1

                         Standard orientation:
 ---------------------------------------------------------------------
 Center     Atomic      Atomic             Coordinates (Angstroms)
 Number     Number       Type             X           Y           Z
 ---------------------------------------------------------------------
      1          6           0        4.842361    0.187811   -0.177336
      2          6           0        6.207178   -0.441898   -0.457919
      3          6           0        7.308021    0.599443   -0.661749
      4          1           0        4.572740    0.850035   -1.011427
      5          1           0        4.916435    0.823996    0.715512
      6          1           0        6.130213   -1.077798   -1.349167
      7          1           0        6.473495   -1.102848    0.376848
      8          1           0        7.413875    1.227479    0.228738
      9          1           0        7.068643    1.252671   -1.507085
     10          1           0        8.275195    0.127477   -0.860957
     11          6           0        3.731556   -0.840490    0.028665
     12          6           0        2.366739   -0.210781    0.309249
     13          6           0        1.265896   -1.252123    0.513079
     14          1           0        3.657482   -1.476676   -0.864182
     15          1           0        4.001177   -1.502714    0.862757
     16          1           0        2.100422    0.450169   -0.525519
     17          1           0        2.443704    0.425119    1.200497
     18          1           0        1.505274   -1.905351    1.358414
     19          1           0        1.160042   -1.880158   -0.377408
     20          1           0        0.298722   -0.780157    0.712287
     21          6           0       -1.436980    1.340349    1.295534
     22          6           0       -2.060943    0.206774    1.826758
     23          6           0       -3.121394   -0.402876    1.149766
     24          6           0       -3.534051    0.150021   -0.061559
     25          6           0       -2.932657    1.278508   -0.616654
     26          6           0       -1.874058    1.871661    0.077670
     27          1           0       -0.613915    1.807532    1.828169
     28          1           0       -1.723613   -0.208027    2.772377
     29          1           0       -3.622335   -1.281264    1.538238
     30          1           0       -3.291158    1.669064   -1.561302
     31          1           0       -1.391355    2.751926   -0.337274
     32          7           0       -4.655723   -0.486656   -0.787433
     33          8           0       -5.000503    0.019813   -1.852915
     34          8           0       -5.168870   -1.480097   -0.277148
 ---------------------------------------------------------------------

 SCF Done:  E(RHF) =  -669.534482745     A.U. after   15 cycles
 E2 =    -0.2092752010D+01 EUMP2 =    -0.67162723475524D+03

 The electronic state is 1-A.
 Alpha  occ. eigenvalues --  -20.60808 -20.60803 -15.85863 -11.31259 -11.27834
 Alpha  occ. eigenvalues --  -11.27824 -11.27563 -11.26845 -11.26825 -11.22152
 Alpha  occ. eigenvalues --  -11.21937 -11.21821 -11.21760 -11.21378 -11.21307
 Alpha  occ. eigenvalues --   -1.59883  -1.39435  -1.19448  -1.08874  -1.08812
 Alpha  occ. eigenvalues --   -1.04850  -1.03922  -0.96356  -0.95656  -0.87372
 Alpha  occ. eigenvalues --   -0.86240  -0.82485  -0.80001  -0.78666  -0.77526
 Alpha  occ. eigenvalues --   -0.72081  -0.71206  -0.70542  -0.65477  -0.65093
 Alpha  occ. eigenvalues --   -0.64843  -0.62186  -0.61322  -0.59793  -0.58025
 Alpha  occ. eigenvalues --   -0.55630  -0.55336  -0.53699  -0.52933  -0.52875
 Alpha  occ. eigenvalues --   -0.52382  -0.50291  -0.48842  -0.48833  -0.48304
 Alpha  occ. eigenvalues --   -0.47046  -0.46201  -0.46133  -0.44835  -0.44189
 Alpha  occ. eigenvalues --   -0.37335  -0.36420
 Alpha virt. eigenvalues --    0.04987   0.11142   0.16429   0.20913   0.22584
 Alpha virt. eigenvalues --    0.24120   0.26087   0.26707   0.27130   0.27783
 Alpha virt. eigenvalues --    0.28628   0.30482   0.31102   0.31816   0.32389

 Mulliken charges:
               1
     1  C   -0.298267
     2  C   -0.299931
     3  C   -0.475857
     4  H    0.149259
     5  H    0.147852
     6  H    0.153175
     7  H    0.152376
     8  H    0.154731
     9  H    0.155312
    10  H    0.161455
    11  C   -0.297972
    12  C   -0.298537
    13  C   -0.487330
    14  H    0.152022
    15  H    0.150169
    16  H    0.150640
    17  H    0.143704
    18  H    0.151735
    19  H    0.158268
    20  H    0.170865
    21  C   -0.171998
    22  C   -0.220741
    23  C   -0.169534
    24  C    0.158882
    25  C   -0.170814
    26  C   -0.217171
    27  H    0.228080
    28  H    0.225397
    29  H    0.276278
    30  H    0.275999
    31  H    0.224199
    32  N    0.488077
    33  O   -0.460278
    34  O   -0.460045
 Sum of Mulliken charges =  -0.00000

 Dipole moment (field-independent basis, Debye):
    X=              3.8906    Y=              2.2486    Z=              2.5287  Tot=              5.1563
 Quadrupole moment (field-independent basis, Debye-Ang):
   XX=           -124.0387   YY=            -92.5141   ZZ=            -91.8002
   XY=             -7.7129   XZ=             -9.4973   YZ=             -2.4858

 Normal termination of Gaussian 16 at Thu May  6 12:07:06 2021.
