 Gaussian 16, Revision A.03,
 Gaussian 16:  EM64L-G16RevA.03 25-Dec-2016

 -------------
 #p 6-31g* mp2
 -------------

 ------------------------------------------------------
 Input file generated by CHIRIPA (05-May-2021 14:55:20)
 ------------------------------------------------------
 Symbolic Z-matrix:
 Charge =  0 Multiplicity = 1

                         Standard orientation:
 ---------------------------------------------------------------------
 Center     Atomic      Atomic             Coordinates (Angstroms)
 Number     Number       Type             X           Y           Z
 ---------------------------------------------------------------------
      1          6           0        2.270020    2.815228    0.190746
      2          6           0        1.245573    1.897586   -0.064136
      3          6           0        1.531073    0.536596   -0.208163
      4          6           0        2.858107    0.126135   -0.090717
      5          6           0        3.900767    1.016001    0.162832
      6          6           0        3.592016    2.372287    0.303219
      7          1           0        2.039205    3.870651    0.301215
      8          1           0        0.217978    2.238726   -0.151982
      9          1           0        0.757375   -0.195344   -0.405834
     10          1           0        4.915481    0.645869    0.245152
     11          1           0        4.389647    3.082683    0.501127
     12          7           0        3.172660   -1.312195   -0.241265
     13          8           0        4.349920   -1.648427   -0.133362
     14          8           0        2.235991   -2.076090   -0.464315
     15          6           0       -2.902368   -0.726062    0.283353
     16          6           0       -2.754391   -2.238377    0.113092
     17          6           0       -1.369272   -2.745817    0.515265
     18          1           0       -2.135610   -0.218992   -0.318233
     19          1           0       -2.703629   -0.460861    1.331002
     20          1           0       -2.954706   -2.500812   -0.933626
     21          1           0       -3.521712   -2.741901    0.715003
     22          1           0       -1.163386   -2.512659    1.564955
     23          1           0       -0.593157   -2.270200   -0.093042
     24          1           0       -1.285425   -3.829343    0.385651
     25          6           0       -4.281669   -0.203701   -0.114637
     26          6           0       -4.429646    1.308614    0.055625
     27          6           0       -5.814766    1.816053   -0.346548
     28          1           0       -4.480409   -0.468902   -1.162285
     29          1           0       -5.048427   -0.710771    0.486950
     30          1           0       -3.662324    1.812137   -0.546287
     31          1           0       -4.229331    1.571049    1.102343
     32          1           0       -6.590880    1.340436    0.261758
     33          1           0       -6.020651    1.582896   -1.396238
     34          1           0       -5.898612    2.899580   -0.216934
 ---------------------------------------------------------------------

 SCF Done:  E(RHF) =  -669.535577727     A.U. after   15 cycles
 E2 =    -0.2092122798D+01 EUMP2 =    -0.67162770052482D+03

 The electronic state is 1-A.
 Alpha  occ. eigenvalues --  -20.60802 -20.60796 -15.85842 -11.31178 -11.27748
 Alpha  occ. eigenvalues --  -11.27730 -11.27488 -11.26761 -11.26741 -11.22047
 Alpha  occ. eigenvalues --  -11.21761 -11.21677 -11.21520 -11.21424 -11.20602
 Alpha  occ. eigenvalues --   -1.59870  -1.39426  -1.19351  -1.08753  -1.08684
 Alpha  occ. eigenvalues --   -1.04749  -1.03657  -0.96078  -0.95591  -0.87086
 Alpha  occ. eigenvalues --   -0.86151  -0.82426  -0.79736  -0.78529  -0.77465
 Alpha  occ. eigenvalues --   -0.72070  -0.71186  -0.70468  -0.65327  -0.65007
 Alpha  occ. eigenvalues --   -0.64756  -0.62126  -0.61029  -0.59487  -0.57697
 Alpha  occ. eigenvalues --   -0.55363  -0.55252  -0.53081  -0.52869  -0.52715
 Alpha  occ. eigenvalues --   -0.52486  -0.50046  -0.48828  -0.48815  -0.47999
 Alpha  occ. eigenvalues --   -0.46766  -0.46032  -0.45952  -0.44822  -0.43932
 Alpha  occ. eigenvalues --   -0.37333  -0.36349
 Alpha virt. eigenvalues --    0.05053   0.11298   0.16548   0.19473   0.22867
 Alpha virt. eigenvalues --    0.23601   0.24991   0.26663   0.27020   0.28319
 Alpha virt. eigenvalues --    0.29711   0.30650   0.31531   0.31657   0.32070

 Mulliken charges:
               1
     1  C   -0.170374
     2  C   -0.222741
     3  C   -0.173358
     4  C    0.155850
     5  C   -0.169988
     6  C   -0.219103
     7  H    0.225652
     8  H    0.224897
     9  H    0.285414
    10  H    0.275519
    11  H    0.223386
    12  N    0.490465
    13  O   -0.459987
    14  O   -0.464941
    15  C   -0.298165
    16  C   -0.301243
    17  C   -0.484735
    18  H    0.137743
    19  H    0.149834
    20  H    0.152767
    21  H    0.152128
    22  H    0.152630
    23  H    0.171326
    24  H    0.165869
    25  C   -0.297978
    26  C   -0.299073
    27  C   -0.475685
    28  H    0.151261
    29  H    0.152432
    30  H    0.145585
    31  H    0.151497
    32  H    0.157063
    33  H    0.156419
    34  H    0.159634
 Sum of Mulliken charges =  -0.00000

 Dipole moment (field-independent basis, Debye):
    X=             -1.1048    Y=              4.9303    Z=              0.5414  Tot=              5.0814
 Quadrupole moment (field-independent basis, Debye-Ang):
   XX=            -96.9257   YY=            -93.7056   ZZ=            -94.8129
   XY=             16.2562   XZ=              1.9432   YZ=             -0.1687

 Normal termination of Gaussian 16 at Thu May  6 12:28:18 2021.
