 Gaussian 16, Revision A.03,
 Gaussian 16:  EM64L-G16RevA.03 25-Dec-2016

 -------------
 #p 6-31g* mp2
 -------------

 ------------------------------------------------------
 Input file generated by CHIRIPA (05-May-2021 14:51:12)
 ------------------------------------------------------
 Symbolic Z-matrix:
 Charge =  0 Multiplicity = 1

                         Standard orientation:
 ---------------------------------------------------------------------
 Center     Atomic      Atomic             Coordinates (Angstroms)
 Number     Number       Type             X           Y           Z
 ---------------------------------------------------------------------
      1          6           0       -2.176225    0.910969    0.039607
      2          6           0       -2.917058    1.753156   -0.999563
      3          6           0       -2.328192    3.155898   -1.152358
      4          1           0       -2.202554    1.428743    1.008195
      5          1           0       -1.117864    0.836216   -0.246190
      6          1           0       -3.973987    1.825143   -0.712625
      7          1           0       -2.889127    1.233226   -1.965746
      8          1           0       -1.279438    3.101828   -1.461859
      9          1           0       -2.370462    3.697109   -0.201619
     10          1           0       -2.872881    3.740698   -1.900143
     11          6           0       -2.753217   -0.493977    0.203723
     12          6           0       -2.012384   -1.336163    1.242892
     13          6           0       -2.601249   -2.738905    1.395687
     14          1           0       -3.811577   -0.419223    0.489520
     15          1           0       -2.726887   -1.011751   -0.764865
     16          1           0       -2.040315   -0.816233    2.209075
     17          1           0       -0.955454   -1.408151    0.955955
     18          1           0       -2.558979   -3.280116    0.444948
     19          1           0       -3.650004   -2.684836    1.705189
     20          1           0       -2.056561   -3.323706    2.143473
     21          6           0        1.941945   -0.716971   -0.348802
     22          6           0        2.547490   -1.952580   -1.015562
     23          6           0        1.489088   -2.960573   -1.464486
     24          1           0        1.342843   -1.031682    0.516633
     25          1           0        1.247930   -0.233456   -1.050194
     26          1           0        3.241204   -2.432839   -0.313615
     27          1           0        3.145377   -1.634875   -1.879397
     28          1           0        0.802409   -2.503355   -2.184225
     29          1           0        0.898781   -3.305853   -0.609548
     30          1           0        1.943890   -3.835995   -1.938458
     31          6           0        2.987497    0.299978    0.105473
     32          6           0        2.381951    1.535588    0.772232
     33          6           0        3.440353    2.543580    1.221156
     34          1           0        3.681512   -0.183536    0.806865
     35          1           0        3.586599    0.614689   -0.759962
     36          1           0        1.784064    1.217883    1.636068
     37          1           0        1.688238    2.015846    0.070286
     38          1           0        4.030660    2.888861    0.366218
     39          1           0        4.127032    2.086363    1.940896
     40          1           0        2.985551    3.419003    1.695129
 ---------------------------------------------------------------------

 SCF Done:  E(RHF) =  -470.733075395     A.U. after   11 cycles
 E2 =    -0.1584446182D+01 EUMP2 =    -0.47231752157695D+03

 The electronic state is 1-A.
 Alpha  occ. eigenvalues --  -11.21674 -11.21622 -11.21568 -11.21510 -11.21472
 Alpha  occ. eigenvalues --  -11.21407 -11.21330 -11.21265 -11.21148 -11.21084
 Alpha  occ. eigenvalues --  -11.21067 -11.21034  -1.08507  -1.08360  -1.03584
 Alpha  occ. eigenvalues --   -1.03484  -0.96035  -0.95936  -0.87051  -0.86953
 Alpha  occ. eigenvalues --   -0.79669  -0.79531  -0.78484  -0.78027  -0.65138
 Alpha  occ. eigenvalues --   -0.65005  -0.61013  -0.60860  -0.59415  -0.59289
 Alpha  occ. eigenvalues --   -0.57652  -0.57543  -0.55330  -0.55222  -0.52727
 Alpha  occ. eigenvalues --   -0.52640  -0.52463  -0.52361  -0.50029  -0.49837
 Alpha  occ. eigenvalues --   -0.48080  -0.47801  -0.46811  -0.46587  -0.46379
 Alpha  occ. eigenvalues --   -0.45704  -0.45635  -0.45022  -0.43836  -0.43730
 Alpha virt. eigenvalues --    0.20470   0.22054   0.23529   0.24812   0.25016
 Alpha virt. eigenvalues --    0.26275   0.26836   0.27369   0.28308   0.30709
 Alpha virt. eigenvalues --    0.30813   0.31397   0.31612   0.31864   0.32317

 Mulliken charges:
               1
     1  C   -0.304817
     2  C   -0.299530
     3  C   -0.475684
     4  H    0.149230
     5  H    0.156794
     6  H    0.151893
     7  H    0.151394
     8  H    0.154346
     9  H    0.155404
    10  H    0.160167
    11  C   -0.297185
    12  C   -0.308905
    13  C   -0.475593
    14  H    0.149131
    15  H    0.149321
    16  H    0.150950
    17  H    0.161087
    18  H    0.155687
    19  H    0.155125
    20  H    0.159257
    21  C   -0.307053
    22  C   -0.299251
    23  C   -0.477472
    24  H    0.156588
    25  H    0.150755
    26  H    0.152247
    27  H    0.152190
    28  H    0.154695
    29  H    0.156666
    30  H    0.160907
    31  C   -0.297621
    32  C   -0.301155
    33  C   -0.475817
    34  H    0.149714
    35  H    0.149642
    36  H    0.153028
    37  H    0.152875
    38  H    0.155114
    39  H    0.155199
    40  H    0.160675
 Sum of Mulliken charges =  -0.00000

 Dipole moment (field-independent basis, Debye):
    X=              0.0590    Y=             -0.0062    Z=              0.0032  Tot=              0.0594
 Quadrupole moment (field-independent basis, Debye-Ang):
   XX=            -84.9569   YY=            -86.2442   ZZ=            -83.6384
   XY=             -1.1466   XZ=             -0.5476   YZ=             -0.1888

 Normal termination of Gaussian 16 at Wed May  5 15:17:18 2021.
