 Gaussian 16, Revision A.03,
 Gaussian 16:  EM64L-G16RevA.03 25-Dec-2016

 -------------
 #p 6-31g* mp2
 -------------

 ------------------------------------------------------
 Input file generated by CHIRIPA (05-May-2021 14:57:23)
 ------------------------------------------------------
 Symbolic Z-matrix:
 Charge =  0 Multiplicity = 1

                         Standard orientation:
 ---------------------------------------------------------------------
 Center     Atomic      Atomic             Coordinates (Angstroms)
 Number     Number       Type             X           Y           Z
 ---------------------------------------------------------------------
      1          6           0       -5.063478    1.174137   -1.483632
      2          6           0       -3.828962    1.730370   -1.132780
      3          6           0       -2.984915    1.074264   -0.231860
      4          6           0       -3.408894   -0.141904    0.301494
      5          6           0       -4.632957   -0.721692   -0.028360
      6          6           0       -5.460835   -0.047964   -0.931277
      7          1           0       -5.712874    1.690661   -2.184264
      8          1           0       -3.517773    2.679337   -1.560177
      9          1           0       -2.023975    1.482293    0.057148
     10          1           0       -4.915798   -1.669074    0.414230
     11          1           0       -6.419029   -0.482310   -1.201930
     12          7           0       -2.523898   -0.845822    1.256314
     13          8           0       -2.920530   -1.916081    1.712236
     14          8           0       -1.450363   -0.313965    1.530700
     15          6           0        3.429506   -2.328305   -1.043017
     16          6           0        2.280244   -1.708413   -0.541567
     17          6           0        2.337909   -0.404318   -0.041009
     18          6           0        3.566860    0.253485   -0.057227
     19          6           0        4.729393   -0.337153   -0.550130
     20          6           0        4.648263   -1.641907   -1.045693
     21          1           0        3.375596   -3.341614   -1.429922
     22          1           0        1.332384   -2.239068   -0.538235
     23          1           0        1.463626    0.099385    0.353112
     24          1           0        5.659968    0.217240   -0.540245
     25          1           0        5.542413   -2.120828   -1.434506
     26          7           0        3.640328    1.634420    0.470047
     27          8           0        4.735109    2.192493    0.444609
     28          8           0        2.601739    2.132577    0.898781
 ---------------------------------------------------------------------

 SCF Done:  E(RHF) =  -868.339601439     A.U. after   16 cycles
 E2 =    -0.2598554397D+01 EUMP2 =    -0.87093815583594D+03

 The electronic state is 1-A.
 Alpha  occ. eigenvalues --  -20.61317 -20.61282 -20.60244 -20.60235 -15.86333
 Alpha  occ. eigenvalues --  -15.85290 -11.31491 -11.30526 -11.28051 -11.28003
 Alpha  occ. eigenvalues --  -11.27743 -11.27156 -11.27020 -11.26974 -11.26964
 Alpha  occ. eigenvalues --  -11.26868 -11.26162 -11.26020  -1.60370  -1.59321
 Alpha  occ. eigenvalues --   -1.39927  -1.38876  -1.19648  -1.18706  -1.09082
 Alpha  occ. eigenvalues --   -1.08139  -1.05013  -1.04074  -0.95947  -0.94983
 Alpha  occ. eigenvalues --   -0.86422  -0.85490  -0.82781  -0.81808  -0.77853
 Alpha  occ. eigenvalues --   -0.76856  -0.72552  -0.71689  -0.71514  -0.70748
 Alpha  occ. eigenvalues --   -0.70643  -0.69816  -0.65300  -0.65007  -0.64357
 Alpha  occ. eigenvalues --   -0.64076  -0.62354  -0.61397  -0.55523  -0.54622
 Alpha  occ. eigenvalues --   -0.53365  -0.53095  -0.52441  -0.52155  -0.49314
 Alpha  occ. eigenvalues --   -0.49290  -0.48273  -0.48260  -0.45374  -0.44309
 Alpha  occ. eigenvalues --   -0.37625  -0.36720  -0.36610  -0.35679
 Alpha virt. eigenvalues --    0.04626   0.05648   0.11042   0.11964   0.16141
 Alpha virt. eigenvalues --    0.17150   0.21062   0.22137   0.26727   0.27472
 Alpha virt. eigenvalues --    0.28292   0.29131   0.30748   0.31485   0.32088

 Mulliken charges:
               1
     1  C   -0.170238
     2  C   -0.218846
     3  C   -0.172691
     4  C    0.156507
     5  C   -0.171294
     6  C   -0.218741
     7  H    0.227064
     8  H    0.226956
     9  H    0.279929
    10  H    0.275252
    11  H    0.224145
    12  N    0.489347
    13  O   -0.458752
    14  O   -0.466135
    15  C   -0.171149
    16  C   -0.220393
    17  C   -0.175336
    18  C    0.157199
    19  C   -0.171638
    20  C   -0.219446
    21  H    0.223637
    22  H    0.227551
    23  H    0.289131
    24  H    0.273132
    25  H    0.220730
    26  N    0.487823
    27  O   -0.463395
    28  O   -0.460348
 Sum of Mulliken charges =  -0.00000

 Dipole moment (field-independent basis, Debye):
    X=             -3.7194    Y=             -2.3500    Z=             -5.2005  Tot=              6.8119
 Quadrupole moment (field-independent basis, Debye-Ang):
   XX=            -79.1720   YY=           -106.2663   ZZ=           -107.9731
   XY=            -22.9351   XZ=              2.9217   YZ=              0.4694

 Normal termination of Gaussian 16 at Thu May  6 06:35:13 2021.
