 Gaussian 16, Revision A.03,
 Gaussian 16:  EM64L-G16RevA.03 25-Dec-2016

 -------------
 #p 6-31g* mp2
 -------------

 ------------------------------------------------------
 Input file generated by CHIRIPA (05-May-2021 14:51:13)
 ------------------------------------------------------
 Symbolic Z-matrix:
 Charge =  0 Multiplicity = 1

                         Standard orientation:
 ---------------------------------------------------------------------
 Center     Atomic      Atomic             Coordinates (Angstroms)
 Number     Number       Type             X           Y           Z
 ---------------------------------------------------------------------
      1          6           0       -2.497692   -0.958736    0.612865
      2          6           0       -1.003013   -0.658174    0.729412
      3          6           0       -0.233968   -1.758834    1.460787
      4          1           0       -2.917403   -1.094770    1.618987
      5          1           0       -2.632603   -1.913616    0.086179
      6          1           0       -0.871004    0.296536    1.254501
      7          1           0       -0.586850   -0.522650   -0.277096
      8          1           0       -0.336033   -2.714133    0.935822
      9          1           0       -0.621801   -1.890292    2.476122
     10          1           0        0.832481   -1.523541    1.532795
     11          6           0       -3.280027    0.132410   -0.115888
     12          6           0       -4.774706   -0.168152   -0.232434
     13          6           0       -5.543751    0.932509   -0.963810
     14          1           0       -3.145116    1.087290    0.410799
     15          1           0       -2.860315    0.268444   -1.122010
     16          1           0       -5.190869   -0.303675    0.774073
     17          1           0       -4.906715   -1.122861   -0.757524
     18          1           0       -5.155917    1.063967   -1.979145
     19          1           0       -5.441686    1.887807   -0.438845
     20          1           0       -6.610199    0.697215   -1.035817
     21          6           0        2.811420   -0.202454   -0.693968
     22          6           0        3.505856   -1.445475   -0.136614
     23          6           0        3.341961   -2.668838   -1.039009
     24          1           0        1.742957   -0.417837   -0.831596
     25          1           0        3.216533    0.019306   -1.691013
     26          1           0        3.100533   -1.664015    0.859664
     27          1           0        4.572754   -1.227045   -0.000117
     28          1           0        3.763291   -2.475203   -2.030769
     29          1           0        2.282705   -2.914656   -1.166103
     30          1           0        3.846092   -3.546035   -0.621595
     31          6           0        2.966299    1.028779    0.196990
     32          6           0        2.271864    2.271800   -0.360363
     33          6           0        2.435758    3.495163    0.542031
     34          1           0        2.561185    0.807019    1.194036
     35          1           0        4.034762    1.244163    0.334618
     36          1           0        1.204965    2.053371   -0.496861
     37          1           0        2.677186    2.490340   -1.356641
     38          1           0        3.495013    3.740981    0.669125
     39          1           0        2.014427    3.301529    1.533791
     40          1           0        1.931626    4.372361    0.124617
 ---------------------------------------------------------------------

 SCF Done:  E(RHF) =  -470.732452063     A.U. after   11 cycles
 E2 =    -0.1584797034D+01 EUMP2 =    -0.47231724909661D+03

 The electronic state is 1-A.
 Alpha  occ. eigenvalues --  -11.21704 -11.21640 -11.21569 -11.21557 -11.21469
 Alpha  occ. eigenvalues --  -11.21407 -11.21365 -11.21292 -11.21141 -11.21099
 Alpha  occ. eigenvalues --  -11.21049 -11.21047  -1.08521  -1.08383  -1.03613
 Alpha  occ. eigenvalues --   -1.03490  -0.96054  -0.95944  -0.87074  -0.86959
 Alpha  occ. eigenvalues --   -0.79696  -0.79553  -0.78370  -0.78157  -0.65257
 Alpha  occ. eigenvalues --   -0.65014  -0.61126  -0.60842  -0.59370  -0.59293
 Alpha  occ. eigenvalues --   -0.57659  -0.57541  -0.55326  -0.55231  -0.52767
 Alpha  occ. eigenvalues --   -0.52640  -0.52459  -0.52377  -0.50013  -0.49857
 Alpha  occ. eigenvalues --   -0.48053  -0.47862  -0.46802  -0.46570  -0.46066
 Alpha  occ. eigenvalues --   -0.45792  -0.45725  -0.45333  -0.43799  -0.43750
 Alpha virt. eigenvalues --    0.19808   0.23100   0.23471   0.24775   0.25538
 Alpha virt. eigenvalues --    0.26098   0.26936   0.27544   0.28145   0.29607
 Alpha virt. eigenvalues --    0.30533   0.31114   0.31765   0.32103   0.32295

 Mulliken charges:
               1
     1  C   -0.297935
     2  C   -0.304471
     3  C   -0.483840
     4  H    0.149978
     5  H    0.149771
     6  H    0.152509
     7  H    0.155099
     8  H    0.155577
     9  H    0.155839
    10  H    0.168014
    11  C   -0.298529
    12  C   -0.299684
    13  C   -0.475774
    14  H    0.149612
    15  H    0.149766
    16  H    0.152057
    17  H    0.152056
    18  H    0.155298
    19  H    0.155270
    20  H    0.160408
    21  C   -0.306574
    22  C   -0.302232
    23  C   -0.476097
    24  H    0.158034
    25  H    0.149666
    26  H    0.153742
    27  H    0.152189
    28  H    0.155021
    29  H    0.155615
    30  H    0.160240
    31  C   -0.298702
    32  C   -0.301602
    33  C   -0.475644
    34  H    0.149609
    35  H    0.149646
    36  H    0.154412
    37  H    0.151604
    38  H    0.155080
    39  H    0.154833
    40  H    0.160137
 Sum of Mulliken charges =  -0.00000

 Dipole moment (field-independent basis, Debye):
    X=             -0.0387    Y=             -0.0113    Z=              0.0011  Tot=              0.0403
 Quadrupole moment (field-independent basis, Debye-Ang):
   XX=            -84.5723   YY=            -85.9728   ZZ=            -84.2824
   XY=              0.5821   XZ=             -0.9327   YZ=              0.1166

 Normal termination of Gaussian 16 at Wed May  5 21:35:18 2021.
