 Gaussian 16, Revision A.03,
 Gaussian 16:  EM64L-G16RevA.03 25-Dec-2016

 -------------
 #p 6-31g* mp2
 -------------

 ------------------------------------------------------
 Input file generated by CHIRIPA (05-May-2021 14:57:26)
 ------------------------------------------------------
 Symbolic Z-matrix:
 Charge =  0 Multiplicity = 1

                         Standard orientation:
 ---------------------------------------------------------------------
 Center     Atomic      Atomic             Coordinates (Angstroms)
 Number     Number       Type             X           Y           Z
 ---------------------------------------------------------------------
      1          6           0        1.433274   -1.153459    0.872959
      2          6           0        1.770593    0.160868    1.212488
      3          6           0        3.010615    0.692788    0.846491
      4          6           0        3.893186   -0.121311    0.138252
      5          6           0        3.586251   -1.434511   -0.214715
      6          6           0        2.340580   -1.945558    0.161695
      7          1           0        0.467801   -1.558560    1.161318
      8          1           0        1.067946    0.778326    1.764827
      9          1           0        3.297471    1.707028    1.096386
     10          1           0        4.307541   -2.025747   -0.765714
     11          1           0        2.081310   -2.966625   -0.103347
     12          7           0        5.208932    0.430760   -0.254724
     13          8           0        5.968869   -0.306959   -0.878345
     14          8           0        5.455362    1.590738    0.068324
     15          6           0       -1.354393    1.089646   -0.655534
     16          6           0       -1.612889   -0.282466   -0.739244
     17          6           0       -2.895621   -0.779776   -0.490586
     18          6           0       -3.900812    0.127480   -0.159272
     19          6           0       -3.674666    1.499998   -0.067929
     20          6           0       -2.384290    1.974938   -0.320734
     21          1           0       -0.354967    1.467280   -0.850308
     22          1           0       -0.814993   -0.972327   -0.999046
     23          1           0       -3.123448   -1.837213   -0.548384
     24          1           0       -4.490438    2.163109    0.193253
     25          1           0       -2.186442    3.041043   -0.254989
     26          7           0       -5.262829   -0.387159    0.106166
     27          8           0       -6.131188    0.432884    0.396198
     28          8           0       -5.436227   -1.600831    0.019158
 ---------------------------------------------------------------------

 SCF Done:  E(RHF) =  -868.336877371     A.U. after   16 cycles
 E2 =    -0.2602047873D+01 EUMP2 =    -0.87093892524374D+03

 The electronic state is 1-A.
 Alpha  occ. eigenvalues --  -20.61507 -20.61501 -20.61356 -20.61348 -15.86567
 Alpha  occ. eigenvalues --  -15.86413 -11.32099 -11.31888 -11.28702 -11.28677
 Alpha  occ. eigenvalues --  -11.28498 -11.28450 -11.28420 -11.28167 -11.27724
 Alpha  occ. eigenvalues --  -11.27711 -11.27475 -11.27460  -1.60580  -1.60429
 Alpha  occ. eigenvalues --   -1.40128  -1.39979  -1.20309  -1.20073  -1.09691
 Alpha  occ. eigenvalues --   -1.09416  -1.05720  -1.05498  -0.96475  -0.96243
 Alpha  occ. eigenvalues --   -0.87102  -0.86877  -0.83312  -0.83058  -0.78303
 Alpha  occ. eigenvalues --   -0.78127  -0.72777  -0.72626  -0.71909  -0.71757
 Alpha  occ. eigenvalues --   -0.71410  -0.71137  -0.65941  -0.65745  -0.65697
 Alpha  occ. eigenvalues --   -0.65445  -0.63038  -0.62840  -0.56283  -0.55872
 Alpha  occ. eigenvalues --   -0.54180  -0.53827  -0.53708  -0.53464  -0.49550
 Alpha  occ. eigenvalues --   -0.49524  -0.49392  -0.49376  -0.45496  -0.45361
 Alpha  occ. eigenvalues --   -0.38589  -0.37876  -0.37297  -0.37029
 Alpha virt. eigenvalues --    0.04173   0.04383   0.10081   0.10629   0.15411
 Alpha virt. eigenvalues --    0.16032   0.20088   0.21344   0.25872   0.26765
 Alpha virt. eigenvalues --    0.27591   0.28016   0.30045   0.30737   0.31611

 Mulliken charges:
               1
     1  C   -0.178354
     2  C   -0.224813
     3  C   -0.173941
     4  C    0.159195
     5  C   -0.169249
     6  C   -0.222323
     7  H    0.231153
     8  H    0.227774
     9  H    0.277273
    10  H    0.278814
    11  H    0.226088
    12  N    0.487990
    13  O   -0.457699
    14  O   -0.458935
    15  C   -0.176045
    16  C   -0.226485
    17  C   -0.173512
    18  C    0.159181
    19  C   -0.169943
    20  C   -0.220209
    21  H    0.230852
    22  H    0.224394
    23  H    0.275218
    24  H    0.277889
    25  H    0.225828
    26  N    0.488033
    27  O   -0.458244
    28  O   -0.459931
 Sum of Mulliken charges =  -0.00000

 Dipole moment (field-independent basis, Debye):
    X=              0.2593    Y=             -0.0849    Z=              0.4628  Tot=              0.5373
 Quadrupole moment (field-independent basis, Debye-Ang):
   XX=           -177.7039   YY=            -95.7348   ZZ=           -104.4373
   XY=            -16.7383   XZ=              6.7914   YZ=              2.2227

 Normal termination of Gaussian 16 at Thu May  6 16:27:22 2021.
