 Gaussian 16, Revision A.03,
 Gaussian 16:  EM64L-G16RevA.03 25-Dec-2016

 -------------
 #p 6-31g* mp2
 -------------

 ------------------------------------------------------
 Input file generated by CHIRIPA (05-May-2021 14:57:26)
 ------------------------------------------------------
 Symbolic Z-matrix:
 Charge =  0 Multiplicity = 1

                         Standard orientation:
 ---------------------------------------------------------------------
 Center     Atomic      Atomic             Coordinates (Angstroms)
 Number     Number       Type             X           Y           Z
 ---------------------------------------------------------------------
      1          6           0       -5.072111   -1.985194    0.275175
      2          6           0       -4.063657   -2.030785   -0.693051
      3          6           0       -3.269926   -0.907802   -0.944944
      4          6           0       -3.513159    0.249459   -0.206786
      5          6           0       -4.510233    0.326139    0.764426
      6          6           0       -5.291794   -0.808951    0.999546
      7          1           0       -5.683973   -2.862256    0.464336
      8          1           0       -3.890796   -2.942914   -1.257129
      9          1           0       -2.482443   -0.915517   -1.688737
     10          1           0       -4.658811    1.249682    1.310697
     11          1           0       -6.074263   -0.770653    1.752089
     12          7           0       -2.679314    1.444719   -0.464576
     13          8           0       -2.913644    2.452205    0.199275
     14          8           0       -1.807205    1.351445   -1.325600
     15          6           0        6.019340   -0.700445   -0.414536
     16          6           0        5.109544   -0.392365   -1.431334
     17          6           0        3.794549   -0.032058   -1.122277
     18          6           0        3.421585    0.010179    0.220259
     19          6           0        4.304780   -0.291210    1.255836
     20          6           0        5.614769   -0.648975    0.923445
     21          1           0        7.038916   -0.979353   -0.663682
     22          1           0        5.420954   -0.431501   -2.471303
     23          1           0        3.069694    0.211351   -1.889580
     24          1           0        3.964998   -0.243384    2.283298
     25          1           0        6.319178   -0.887720    1.715186
     26          7           0        2.032108    0.390274    0.559796
     27          8           0        1.728309    0.420044    1.750366
     28          8           0        1.273148    0.651226   -0.371075
 ---------------------------------------------------------------------

 SCF Done:  E(RHF) =  -868.335887161     A.U. after   16 cycles
 E2 =    -0.2600225955D+01 EUMP2 =    -0.87093611311645D+03

 The electronic state is 1-A.
 Alpha  occ. eigenvalues --  -20.60111 -20.60035 -20.59475 -20.59354 -15.85124
 Alpha  occ. eigenvalues --  -15.84471 -11.30732 -11.30173 -11.27345 -11.27312
 Alpha  occ. eigenvalues --  -11.27130 -11.26799 -11.26783 -11.26636 -11.26411
 Alpha  occ. eigenvalues --  -11.26393 -11.25911 -11.25901  -1.59159  -1.58464
 Alpha  occ. eigenvalues --   -1.38701  -1.38014  -1.18933  -1.18386  -1.08286
 Alpha  occ. eigenvalues --   -1.07724  -1.04369  -1.03850  -0.95076  -0.94502
 Alpha  occ. eigenvalues --   -0.85756  -0.85233  -0.81902  -0.81340  -0.76913
 Alpha  occ. eigenvalues --   -0.76322  -0.71358  -0.70673  -0.70502  -0.70040
 Alpha  occ. eigenvalues --   -0.69754  -0.69515  -0.64575  -0.64376  -0.64042
 Alpha  occ. eigenvalues --   -0.63875  -0.61711  -0.61199  -0.54870  -0.54365
 Alpha  occ. eigenvalues --   -0.52691  -0.52464  -0.52150  -0.51960  -0.48137
 Alpha  occ. eigenvalues --   -0.48089  -0.47474  -0.47437  -0.44054  -0.43302
 Alpha  occ. eigenvalues --   -0.36933  -0.36387  -0.35986  -0.35466
 Alpha virt. eigenvalues --    0.05623   0.06247   0.11664   0.12186   0.17069
 Alpha virt. eigenvalues --    0.17657   0.21776   0.22212   0.27669   0.28089
 Alpha virt. eigenvalues --    0.28696   0.29148   0.31310   0.31720   0.32959

 Mulliken charges:
               1
     1  C   -0.172014
     2  C   -0.218896
     3  C   -0.168964
     4  C    0.162030
     5  C   -0.170637
     6  C   -0.218629
     7  H    0.221658
     8  H    0.219391
     9  H    0.275928
    10  H    0.274608
    11  H    0.220213
    12  N    0.490089
    13  O   -0.465068
    14  O   -0.449458
    15  C   -0.171646
    16  C   -0.218746
    17  C   -0.171793
    18  C    0.158455
    19  C   -0.171553
    20  C   -0.218658
    21  H    0.223855
    22  H    0.222276
    23  H    0.278062
    24  H    0.274722
    25  H    0.221743
    26  N    0.486879
    27  O   -0.464871
    28  O   -0.448977
 Sum of Mulliken charges =  -0.00000

 Dipole moment (field-independent basis, Debye):
    X=              2.0592    Y=             -5.3809    Z=             -0.4215  Tot=              5.7769
 Quadrupole moment (field-independent basis, Debye-Ang):
   XX=            -52.5761   YY=           -107.3239   ZZ=            -99.1235
   XY=              7.8240   XZ=             -6.7001   YZ=              2.1449

 Normal termination of Gaussian 16 at Fri May  7 08:09:42 2021.
