 Gaussian 16, Revision A.03,
 Gaussian 16:  EM64L-G16RevA.03 25-Dec-2016

 -------------
 #p 6-31g* mp2
 -------------

 ------------------------------------------------------
 Input file generated by CHIRIPA (05-May-2021 14:55:24)
 ------------------------------------------------------
 Symbolic Z-matrix:
 Charge =  0 Multiplicity = 1

                         Standard orientation:
 ---------------------------------------------------------------------
 Center     Atomic      Atomic             Coordinates (Angstroms)
 Number     Number       Type             X           Y           Z
 ---------------------------------------------------------------------
      1          6           0       -0.541328   -0.757202    0.830486
      2          6           0       -1.638414   -1.193675    1.580429
      3          6           0       -2.941904   -0.902411    1.167359
      4          6           0       -3.112509   -0.169238   -0.005945
      5          6           0       -2.039804    0.279621   -0.774787
      6          6           0       -0.745165   -0.023241   -0.342660
      7          1           0        0.467816   -0.987968    1.158771
      8          1           0       -1.483116   -1.763856    2.491924
      9          1           0       -3.809186   -1.227969    1.728831
     10          1           0       -2.226269    0.846144   -1.679055
     11          1           0        0.104964    0.317023   -0.927079
     12          7           0       -4.487770    0.145249   -0.453331
     13          8           0       -4.611347    0.792746   -1.490690
     14          8           0       -5.416082   -0.261708    0.241837
     15          6           0        3.721259   -0.323173   -0.550747
     16          6           0        4.424929   -1.530532    0.069833
     17          6           0        4.471696   -2.735263   -0.870502
     18          1           0        2.699011   -0.608498   -0.834551
     19          1           0        4.237335   -0.044418   -1.479915
     20          1           0        3.908512   -1.806069    0.998277
     21          1           0        5.445557   -1.242247    0.352368
     22          1           0        5.005162   -2.483576   -1.792820
     23          1           0        3.459384   -3.050602   -1.143240
     24          1           0        4.978998   -3.587020   -0.406805
     25          6           0        3.666516    0.889113    0.377205
     26          6           0        2.962846    2.096470   -0.243374
     27          6           0        2.916078    3.301202    0.696961
     28          1           0        3.150440    0.610356    1.306374
     29          1           0        4.688763    1.174437    0.661010
     30          1           0        1.942217    1.808185   -0.525909
     31          1           0        3.479262    2.372008   -1.171819
     32          1           0        3.928390    3.616540    0.969699
     33          1           0        2.382613    3.049514    1.619278
     34          1           0        2.408776    4.152959    0.233264
 ---------------------------------------------------------------------

 SCF Done:  E(RHF) =  -669.535299200     A.U. after   15 cycles
 E2 =    -0.2092242779D+01 EUMP2 =    -0.67162754197948D+03

 The electronic state is 1-A.
 Alpha  occ. eigenvalues --  -20.60763 -20.60758 -15.85816 -11.31191 -11.27765
 Alpha  occ. eigenvalues --  -11.27757 -11.27508 -11.26779 -11.26749 -11.22640
 Alpha  occ. eigenvalues --  -11.22608 -11.22534 -11.22451 -11.21890 -11.21841
 Alpha  occ. eigenvalues --   -1.59838  -1.39391  -1.19365  -1.09498  -1.08758
 Alpha  occ. eigenvalues --   -1.04771  -1.04476  -0.96905  -0.95592  -0.87914
 Alpha  occ. eigenvalues --   -0.86173  -0.82425  -0.80552  -0.79327  -0.77469
 Alpha  occ. eigenvalues --   -0.72035  -0.71161  -0.70485  -0.66226  -0.65013
 Alpha  occ. eigenvalues --   -0.64725  -0.62174  -0.61822  -0.60268  -0.58520
 Alpha  occ. eigenvalues --   -0.56209  -0.55261  -0.53562  -0.53318  -0.53095
 Alpha  occ. eigenvalues --   -0.52881  -0.50848  -0.48867  -0.48789  -0.48784
 Alpha  occ. eigenvalues --   -0.47600  -0.46820  -0.46778  -0.44795  -0.44760
 Alpha  occ. eigenvalues --   -0.37345  -0.36367
 Alpha virt. eigenvalues --    0.05064   0.11182   0.16530   0.17728   0.22579
 Alpha virt. eigenvalues --    0.23491   0.24486   0.25187   0.26891   0.28358
 Alpha virt. eigenvalues --    0.29799   0.30842   0.31020   0.31323   0.32045

 Mulliken charges:
               1
     1  C   -0.174877
     2  C   -0.218664
     3  C   -0.170791
     4  C    0.158820
     5  C   -0.171632
     6  C   -0.224793
     7  H    0.227779
     8  H    0.223493
     9  H    0.275666
    10  H    0.276041
    11  H    0.231596
    12  N    0.487973
    13  O   -0.460300
    14  O   -0.460417
    15  C   -0.302031
    16  C   -0.299822
    17  C   -0.476346
    18  H    0.141720
    19  H    0.155002
    20  H    0.147655
    21  H    0.156358
    22  H    0.158075
    23  H    0.154728
    24  H    0.163270
    25  C   -0.299779
    26  C   -0.303767
    27  C   -0.475754
    28  H    0.145375
    29  H    0.155376
    30  H    0.145923
    31  H    0.155951
    32  H    0.157949
    33  H    0.156305
    34  H    0.163916
 Sum of Mulliken charges =  -0.00000

 Dipole moment (field-independent basis, Debye):
    X=              5.0699    Y=             -1.0505    Z=              1.5664  Tot=              5.4094
 Quadrupole moment (field-independent basis, Debye-Ang):
   XX=           -122.8625   YY=            -94.1814   ZZ=            -92.0554
   XY=              4.2034   XZ=             -7.0502   YZ=             -3.1084

 Normal termination of Gaussian 16 at Thu May  6 19:20:42 2021.
