 Gaussian 16, Revision A.03,
 Gaussian 16:  EM64L-G16RevA.03 25-Dec-2016

 -------------
 #p 6-31g* mp2
 -------------

 ------------------------------------------------------
 Input file generated by CHIRIPA (05-May-2021 14:51:08)
 ------------------------------------------------------
 Symbolic Z-matrix:
 Charge =  0 Multiplicity = 1

                         Standard orientation:
 ---------------------------------------------------------------------
 Center     Atomic      Atomic             Coordinates (Angstroms)
 Number     Number       Type             X           Y           Z
 ---------------------------------------------------------------------
      1          6           0       -4.100843    0.810675    0.037393
      2          6           0       -2.664905    0.838079   -0.487311
      3          6           0       -1.969205    2.176265   -0.236207
      4          1           0       -4.673783    1.618374   -0.438325
      5          1           0       -4.094184    1.024990    1.115085
      6          1           0       -2.674148    0.622409   -1.563423
      7          1           0       -2.095368    0.030100   -0.010431
      8          1           0       -1.930468    2.395132    0.835799
      9          1           0       -2.512536    2.990807   -0.726016
     10          1           0       -0.943951    2.173832   -0.619233
     11          6           0       -4.809546   -0.520539   -0.206206
     12          6           0       -6.245484   -0.547943    0.318499
     13          6           0       -6.941184   -1.886129    0.067395
     14          1           0       -4.816206   -0.734854   -1.283897
     15          1           0       -4.236606   -1.328238    0.269513
     16          1           0       -6.815021    0.260036   -0.158381
     17          1           0       -6.236241   -0.332273    1.394611
     18          1           0       -6.397853   -2.700671    0.557204
     19          1           0       -6.979922   -2.104996   -1.004612
     20          1           0       -7.966438   -1.883696    0.450421
     21          6           0        3.729497   -0.247249   -0.130894
     22          6           0        2.738622    0.620205    0.646072
     23          6           0        1.290925    0.404524    0.203975
     24          1           0        3.635738   -0.028795   -1.203477
     25          1           0        3.459590   -1.304633   -0.002505
     26          1           0        3.011140    1.675567    0.517383
     27          1           0        2.834884    0.399800    1.716946
     28          1           0        0.995512   -0.639726    0.348454
     29          1           0        1.172769    0.643290   -0.857925
     30          1           0        0.599511    1.034441    0.772316
     31          6           0        5.180892   -0.042888    0.299706
     32          6           0        6.171767   -0.910341   -0.477260
     33          6           0        7.619464   -0.694660   -0.035163
     34          1           0        5.450799    1.014496    0.171317
     35          1           0        5.274650   -0.261340    1.372289
     36          1           0        6.075504   -0.689936   -1.548134
     37          1           0        5.899249   -1.965702   -0.348570
     38          1           0        7.737620   -0.933426    1.026737
     39          1           0        7.914878    0.349590   -0.179642
     40          1           0        8.310878   -1.324577   -0.603504
 ---------------------------------------------------------------------

 SCF Done:  E(RHF) =  -470.732326190     A.U. after   11 cycles
 E2 =    -0.1582978298D+01 EUMP2 =    -0.47231530448835D+03

 The electronic state is 1-A.
 Alpha  occ. eigenvalues --  -11.21601 -11.21593 -11.21568 -11.21499 -11.21403
 Alpha  occ. eigenvalues --  -11.21350 -11.21344 -11.21288 -11.21071 -11.21046
 Alpha  occ. eigenvalues --  -11.21028 -11.20913  -1.08433  -1.08367  -1.03561
 Alpha  occ. eigenvalues --   -1.03436  -0.96063  -0.95843  -0.87095  -0.86849
 Alpha  occ. eigenvalues --   -0.79606  -0.79523  -0.78246  -0.78178  -0.65063
 Alpha  occ. eigenvalues --   -0.65006  -0.60948  -0.60901  -0.59635  -0.59057
 Alpha  occ. eigenvalues --   -0.57642  -0.57472  -0.55277  -0.55219  -0.52970
 Alpha  occ. eigenvalues --   -0.52458  -0.52387  -0.52130  -0.49931  -0.49839
 Alpha  occ. eigenvalues --   -0.47926  -0.47824  -0.46639  -0.46541  -0.45794
 Alpha  occ. eigenvalues --   -0.45729  -0.45698  -0.45638  -0.43880  -0.43568
 Alpha virt. eigenvalues --    0.22066   0.23009   0.23559   0.25028   0.26369
 Alpha virt. eigenvalues --    0.26624   0.26973   0.27462   0.27719   0.28998
 Alpha virt. eigenvalues --    0.30071   0.30993   0.31566   0.32163   0.32222

 Mulliken charges:
               1
     1  C   -0.298111
     2  C   -0.301269
     3  C   -0.480404
     4  H    0.149447
     5  H    0.149166
     6  H    0.151340
     7  H    0.155053
     8  H    0.152877
     9  H    0.154227
    10  H    0.166796
    11  C   -0.298185
    12  C   -0.299587
    13  C   -0.475661
    14  H    0.149419
    15  H    0.149474
    16  H    0.151874
    17  H    0.151810
    18  H    0.155083
    19  H    0.155129
    20  H    0.160120
    21  C   -0.298598
    22  C   -0.300313
    23  C   -0.479706
    24  H    0.149631
    25  H    0.149466
    26  H    0.151929
    27  H    0.151763
    28  H    0.154602
    29  H    0.154879
    30  H    0.167729
    31  C   -0.298241
    32  C   -0.299614
    33  C   -0.475697
    34  H    0.149529
    35  H    0.149609
    36  H    0.151928
    37  H    0.151903
    38  H    0.155163
    39  H    0.155190
    40  H    0.160248
 Sum of Mulliken charges =  -0.00000

 Dipole moment (field-independent basis, Debye):
    X=              0.0332    Y=             -0.0046    Z=              0.0013  Tot=              0.0335
 Quadrupole moment (field-independent basis, Debye-Ang):
   XX=            -86.5544   YY=            -85.0148   ZZ=            -83.5287
   XY=             -0.5832   XZ=             -0.0563   YZ=             -0.9626

 Normal termination of Gaussian 16 at Wed May  5 18:05:47 2021.
