 Gaussian 16, Revision A.03,
 Gaussian 16:  EM64L-G16RevA.03 25-Dec-2016

 -------------
 #p 6-31g* mp2
 -------------

 ------------------------------------------------------
 Input file generated by CHIRIPA (05-May-2021 14:51:13)
 ------------------------------------------------------
 Symbolic Z-matrix:
 Charge =  0 Multiplicity = 1

                         Standard orientation:
 ---------------------------------------------------------------------
 Center     Atomic      Atomic             Coordinates (Angstroms)
 Number     Number       Type             X           Y           Z
 ---------------------------------------------------------------------
      1          6           0        2.397340   -0.461231   -0.645002
      2          6           0        3.059665    0.882816   -0.949710
      3          6           0        3.418600    1.043485   -2.427257
      4          1           0        3.071952   -1.272804   -0.950275
      5          1           0        1.490147   -0.562104   -1.256739
      6          1           0        3.964588    0.981722   -0.336565
      7          1           0        2.383477    1.691284   -0.643500
      8          1           0        2.522156    0.971052   -3.051551
      9          1           0        4.112250    0.257459   -2.742872
     10          1           0        3.890865    2.011273   -2.622735
     11          6           0        2.032615   -0.636743    0.828056
     12          6           0        1.370290   -1.980791    1.132764
     13          6           0        1.011355   -2.141460    2.610311
     14          1           0        2.939807   -0.535871    1.439793
     15          1           0        1.358002    0.174830    1.133329
     16          1           0        2.046478   -2.789259    0.826553
     17          1           0        0.465366   -2.079697    0.519618
     18          1           0        0.317704   -1.355433    2.925925
     19          1           0        1.907799   -2.069027    3.234604
     20          1           0        0.539089   -3.109248    2.805789
     21          6           0       -2.471355   -0.165233   -0.178659
     22          6           0       -2.853772   -0.500525   -1.620644
     23          6           0       -3.364841   -1.932850   -1.778906
     24          1           0       -1.701634   -0.870592    0.163306
     25          1           0       -3.345167   -0.317508    0.469926
     26          1           0       -1.979881   -0.346334   -2.266522
     27          1           0       -3.622536    0.205835   -1.959279
     28          1           0       -4.251884   -2.096144   -1.158349
     29          1           0       -2.599898   -2.651450   -1.467337
     30          1           0       -3.632475   -2.151162   -2.817449
     31          6           0       -1.958599    1.263207   -0.004395
     32          6           0       -1.576183    1.598499    1.437591
     33          6           0       -1.065114    3.030824    1.595852
     34          1           0       -1.084787    1.415482   -0.652979
     35          1           0       -2.728321    1.968567   -0.346359
     36          1           0       -0.807419    0.892140    1.776226
     37          1           0       -2.450073    1.444308    2.083468
     38          1           0       -1.830058    3.749424    1.284283
     39          1           0       -0.178070    3.194118    0.975295
     40          1           0       -0.797479    3.249135    2.634396
 ---------------------------------------------------------------------

 SCF Done:  E(RHF) =  -470.732930523     A.U. after   11 cycles
 E2 =    -0.1585235816D+01 EUMP2 =    -0.47231816633961D+03

 The electronic state is 1-A.
 Alpha  occ. eigenvalues --  -11.21671 -11.21665 -11.21663 -11.21660 -11.21473
 Alpha  occ. eigenvalues --  -11.21466 -11.21409 -11.21401 -11.21141 -11.21120
 Alpha  occ. eigenvalues --  -11.21115 -11.21113  -1.08559  -1.08444  -1.03607
 Alpha  occ. eigenvalues --   -1.03582  -0.96041  -0.96034  -0.87057  -0.87052
 Alpha  occ. eigenvalues --   -0.79726  -0.79595  -0.78339  -0.78296  -0.65611
 Alpha  occ. eigenvalues --   -0.64701  -0.61061  -0.60941  -0.59452  -0.59358
 Alpha  occ. eigenvalues --   -0.57659  -0.57638  -0.55345  -0.55314  -0.52731
 Alpha  occ. eigenvalues --   -0.52727  -0.52476  -0.52451  -0.50006  -0.49989
 Alpha  occ. eigenvalues --   -0.48057  -0.47983  -0.46989  -0.46485  -0.46130
 Alpha  occ. eigenvalues --   -0.45786  -0.45650  -0.45423  -0.43849  -0.43839
 Alpha virt. eigenvalues --    0.18137   0.21939   0.22653   0.24347   0.25555
 Alpha virt. eigenvalues --    0.26919   0.27085   0.27939   0.28532   0.29556
 Alpha virt. eigenvalues --    0.30662   0.31564   0.31606   0.31963   0.32336

 Mulliken charges:
               1
     1  C   -0.298575
     2  C   -0.300706
     3  C   -0.475692
     4  H    0.150147
     5  H    0.149290
     6  H    0.152494
     7  H    0.151917
     8  H    0.155061
     9  H    0.155457
    10  H    0.160600
    11  C   -0.305487
    12  C   -0.304016
    13  C   -0.478895
    14  H    0.150158
    15  H    0.156480
    16  H    0.152758
    17  H    0.154794
    18  H    0.157805
    19  H    0.155607
    20  H    0.160731
    21  C   -0.305464
    22  C   -0.299655
    23  C   -0.475822
    24  H    0.156245
    25  H    0.150073
    26  H    0.151459
    27  H    0.152342
    28  H    0.155465
    29  H    0.155054
    30  H    0.160559
    31  C   -0.299029
    32  C   -0.308271
    33  C   -0.476584
    34  H    0.149724
    35  H    0.150390
    36  H    0.158800
    37  H    0.152808
    38  H    0.155814
    39  H    0.155358
    40  H    0.160810
 Sum of Mulliken charges =  -0.00000

 Dipole moment (field-independent basis, Debye):
    X=             -0.0014    Y=             -0.0003    Z=              0.0150  Tot=              0.0150
 Quadrupole moment (field-independent basis, Debye-Ang):
   XX=            -83.1312   YY=            -85.5627   ZZ=            -85.8278
   XY=             -1.1839   XZ=              0.2166   YZ=             -0.0153

 Normal termination of Gaussian 16 at Wed May  5 21:35:20 2021.
