 Gaussian 16, Revision A.03,
 Gaussian 16:  EM64L-G16RevA.03 25-Dec-2016

 -------------
 #p 6-31g* mp2
 -------------

 ------------------------------------------------------
 Input file generated by CHIRIPA (05-May-2021 14:55:21)
 ------------------------------------------------------
 Symbolic Z-matrix:
 Charge =  0 Multiplicity = 1

                         Standard orientation:
 ---------------------------------------------------------------------
 Center     Atomic      Atomic             Coordinates (Angstroms)
 Number     Number       Type             X           Y           Z
 ---------------------------------------------------------------------
      1          6           0        1.346320    1.982862    1.162167
      2          6           0        0.804535    0.697456    1.265710
      3          6           0        1.478271   -0.402561    0.726647
      4          6           0        2.697145   -0.179874    0.087862
      5          6           0        3.262819    1.088617   -0.031437
      6          6           0        2.571573    2.174003    0.515065
      7          1           0        0.816145    2.831699    1.583814
      8          1           0       -0.146839    0.546031    1.767709
      9          1           0        1.081675   -1.408436    0.792569
     10          1           0        4.213024    1.208137   -0.537641
     11          1           0        2.994725    3.171139    0.433160
     12          7           0        3.419668   -1.336669   -0.486758
     13          8           0        4.491954   -1.113948   -1.044642
     14          8           0        2.900014   -2.444181   -0.368379
     15          6           0       -3.773180   -0.562863    0.007118
     16          6           0       -3.137847   -1.953668    0.007911
     17          6           0       -4.097021   -3.041462    0.492147
     18          1           0       -4.118466   -0.323869    1.022305
     19          1           0       -4.666899   -0.576009   -0.632014
     20          1           0       -2.244810   -1.937545    0.645752
     21          1           0       -2.793861   -2.189300   -1.007356
     22          1           0       -4.983456   -3.086634   -0.148786
     23          1           0       -4.431284   -2.833449    1.513713
     24          1           0       -3.622360   -4.027617    0.484678
     25          6           0       -2.826665    0.535268   -0.474487
     26          6           0       -3.461997    1.926072   -0.475280
     27          6           0       -2.502824    3.013867   -0.959516
     28          1           0       -1.932946    0.548413    0.164645
     29          1           0       -2.481378    0.296275   -1.489674
     30          1           0       -3.805984    2.161704    0.539986
     31          1           0       -4.355035    1.909950   -1.113120
     32          1           0       -2.168560    2.805853   -1.981082
     33          1           0       -1.616389    3.059039   -0.318583
     34          1           0       -2.977485    4.000021   -0.952048
 ---------------------------------------------------------------------

 SCF Done:  E(RHF) =  -669.535101689     A.U. after   15 cycles
 E2 =    -0.2092689359D+01 EUMP2 =    -0.67162779104723D+03

 The electronic state is 1-A.
 Alpha  occ. eigenvalues --  -20.60781 -20.60776 -15.85835 -11.31222 -11.27790
 Alpha  occ. eigenvalues --  -11.27786 -11.27548 -11.26815 -11.26805 -11.22214
 Alpha  occ. eigenvalues --  -11.22100 -11.21960 -11.21885 -11.21720 -11.21411
 Alpha  occ. eigenvalues --   -1.59856  -1.39409  -1.19399  -1.08996  -1.08789
 Alpha  occ. eigenvalues --   -1.04806  -1.04061  -0.96504  -0.95621  -0.87519
 Alpha  occ. eigenvalues --   -0.86207  -0.82456  -0.80126  -0.78812  -0.77489
 Alpha  occ. eigenvalues --   -0.72054  -0.71178  -0.70505  -0.65715  -0.65053
 Alpha  occ. eigenvalues --   -0.64773  -0.62154  -0.61467  -0.59865  -0.58107
 Alpha  occ. eigenvalues --   -0.55842  -0.55282  -0.53203  -0.53126  -0.53010
 Alpha  occ. eigenvalues --   -0.52810  -0.50450  -0.48817  -0.48806  -0.48433
 Alpha  occ. eigenvalues --   -0.47175  -0.46328  -0.46264  -0.44809  -0.44315
 Alpha  occ. eigenvalues --   -0.37357  -0.36362
 Alpha virt. eigenvalues --    0.05007   0.11133   0.16358   0.19295   0.22919
 Alpha virt. eigenvalues --    0.23275   0.25173   0.26397   0.26717   0.27932
 Alpha virt. eigenvalues --    0.29874   0.30921   0.31222   0.31342   0.31620

 Mulliken charges:
               1
     1  C   -0.171877
     2  C   -0.215683
     3  C   -0.171582
     4  C    0.158681
     5  C   -0.170502
     6  C   -0.218659
     7  H    0.226172
     8  H    0.223603
     9  H    0.276625
    10  H    0.275829
    11  H    0.223897
    12  N    0.488059
    13  O   -0.460365
    14  O   -0.460127
    15  C   -0.298952
    16  C   -0.298342
    17  C   -0.476253
    18  H    0.147579
    19  H    0.152496
    20  H    0.143173
    21  H    0.157024
    22  H    0.157032
    23  H    0.154420
    24  H    0.163769
    25  C   -0.302498
    26  C   -0.300199
    27  C   -0.475264
    28  H    0.144957
    29  H    0.154345
    30  H    0.149437
    31  H    0.155196
    32  H    0.159298
    33  H    0.147617
    34  H    0.161094
 Sum of Mulliken charges =  -0.00000

 Dipole moment (field-independent basis, Debye):
    X=             -2.5869    Y=              4.0190    Z=              1.9163  Tot=              5.1494
 Quadrupole moment (field-independent basis, Debye-Ang):
   XX=           -106.0106   YY=            -95.4107   ZZ=            -93.7691
   XY=             13.9196   XZ=              4.7795   YZ=             -0.6371

 Normal termination of Gaussian 16 at Thu May  6 20:46:34 2021.
