 Gaussian 16, Revision A.03,
 Gaussian 16:  EM64L-G16RevA.03 25-Dec-2016

 -------------
 #p 6-31g* mp2
 -------------

 ------------------------------------------------------
 Input file generated by CHIRIPA (05-May-2021 14:55:24)
 ------------------------------------------------------
 Symbolic Z-matrix:
 Charge =  0 Multiplicity = 1

                         Standard orientation:
 ---------------------------------------------------------------------
 Center     Atomic      Atomic             Coordinates (Angstroms)
 Number     Number       Type             X           Y           Z
 ---------------------------------------------------------------------
      1          6           0       -1.137594    1.871954   -1.394175
      2          6           0       -0.843888    0.549923   -1.744162
      3          6           0       -1.597319   -0.506472   -1.223662
      4          6           0       -2.642051   -0.203290   -0.351937
      5          6           0       -2.959293    1.103389    0.015808
      6          6           0       -2.192499    2.143989   -0.516853
      7          1           0       -0.547120    2.686452   -1.803235
      8          1           0       -0.025217    0.335684   -2.425282
      9          1           0       -1.391662   -1.539203   -1.477807
     10          1           0       -3.781521    1.285623    0.697094
     11          1           0       -2.422871    3.169725   -0.243287
     12          7           0       -3.446747   -1.313287    0.205531
     13          8           0       -4.361977   -1.019732    0.971571
     14          8           0       -3.147002   -2.455839   -0.134122
     15          6           0        2.688917   -0.055995    1.118552
     16          6           0        1.636891    1.053589    1.125499
     17          6           0        0.597232    0.875558    2.232389
     18          1           0        2.188088   -1.026651    1.000477
     19          1           0        3.192173   -0.080671    2.095035
     20          1           0        1.136724    1.077071    0.148822
     21          1           0        2.140298    2.021732    1.243378
     22          1           0        1.078106    0.873932    3.215934
     23          1           0        0.068829   -0.076098    2.115158
     24          1           0       -0.145111    1.679678    2.219027
     25          6           0        3.735215    0.108088    0.017613
     26          6           0        4.787241   -1.001496    0.010665
     27          6           0        5.826901   -0.823465   -1.096226
     28          1           0        3.231960    0.132764   -0.958872
     29          1           0        4.236044    1.078745    0.135687
     30          1           0        4.283834   -1.969639   -0.107214
     31          1           0        5.287407   -1.024978    0.987341
     32          1           0        6.355303    0.128191   -0.978994
     33          1           0        5.346027   -0.821838   -2.079770
     34          1           0        6.569243   -1.627585   -1.082863
 ---------------------------------------------------------------------

 SCF Done:  E(RHF) =  -669.534357481     A.U. after   15 cycles
 E2 =    -0.2094329725D+01 EUMP2 =    -0.67162868720573D+03

 The electronic state is 1-A.
 Alpha  occ. eigenvalues --  -20.60838 -20.60833 -15.85895 -11.31294 -11.27875
 Alpha  occ. eigenvalues --  -11.27872 -11.27605 -11.26885 -11.26869 -11.21926
 Alpha  occ. eigenvalues --  -11.21795 -11.21706 -11.21606 -11.21407 -11.21154
 Alpha  occ. eigenvalues --   -1.59914  -1.39466  -1.19482  -1.08888  -1.08709
 Alpha  occ. eigenvalues --   -1.04891  -1.03773  -0.96231  -0.95694  -0.87245
 Alpha  occ. eigenvalues --   -0.86287  -0.82523  -0.79855  -0.78556  -0.77563
 Alpha  occ. eigenvalues --   -0.72112  -0.71239  -0.70578  -0.65393  -0.65130
 Alpha  occ. eigenvalues --   -0.64881  -0.62231  -0.61221  -0.59625  -0.57871
 Alpha  occ. eigenvalues --   -0.55584  -0.55379  -0.53228  -0.52976  -0.52771
 Alpha  occ. eigenvalues --   -0.52653  -0.50184  -0.48874  -0.48864  -0.48170
 Alpha  occ. eigenvalues --   -0.46918  -0.46091  -0.46037  -0.44865  -0.44052
 Alpha  occ. eigenvalues --   -0.37338  -0.36423
 Alpha virt. eigenvalues --    0.04956   0.11059   0.16394   0.20762   0.22755
 Alpha virt. eigenvalues --    0.24020   0.25707   0.26758   0.27416   0.28124
 Alpha virt. eigenvalues --    0.28603   0.30787   0.31215   0.31625   0.31803

 Mulliken charges:
               1
     1  C   -0.168691
     2  C   -0.221097
     3  C   -0.170492
     4  C    0.159642
     5  C   -0.169487
     6  C   -0.217504
     7  H    0.227343
     8  H    0.224732
     9  H    0.275965
    10  H    0.276325
    11  H    0.224188
    12  N    0.487762
    13  O   -0.459846
    14  O   -0.460402
    15  C   -0.298265
    16  C   -0.306407
    17  C   -0.474361
    18  H    0.150617
    19  H    0.151092
    20  H    0.156448
    21  H    0.147191
    22  H    0.155193
    23  H    0.157411
    24  H    0.157031
    25  C   -0.296472
    26  C   -0.299926
    27  C   -0.475560
    28  H    0.141075
    29  H    0.149500
    30  H    0.152915
    31  H    0.153972
    32  H    0.155219
    33  H    0.152898
    34  H    0.161992
 Sum of Mulliken charges =  -0.00000

 Dipole moment (field-independent basis, Debye):
    X=              2.7281    Y=              3.8978    Z=             -1.9776  Tot=              5.1523
 Quadrupole moment (field-independent basis, Debye-Ang):
   XX=           -108.9913   YY=            -94.2331   ZZ=            -92.8731
   XY=            -13.0318   XZ=              3.6631   YZ=              1.1041

 Normal termination of Gaussian 16 at Thu May  6 14:22:11 2021.
