 Gaussian 16, Revision A.03,
 Gaussian 16:  EM64L-G16RevA.03 25-Dec-2016

 -------------
 #p 6-31g* mp2
 -------------

 ------------------------------------------------------
 Input file generated by CHIRIPA (05-May-2021 14:55:19)
 ------------------------------------------------------
 Symbolic Z-matrix:
 Charge =  0 Multiplicity = 1

                         Standard orientation:
 ---------------------------------------------------------------------
 Center     Atomic      Atomic             Coordinates (Angstroms)
 Number     Number       Type             X           Y           Z
 ---------------------------------------------------------------------
      1          6           0       -3.487304    1.562386    1.497140
      2          6           0       -2.101307    1.514495    1.314824
      3          6           0       -1.533613    0.598969    0.423710
      4          6           0       -2.385408   -0.257767   -0.271803
      5          6           0       -3.770032   -0.234357   -0.111933
      6          6           0       -4.315783    0.689346    0.784436
      7          1           0       -3.919780    2.276764    2.191420
      8          1           0       -1.455462    2.191298    1.866971
      9          1           0       -0.463903    0.540449    0.263353
     10          1           0       -4.388151   -0.921790   -0.676541
     11          1           0       -5.392510    0.724290    0.924011
     12          7           0       -1.796031   -1.231321   -1.217967
     13          8           0       -2.568153   -1.975332   -1.818726
     14          8           0       -0.573114   -1.231948   -1.340895
     15          6           0        2.988838    0.864629    0.157187
     16          6           0        3.440545    1.620709   -1.092729
     17          6           0        3.055525    3.100063   -1.060171
     18          1           0        1.899281    0.959203    0.261437
     19          1           0        3.430127    1.339880    1.044201
     20          1           0        2.999648    1.143332   -1.977227
     21          1           0        4.529129    1.524163   -1.194122
     22          1           0        3.507547    3.596840   -0.195594
     23          1           0        1.969376    3.213845   -0.983150
     24          1           0        3.388069    3.621420   -1.963201
     25          6           0        3.366476   -0.615507    0.139424
     26          6           0        2.914769   -1.371586    1.389340
     27          6           0        3.299788   -2.850942    1.356781
     28          1           0        2.925187   -1.090757   -0.747591
     29          1           0        4.456032   -0.710080    0.035174
     30          1           0        1.826185   -1.275041    1.490733
     31          1           0        3.355666   -0.894210    2.273838
     32          1           0        4.385938   -2.964724    1.279760
     33          1           0        2.847766   -3.347717    0.492205
     34          1           0        2.967244   -3.372298    2.259812
 ---------------------------------------------------------------------

 SCF Done:  E(RHF) =  -669.535880195     A.U. after   15 cycles
 E2 =    -0.2091963140D+01 EUMP2 =    -0.67162784333421D+03

 The electronic state is 1-A.
 Alpha  occ. eigenvalues --  -20.60873 -20.60864 -15.85917 -11.31239 -11.27803
 Alpha  occ. eigenvalues --  -11.27791 -11.27540 -11.26815 -11.26800 -11.21467
 Alpha  occ. eigenvalues --  -11.21386 -11.21279 -11.21103 -11.20966 -11.20619
 Alpha  occ. eigenvalues --   -1.59940  -1.39495  -1.19409  -1.08812  -1.08213
 Alpha  occ. eigenvalues --   -1.04807  -1.03299  -0.95768  -0.95652  -0.86779
 Alpha  occ. eigenvalues --   -0.86209  -0.82487  -0.79384  -0.78052  -0.77533
 Alpha  occ. eigenvalues --   -0.72141  -0.71258  -0.70527  -0.65067  -0.64966
 Alpha  occ. eigenvalues --   -0.64680  -0.62153  -0.60677  -0.59145  -0.57382
 Alpha  occ. eigenvalues --   -0.55329  -0.55035  -0.53137  -0.52910  -0.52455
 Alpha  occ. eigenvalues --   -0.52192  -0.49687  -0.48896  -0.48890  -0.47706
 Alpha  occ. eigenvalues --   -0.46410  -0.45601  -0.45427  -0.44905  -0.43567
 Alpha  occ. eigenvalues --   -0.37389  -0.36407
 Alpha virt. eigenvalues --    0.04977   0.11223   0.16490   0.19574   0.22971
 Alpha virt. eigenvalues --    0.24505   0.25090   0.27405   0.27778   0.28145
 Alpha virt. eigenvalues --    0.29697   0.31344   0.31590   0.31963   0.32291

 Mulliken charges:
               1
     1  C   -0.170412
     2  C   -0.223454
     3  C   -0.183374
     4  C    0.157384
     5  C   -0.169540
     6  C   -0.219129
     7  H    0.225963
     8  H    0.224468
     9  H    0.294368
    10  H    0.275732
    11  H    0.223696
    12  N    0.486917
    13  O   -0.459409
    14  O   -0.463008
    15  C   -0.300469
    16  C   -0.300723
    17  C   -0.475169
    18  H    0.141148
    19  H    0.146906
    20  H    0.160342
    21  H    0.152704
    22  H    0.153096
    23  H    0.150329
    24  H    0.161829
    25  C   -0.300745
    26  C   -0.298842
    27  C   -0.477002
    28  H    0.165763
    29  H    0.148076
    30  H    0.150597
    31  H    0.147081
    32  H    0.153327
    33  H    0.163631
    34  H    0.157918
 Sum of Mulliken charges =  -0.00000

 Dipole moment (field-independent basis, Debye):
    X=             -2.0817    Y=              3.3064    Z=              3.1846  Tot=              5.0406
 Quadrupole moment (field-independent basis, Debye-Ang):
   XX=            -79.7575   YY=            -97.7903   ZZ=            -96.9448
   XY=             -5.8388   XZ=             -6.5495   YZ=             -0.9229

 Normal termination of Gaussian 16 at Thu May  6 07:39:12 2021.
