 Gaussian 16, Revision A.03,
 Gaussian 16:  EM64L-G16RevA.03 25-Dec-2016

 -------------
 #p 6-31g* mp2
 -------------

 ------------------------------------------------------
 Input file generated by CHIRIPA (05-May-2021 14:57:23)
 ------------------------------------------------------
 Symbolic Z-matrix:
 Charge =  0 Multiplicity = 1

                         Standard orientation:
 ---------------------------------------------------------------------
 Center     Atomic      Atomic             Coordinates (Angstroms)
 Number     Number       Type             X           Y           Z
 ---------------------------------------------------------------------
      1          6           0        4.163515    2.227038   -0.139009
      2          6           0        4.690666    1.101581   -0.780866
      3          6           0        4.112369   -0.157635   -0.595136
      4          6           0        3.002819   -0.255518    0.243081
      5          6           0        2.454531    0.847055    0.896536
      6          6           0        3.049095    2.096413    0.696171
      7          1           0        4.619068    3.201398   -0.288973
      8          1           0        5.556067    1.200042   -1.430042
      9          1           0        4.500111   -1.045469   -1.079724
     10          1           0        1.591101    0.717462    1.537716
     11          1           0        2.637568    2.968724    1.195936
     12          7           0        2.381992   -1.583375    0.447452
     13          8           0        1.405115   -1.643065    1.190947
     14          8           0        2.884020   -2.539318   -0.139727
     15          6           0       -5.412979    0.920340    0.299453
     16          6           0       -5.182929   -0.458995    0.267297
     17          6           0       -3.908255   -0.959861   -0.013570
     18          6           0       -2.882025   -0.048760   -0.258592
     19          6           0       -3.079655    1.330958   -0.233769
     20          6           0       -4.362459    1.809347    0.049259
     21          1           0       -6.406334    1.300695    0.518476
     22          1           0       -5.996886   -1.151755    0.461208
     23          1           0       -3.702298   -2.022886   -0.044829
     24          1           0       -2.248351    1.996816   -0.431212
     25          1           0       -4.538198    2.881060    0.073564
     26          7           0       -1.528282   -0.567106   -0.557077
     27          8           0       -0.640981    0.256445   -0.769444
     28          8           0       -1.380150   -1.787123   -0.573011
 ---------------------------------------------------------------------

 SCF Done:  E(RHF) =  -868.337085225     A.U. after   16 cycles
 E2 =    -0.2601534527D+01 EUMP2 =    -0.87093861975257D+03

 The electronic state is 1-A.
 Alpha  occ. eigenvalues --  -20.60382 -20.60244 -20.59250 -20.59182 -15.85345
 Alpha  occ. eigenvalues --  -15.84279 -11.30919 -11.29849 -11.27553 -11.27464
 Alpha  occ. eigenvalues --  -11.27288 -11.26597 -11.26539 -11.26526 -11.26482
 Alpha  occ. eigenvalues --  -11.26375 -11.25618 -11.25603  -1.59352  -1.58249
 Alpha  occ. eigenvalues --   -1.38913  -1.37816  -1.19106  -1.18078  -1.08463
 Alpha  occ. eigenvalues --   -1.07445  -1.04542  -1.03550  -0.95270  -0.94246
 Alpha  occ. eigenvalues --   -0.85931  -0.84942  -0.82104  -0.81112  -0.77120
 Alpha  occ. eigenvalues --   -0.76098  -0.71585  -0.70800  -0.70438  -0.70219
 Alpha  occ. eigenvalues --   -0.69490  -0.69255  -0.64760  -0.64549  -0.63766
 Alpha  occ. eigenvalues --   -0.63605  -0.61890  -0.60917  -0.55037  -0.54104
 Alpha  occ. eigenvalues --   -0.52857  -0.52640  -0.51826  -0.51686  -0.48400
 Alpha  occ. eigenvalues --   -0.48320  -0.47283  -0.47249  -0.44254  -0.43130
 Alpha  occ. eigenvalues --   -0.37092  -0.36156  -0.36070  -0.35131
 Alpha virt. eigenvalues --    0.05382   0.06548   0.11497   0.12517   0.16886
 Alpha virt. eigenvalues --    0.17919   0.21594   0.22412   0.27480   0.28225
 Alpha virt. eigenvalues --    0.28536   0.29337   0.31118   0.31885   0.32741

 Mulliken charges:
               1
     1  C   -0.171693
     2  C   -0.219423
     3  C   -0.170958
     4  C    0.165586
     5  C   -0.154542
     6  C   -0.220744
     7  H    0.219696
     8  H    0.218413
     9  H    0.273000
    10  H    0.271798
    11  H    0.216170
    12  N    0.493154
    13  O   -0.456500
    14  O   -0.465468
    15  C   -0.171470
    16  C   -0.218498
    17  C   -0.170082
    18  C    0.160117
    19  C   -0.172453
    20  C   -0.218426
    21  H    0.224421
    22  H    0.223457
    23  H    0.278602
    24  H    0.271326
    25  H    0.221030
    26  N    0.491397
    27  O   -0.473571
    28  O   -0.444337
 Sum of Mulliken charges =  -0.00000

 Dipole moment (field-independent basis, Debye):
    X=             -2.8774    Y=              6.1057    Z=              0.3393  Tot=              6.7582
 Quadrupole moment (field-independent basis, Debye-Ang):
   XX=            -64.0122   YY=           -103.1034   ZZ=           -105.4468
   XY=              8.7343   XZ=             -6.1771   YZ=              1.8004

 Normal termination of Gaussian 16 at Thu May  6 08:11:34 2021.
