 Gaussian 16, Revision A.03,
 Gaussian 16:  EM64L-G16RevA.03 25-Dec-2016

 -------------
 #p 6-31g* mp2
 -------------

 ------------------------------------------------------
 Input file generated by CHIRIPA (05-May-2021 14:51:10)
 ------------------------------------------------------
 Symbolic Z-matrix:
 Charge =  0 Multiplicity = 1

                         Standard orientation:
 ---------------------------------------------------------------------
 Center     Atomic      Atomic             Coordinates (Angstroms)
 Number     Number       Type             X           Y           Z
 ---------------------------------------------------------------------
      1          6           0        2.652376   -0.457408   -0.701702
      2          6           0        1.563588   -1.415157   -1.186721
      3          6           0        2.131537   -2.710755   -1.766941
      4          1           0        3.324469   -0.222480   -1.538389
      5          1           0        3.264113   -0.963303    0.058063
      6          1           0        0.953230   -0.907138   -1.944346
      7          1           0        0.893898   -1.647682   -0.348829
      8          1           0        2.724206   -3.242184   -1.015323
      9          1           0        2.783875   -2.497432   -2.619906
     10          1           0        1.335958   -3.380776   -2.107510
     11          6           0        2.100257    0.842329   -0.118973
     12          6           0        3.189044    1.800078    0.366046
     13          6           0        2.621096    3.095676    0.946266
     14          1           0        1.488519    1.348223   -0.878738
     15          1           0        1.428164    0.607400    0.717714
     16          1           0        3.858735    2.032603   -0.471846
     17          1           0        3.799403    1.292059    1.123671
     18          1           0        1.968758    2.882352    1.799231
     19          1           0        2.028427    3.627104    0.194648
     20          1           0        3.416674    3.765696    1.286834
     21          6           0       -1.728049   -0.556580    0.585260
     22          6           0       -1.761726   -1.229025    1.958092
     23          6           0       -0.457690   -1.953349    2.293711
     24          1           0       -1.519961   -1.314583   -0.182253
     25          1           0       -0.892882    0.156824    0.554534
     26          1           0       -2.597427   -1.939941    1.986692
     27          1           0       -1.969949   -0.469365    2.722406
     28          1           0        0.383475   -1.252605    2.292746
     29          1           0       -0.247569   -2.731538    1.552851
     30          1           0       -0.503659   -2.426854    3.279378
     31          6           0       -3.024584    0.171660    0.235415
     32          6           0       -2.990907    0.844105   -1.137417
     33          6           0       -4.294942    1.568428   -1.473036
     34          1           0       -3.859751   -0.541745    0.266142
     35          1           0       -3.232672    0.929662    1.002929
     36          1           0       -2.782684    0.084444   -1.901731
     37          1           0       -2.155206    1.555021   -1.166017
     38          1           0       -4.505064    2.346617   -0.732176
     39          1           0       -5.136107    0.867684   -1.472070
     40          1           0       -4.248973    2.041933   -2.458702
 ---------------------------------------------------------------------

 SCF Done:  E(RHF) =  -470.730982332     A.U. after   11 cycles
 E2 =    -0.1586102734D+01 EUMP2 =    -0.47231708506560D+03

 The electronic state is 1-A.
 Alpha  occ. eigenvalues --  -11.21630 -11.21616 -11.21583 -11.21401 -11.21377
 Alpha  occ. eigenvalues --  -11.21347 -11.21302 -11.21249 -11.21172 -11.21111
 Alpha  occ. eigenvalues --  -11.21059 -11.20996  -1.08496  -1.08333  -1.03582
 Alpha  occ. eigenvalues --   -1.03469  -0.96002  -0.95959  -0.87023  -0.86974
 Alpha  occ. eigenvalues --   -0.79745  -0.79503  -0.78636  -0.77799  -0.65149
 Alpha  occ. eigenvalues --   -0.64975  -0.61051  -0.60837  -0.59452  -0.59235
 Alpha  occ. eigenvalues --   -0.57637  -0.57556  -0.55329  -0.55221  -0.52721
 Alpha  occ. eigenvalues --   -0.52641  -0.52442  -0.52392  -0.49953  -0.49916
 Alpha  occ. eigenvalues --   -0.48245  -0.47839  -0.46821  -0.46608  -0.46380
 Alpha  occ. eigenvalues --   -0.45677  -0.45526  -0.44682  -0.43783  -0.43729
 Alpha virt. eigenvalues --    0.20885   0.22980   0.23445   0.24043   0.25418
 Alpha virt. eigenvalues --    0.26048   0.26869   0.28208   0.28355   0.30007
 Alpha virt. eigenvalues --    0.30975   0.31524   0.31671   0.31914   0.32059

 Mulliken charges:
               1
     1  C   -0.297136
     2  C   -0.310565
     3  C   -0.475493
     4  H    0.149181
     5  H    0.148909
     6  H    0.150874
     7  H    0.167618
     8  H    0.154757
     9  H    0.154701
    10  H    0.158791
    11  C   -0.306141
    12  C   -0.298708
    13  C   -0.475749
    14  H    0.149626
    15  H    0.155210
    16  H    0.152246
    17  H    0.151898
    18  H    0.154316
    19  H    0.155046
    20  H    0.160601
    21  C   -0.309008
    22  C   -0.298504
    23  C   -0.482454
    24  H    0.152353
    25  H    0.159021
    26  H    0.151938
    27  H    0.151565
    28  H    0.157084
    29  H    0.156810
    30  H    0.161563
    31  C   -0.297176
    32  C   -0.299866
    33  C   -0.475665
    34  H    0.148979
    35  H    0.149143
    36  H    0.151793
    37  H    0.152040
    38  H    0.155210
    39  H    0.155156
    40  H    0.160038
 Sum of Mulliken charges =  -0.00000

 Dipole moment (field-independent basis, Debye):
    X=             -0.0153    Y=             -0.0033    Z=              0.0269  Tot=              0.0311
 Quadrupole moment (field-independent basis, Debye-Ang):
   XX=            -85.6795   YY=            -85.2247   ZZ=            -84.1888
   XY=              1.1483   XZ=             -0.0320   YZ=             -0.3313

 Normal termination of Gaussian 16 at Thu May  6 02:12:22 2021.
