 Gaussian 16, Revision A.03,
 Gaussian 16:  EM64L-G16RevA.03 25-Dec-2016

 -------------
 #p 6-31g* mp2
 -------------

 ------------------------------------------------------
 Input file generated by CHIRIPA (05-May-2021 14:51:08)
 ------------------------------------------------------
 Symbolic Z-matrix:
 Charge =  0 Multiplicity = 1

                         Standard orientation:
 ---------------------------------------------------------------------
 Center     Atomic      Atomic             Coordinates (Angstroms)
 Number     Number       Type             X           Y           Z
 ---------------------------------------------------------------------
      1          6           0        3.080390    0.250728   -0.594908
      2          6           0        2.987705   -1.251334   -0.324345
      3          6           0        3.852925   -2.077939   -1.276140
      4          1           0        2.779015    0.449218   -1.632559
      5          1           0        4.128820    0.567909   -0.507810
      6          1           0        1.939569   -1.565329   -0.410567
      7          1           0        3.289153   -1.446249    0.712840
      8          1           0        4.906085   -1.793063   -1.185034
      9          1           0        3.548834   -1.912819   -2.314824
     10          1           0        3.771636   -3.148762   -1.064979
     11          6           0        2.220970    1.090395    0.348535
     12          6           0        2.313655    2.592457    0.077973
     13          6           0        1.448435    3.419062    1.029767
     14          1           0        1.172540    0.773214    0.261437
     15          1           0        2.522345    0.891906    1.386186
     16          1           0        2.012208    2.787372   -0.959213
     17          1           0        3.361791    2.906452    0.164195
     18          1           0        1.752527    3.253943    2.068452
     19          1           0        0.395275    3.134186    0.938661
     20          1           0        1.529724    4.489886    0.818607
     21          6           0       -2.449104   -1.308334    0.492029
     22          6           0       -0.935802   -1.472606    0.636656
     23          6           0       -0.548235   -2.753209    1.376683
     24          1           0       -2.908759   -1.310311    1.489855
     25          1           0       -2.856065   -2.178584   -0.041304
     26          1           0       -0.531629   -0.601644    1.168339
     27          1           0       -0.479675   -1.470045   -0.361622
     28          1           0       -0.924044   -3.633766    0.845655
     29          1           0       -0.976293   -2.760432    2.384311
     30          1           0        0.537994   -2.850556    1.468821
     31          6           0       -2.852257   -0.032788   -0.245656
     32          6           0       -4.365558    0.131482   -0.390283
     33          6           0       -4.753125    1.412087   -1.130310
     34          1           0       -2.445295    0.837460    0.287676
     35          1           0       -2.392601   -0.030811   -1.243483
     36          1           0       -4.821685    0.128922    0.607994
     37          1           0       -4.769731   -0.739478   -0.921967
     38          1           0       -4.325067    1.419308   -2.137938
     39          1           0       -4.377315    2.292643   -0.599284
     40          1           0       -5.839355    1.509433   -1.222449
 ---------------------------------------------------------------------

 SCF Done:  E(RHF) =  -470.732224407     A.U. after   11 cycles
 E2 =    -0.1584653879D+01 EUMP2 =    -0.47231687828615D+03

 The electronic state is 1-A.
 Alpha  occ. eigenvalues --  -11.21646 -11.21623 -11.21557 -11.21525 -11.21461
 Alpha  occ. eigenvalues --  -11.21395 -11.21339 -11.21250 -11.21106 -11.21066
 Alpha  occ. eigenvalues --  -11.21060 -11.21045  -1.08502  -1.08363  -1.03585
 Alpha  occ. eigenvalues --   -1.03483  -0.96015  -0.95945  -0.87038  -0.86954
 Alpha  occ. eigenvalues --   -0.79685  -0.79564  -0.78475  -0.78017  -0.65121
 Alpha  occ. eigenvalues --   -0.65025  -0.61087  -0.60806  -0.59485  -0.59225
 Alpha  occ. eigenvalues --   -0.57635  -0.57553  -0.55325  -0.55215  -0.52725
 Alpha  occ. eigenvalues --   -0.52624  -0.52497  -0.52323  -0.50006  -0.49851
 Alpha  occ. eigenvalues --   -0.48084  -0.47862  -0.46849  -0.46431  -0.46254
 Alpha  occ. eigenvalues --   -0.45756  -0.45652  -0.45081  -0.43814  -0.43735
 Alpha virt. eigenvalues --    0.21356   0.22771   0.23474   0.24307   0.25748
 Alpha virt. eigenvalues --    0.26342   0.26746   0.27752   0.27929   0.29813
 Alpha virt. eigenvalues --    0.30549   0.30916   0.31572   0.31737   0.32424

 Mulliken charges:
               1
     1  C   -0.297231
     2  C   -0.309437
     3  C   -0.475194
     4  H    0.148802
     5  H    0.149152
     6  H    0.163192
     7  H    0.151009
     8  H    0.155089
     9  H    0.154684
    10  H    0.159950
    11  C   -0.306370
    12  C   -0.298862
    13  C   -0.475851
    14  H    0.159406
    15  H    0.148230
    16  H    0.151759
    17  H    0.151614
    18  H    0.154922
    19  H    0.154408
    20  H    0.160326
    21  C   -0.297129
    22  C   -0.306582
    23  C   -0.478739
    24  H    0.149879
    25  H    0.149587
    26  H    0.158091
    27  H    0.151706
    28  H    0.154790
    29  H    0.155305
    30  H    0.164265
    31  C   -0.298961
    32  C   -0.299557
    33  C   -0.475789
    34  H    0.148968
    35  H    0.149256
    36  H    0.152241
    37  H    0.152167
    38  H    0.155117
    39  H    0.155298
    40  H    0.160488
 Sum of Mulliken charges =  -0.00000

 Dipole moment (field-independent basis, Debye):
    X=             -0.0458    Y=             -0.0220    Z=              0.0122  Tot=              0.0522
 Quadrupole moment (field-independent basis, Debye-Ang):
   XX=            -84.8563   YY=            -85.9291   ZZ=            -84.1941
   XY=              0.8213   XZ=              0.6275   YZ=              0.4726

 Normal termination of Gaussian 16 at Thu May  6 03:42:09 2021.
