 Gaussian 16, Revision A.03,
 Gaussian 16:  EM64L-G16RevA.03 25-Dec-2016

 -------------
 #p 6-31g* mp2
 -------------

 ------------------------------------------------------
 Input file generated by CHIRIPA (05-May-2021 14:51:10)
 ------------------------------------------------------
 Symbolic Z-matrix:
 Charge =  0 Multiplicity = 1

                         Standard orientation:
 ---------------------------------------------------------------------
 Center     Atomic      Atomic             Coordinates (Angstroms)
 Number     Number       Type             X           Y           Z
 ---------------------------------------------------------------------
      1          6           0       -3.981295   -0.033642    0.134001
      2          6           0       -4.491532   -1.084862   -0.852193
      3          6           0       -5.919899   -0.809604   -1.323144
      4          1           0       -4.654266    0.003202    1.001583
      5          1           0       -4.027703    0.956662   -0.339855
      6          1           0       -4.442877   -2.073061   -0.377104
      7          1           0       -3.817161   -1.119342   -1.717439
      8          1           0       -5.980551    0.163493   -1.821146
      9          1           0       -6.609822   -0.795646   -0.473195
     10          1           0       -6.264594   -1.573197   -2.027397
     11          6           0       -2.554745   -0.295106    0.613919
     12          6           0       -2.044508    0.756114    1.600114
     13          6           0       -0.616141    0.480856    2.071065
     14          1           0       -2.508337   -1.285409    1.087776
     15          1           0       -1.881774   -0.331949   -0.253662
     16          1           0       -2.718879    0.790594    2.465360
     17          1           0       -2.093164    1.744314    1.125024
     18          1           0        0.073781    0.466898    1.221116
     19          1           0       -0.555489   -0.492240    2.569067
     20          1           0       -0.271446    1.244449    2.775317
     21          6           0        3.886226   -0.277974   -0.448673
     22          6           0        3.701607   -1.680897    0.130730
     23          6           0        4.946965   -2.553943   -0.026328
     24          1           0        4.147107   -0.359054   -1.512775
     25          1           0        4.739412    0.206239    0.046309
     26          1           0        2.848164   -2.161803   -0.364224
     27          1           0        3.440947   -1.596462    1.193531
     28          1           0        5.802894   -2.099275    0.482852
     29          1           0        5.206742   -2.667828   -1.083753
     30          1           0        4.792984   -3.552413    0.394633
     31          6           0        2.649814    0.606721   -0.299247
     32          6           0        2.834434    2.009645   -0.878651
     33          6           0        1.589075    2.882691   -0.721593
     34          1           0        1.796629    0.122509   -0.794229
     35          1           0        2.388933    0.687801    0.764855
     36          1           0        3.095093    1.925210   -1.941450
     37          1           0        3.687877    2.490551   -0.383697
     38          1           0        1.329298    2.996576    0.335832
     39          1           0        0.733147    2.428023   -1.230772
     40          1           0        1.743056    3.881161   -1.142553
 ---------------------------------------------------------------------

 SCF Done:  E(RHF) =  -470.732775002     A.U. after   11 cycles
 E2 =    -0.1583469767D+01 EUMP2 =    -0.47231624476931D+03

 The electronic state is 1-A.
 Alpha  occ. eigenvalues --  -11.21634 -11.21593 -11.21586 -11.21520 -11.21415
 Alpha  occ. eigenvalues --  -11.21371 -11.21356 -11.21311 -11.21108 -11.21066
 Alpha  occ. eigenvalues --  -11.21058 -11.20895  -1.08460  -1.08381  -1.03559
 Alpha  occ. eigenvalues --   -1.03464  -0.96001  -0.95925  -0.87028  -0.86938
 Alpha  occ. eigenvalues --   -0.79660  -0.79513  -0.78327  -0.78146  -0.65087
 Alpha  occ. eigenvalues --   -0.65014  -0.60963  -0.60870  -0.59369  -0.59297
 Alpha  occ. eigenvalues --   -0.57666  -0.57490  -0.55290  -0.55222  -0.52704
 Alpha  occ. eigenvalues --   -0.52622  -0.52526  -0.52261  -0.49950  -0.49906
 Alpha  occ. eigenvalues --   -0.48027  -0.47779  -0.46702  -0.46599  -0.45918
 Alpha  occ. eigenvalues --   -0.45737  -0.45684  -0.45347  -0.43802  -0.43734
 Alpha virt. eigenvalues --    0.21263   0.23096   0.23613   0.25169   0.25621
 Alpha virt. eigenvalues --    0.26279   0.26949   0.27884   0.28125   0.29391
 Alpha virt. eigenvalues --    0.30526   0.31326   0.31389   0.31941   0.32239

 Mulliken charges:
               1
     1  C   -0.298283
     2  C   -0.299567
     3  C   -0.475679
     4  H    0.149691
     5  H    0.149538
     6  H    0.151885
     7  H    0.151605
     8  H    0.155172
     9  H    0.155200
    10  H    0.160135
    11  C   -0.298231
    12  C   -0.299543
    13  C   -0.484716
    14  H    0.149454
    15  H    0.148817
    16  H    0.151262
    17  H    0.152280
    18  H    0.167673
    19  H    0.153927
    20  H    0.157907
    21  C   -0.297304
    22  C   -0.299929
    23  C   -0.475714
    24  H    0.149452
    25  H    0.149566
    26  H    0.151963
    27  H    0.152588
    28  H    0.155162
    29  H    0.155089
    30  H    0.160332
    31  C   -0.304108
    32  C   -0.299059
    33  C   -0.477835
    34  H    0.148917
    35  H    0.155910
    36  H    0.151831
    37  H    0.152089
    38  H    0.157799
    39  H    0.154256
    40  H    0.160468
 Sum of Mulliken charges =  -0.00000

 Dipole moment (field-independent basis, Debye):
    X=              0.0543    Y=              0.0083    Z=             -0.0068  Tot=              0.0554
 Quadrupole moment (field-independent basis, Debye-Ang):
   XX=            -86.2708   YY=            -84.9362   ZZ=            -83.6507
   XY=              1.0402   XZ=             -0.3019   YZ=             -0.1484

 Normal termination of Gaussian 16 at Thu May  6 03:47:58 2021.
