 Gaussian 16, Revision A.03,
 Gaussian 16:  EM64L-G16RevA.03 25-Dec-2016

 -------------
 #p 6-31g* mp2
 -------------

 ------------------------------------------------------
 Input file generated by CHIRIPA (05-May-2021 14:55:21)
 ------------------------------------------------------
 Symbolic Z-matrix:
 Charge =  0 Multiplicity = 1

                         Standard orientation:
 ---------------------------------------------------------------------
 Center     Atomic      Atomic             Coordinates (Angstroms)
 Number     Number       Type             X           Y           Z
 ---------------------------------------------------------------------
      1          6           0       -0.593557   -0.486542    0.958925
      2          6           0       -1.324769    0.686346    1.173827
      3          6           0       -2.648846    0.787714    0.736685
      4          6           0       -3.212900   -0.308027    0.085160
      5          6           0       -2.510354   -1.490090   -0.143850
      6          6           0       -1.187636   -1.569108    0.301931
      7          1           0        0.434490   -0.556606    1.301863
      8          1           0       -0.865975    1.528668    1.683774
      9          1           0       -3.237849    1.683826    0.889908
     10          1           0       -2.994837   -2.313041   -0.655168
     11          1           0       -0.622169   -2.481236    0.133658
     12          7           0       -4.613922   -0.212544   -0.382195
     13          8           0       -5.087946   -1.192007   -0.953675
     14          8           0       -5.211490    0.839951   -0.168177
     15          6           0        3.350899    0.922387    0.121329
     16          6           0        2.670637    1.857705   -0.878876
     17          6           0        1.741420    2.868213   -0.205657
     18          1           0        2.581740    0.388910    0.696430
     19          1           0        3.921647    1.522064    0.843844
     20          1           0        2.102464    1.256371   -1.600120
     21          1           0        3.441505    2.388877   -1.451795
     22          1           0        2.298235    3.492735    0.500411
     23          1           0        0.951585    2.353794    0.351243
     24          1           0        1.265673    3.526771   -0.939022
     25          6           0        4.283007   -0.093552   -0.536525
     26          6           0        4.963269   -1.028869    0.463679
     27          6           0        5.892486   -2.039377   -0.209541
     28          1           0        3.712259   -0.693228   -1.259041
     29          1           0        5.052166    0.439926   -1.111626
     30          1           0        4.192401   -1.560041    1.036598
     31          1           0        5.531442   -0.427535    1.184923
     32          1           0        6.682321   -1.524958   -0.766440
     33          1           0        5.335672   -2.663898   -0.915608
     34          1           0        6.368233   -2.697935    0.523825
 ---------------------------------------------------------------------

 SCF Done:  E(RHF) =  -669.534651823     A.U. after   15 cycles
 E2 =    -0.2092843002D+01 EUMP2 =    -0.67162749482546D+03

 The electronic state is 1-A.
 Alpha  occ. eigenvalues --  -20.60785 -20.60780 -15.85839 -11.31224 -11.27794
 Alpha  occ. eigenvalues --  -11.27786 -11.27527 -11.26812 -11.26792 -11.22430
 Alpha  occ. eigenvalues --  -11.22413 -11.22371 -11.22207 -11.21884 -11.21737
 Alpha  occ. eigenvalues --   -1.59860  -1.39413  -1.19400  -1.09305  -1.08792
 Alpha  occ. eigenvalues --   -1.04808  -1.04330  -0.96793  -0.95625  -0.87813
 Alpha  occ. eigenvalues --   -0.86206  -0.82455  -0.80402  -0.79136  -0.77498
 Alpha  occ. eigenvalues --   -0.72058  -0.71183  -0.70534  -0.65961  -0.65052
 Alpha  occ. eigenvalues --   -0.64823  -0.62209  -0.61677  -0.60146  -0.58405
 Alpha  occ. eigenvalues --   -0.56184  -0.55269  -0.53444  -0.53300  -0.53091
 Alpha  occ. eigenvalues --   -0.52844  -0.50712  -0.48824  -0.48811  -0.48696
 Alpha  occ. eigenvalues --   -0.47428  -0.46670  -0.46574  -0.44815  -0.44606
 Alpha  occ. eigenvalues --   -0.37357  -0.36388
 Alpha virt. eigenvalues --    0.05018   0.11096   0.16418   0.19287   0.22579
 Alpha virt. eigenvalues --    0.23768   0.24888   0.25851   0.26391   0.28144
 Alpha virt. eigenvalues --    0.29469   0.30618   0.31001   0.31283   0.31606

 Mulliken charges:
               1
     1  C   -0.173775
     2  C   -0.219960
     3  C   -0.171912
     4  C    0.158440
     5  C   -0.170530
     6  C   -0.220100
     7  H    0.232323
     8  H    0.225314
     9  H    0.276115
    10  H    0.275743
    11  H    0.223606
    12  N    0.488023
    13  O   -0.460339
    14  O   -0.460152
    15  C   -0.300840
    16  C   -0.300031
    17  C   -0.479830
    18  H    0.138814
    19  H    0.152593
    20  H    0.155294
    21  H    0.155951
    22  H    0.155829
    23  H    0.149284
    24  H    0.165568
    25  C   -0.298912
    26  C   -0.299141
    27  C   -0.476072
    28  H    0.149786
    29  H    0.153690
    30  H    0.146231
    31  H    0.154008
    32  H    0.157591
    33  H    0.155347
    34  H    0.162042
 Sum of Mulliken charges =  -0.00000

 Dipole moment (field-independent basis, Debye):
    X=              5.0652    Y=             -0.2989    Z=              1.5443  Tot=              5.3038
 Quadrupole moment (field-independent basis, Debye-Ang):
   XX=           -126.1872   YY=            -90.3095   ZZ=            -94.6414
   XY=              0.3823   XZ=             -5.0042   YZ=              1.0971

 Normal termination of Gaussian 16 at Wed May  5 20:36:18 2021.
