 Gaussian 16, Revision A.03,
 Gaussian 16:  EM64L-G16RevA.03 25-Dec-2016

 -------------
 #p 6-31g* mp2
 -------------

 ------------------------------------------------------
 Input file generated by CHIRIPA (05-May-2021 14:51:11)
 ------------------------------------------------------
 Symbolic Z-matrix:
 Charge =  0 Multiplicity = 1

                         Standard orientation:
 ---------------------------------------------------------------------
 Center     Atomic      Atomic             Coordinates (Angstroms)
 Number     Number       Type             X           Y           Z
 ---------------------------------------------------------------------
      1          6           0        2.737343    0.883852   -0.569621
      2          6           0        2.718472    2.150359    0.286876
      3          6           0        1.873567    3.266873   -0.327392
      4          1           0        3.122807    1.130074   -1.568489
      5          1           0        1.706794    0.529700   -0.710830
      6          1           0        3.748861    2.501237    0.427581
      7          1           0        2.333188    1.901055    1.283882
      8          1           0        0.836046    2.940505   -0.452431
      9          1           0        2.259762    3.544097   -1.313597
     10          1           0        1.873970    4.162803    0.301233
     11          6           0        3.577864   -0.241389    0.031282
     12          6           0        3.596736   -1.507897   -0.825216
     13          6           0        4.441641   -2.624411   -0.210948
     14          1           0        4.608414    0.112763    0.172490
     15          1           0        3.192401   -0.487612    1.030150
     16          1           0        3.982020   -1.258592   -1.822221
     17          1           0        2.566346   -1.858775   -0.965921
     18          1           0        4.055445   -2.901635    0.775257
     19          1           0        5.479162   -2.298043   -0.085908
     20          1           0        4.441238   -3.520341   -0.839573
     21          6           0       -3.740849   -0.621096   -0.122414
     22          6           0       -4.963942    0.294419   -0.184535
     23          6           0       -6.122443   -0.319364   -0.971264
     24          1           0       -3.410607   -0.851072   -1.144665
     25          1           0       -4.030128   -1.577303    0.335167
     26          1           0       -4.672125    1.249124   -0.640602
     27          1           0       -5.291195    0.522396    0.837985
     28          1           0       -6.441599   -1.261849   -0.514686
     29          1           0       -5.819011   -0.530992   -2.001673
     30          1           0       -6.986330    0.351866   -1.003055
     31          6           0       -2.574358   -0.021366    0.660753
     32          6           0       -1.351265   -0.936881    0.722874
     33          6           0       -0.192765   -0.323099    1.509603
     34          1           0       -2.285080    0.934841    0.203172
     35          1           0       -2.904601    0.208609    1.683004
     36          1           0       -1.024012   -1.164858   -0.299646
     37          1           0       -1.643083   -1.891587    1.178941
     38          1           0       -0.496197   -0.111471    2.540012
     39          1           0        0.126391    0.619387    1.053025
     40          1           0        0.671122   -0.994328    1.541394
 ---------------------------------------------------------------------

 SCF Done:  E(RHF) =  -470.732257884     A.U. after   11 cycles
 E2 =    -0.1584489554D+01 EUMP2 =    -0.47231674743796D+03

 The electronic state is 1-A.
 Alpha  occ. eigenvalues --  -11.21688 -11.21630 -11.21582 -11.21552 -11.21462
 Alpha  occ. eigenvalues --  -11.21398 -11.21337 -11.21270 -11.21121 -11.21097
 Alpha  occ. eigenvalues --  -11.21092 -11.21063  -1.08505  -1.08381  -1.03605
 Alpha  occ. eigenvalues --   -1.03503  -0.96067  -0.95938  -0.87083  -0.86963
 Alpha  occ. eigenvalues --   -0.79659  -0.79571  -0.78298  -0.78209  -0.65349
 Alpha  occ. eigenvalues --   -0.64897  -0.61201  -0.60737  -0.59410  -0.59321
 Alpha  occ. eigenvalues --   -0.57646  -0.57569  -0.55431  -0.55136  -0.52725
 Alpha  occ. eigenvalues --   -0.52656  -0.52468  -0.52375  -0.50137  -0.49744
 Alpha  occ. eigenvalues --   -0.48038  -0.47814  -0.46697  -0.46594  -0.45882
 Alpha  occ. eigenvalues --   -0.45779  -0.45702  -0.45587  -0.43824  -0.43745
 Alpha virt. eigenvalues --    0.19934   0.22751   0.23265   0.24566   0.26109
 Alpha virt. eigenvalues --    0.26237   0.26804   0.27844   0.28133   0.29861
 Alpha virt. eigenvalues --    0.30257   0.31059   0.31575   0.31709   0.32533

 Mulliken charges:
               1
     1  C   -0.301042
     2  C   -0.303549
     3  C   -0.476838
     4  H    0.149319
     5  H    0.153632
     6  H    0.152760
     7  H    0.155021
     8  H    0.154052
     9  H    0.155542
    10  H    0.160675
    11  C   -0.300201
    12  C   -0.300765
    13  C   -0.475493
    14  H    0.149525
    15  H    0.151971
    16  H    0.151969
    17  H    0.152122
    18  H    0.154681
    19  H    0.155293
    20  H    0.160196
    21  C   -0.298353
    22  C   -0.299729
    23  C   -0.475753
    24  H    0.149805
    25  H    0.149692
    26  H    0.152105
    27  H    0.152018
    28  H    0.155211
    29  H    0.155276
    30  H    0.160401
    31  C   -0.298447
    32  C   -0.301491
    33  C   -0.484397
    34  H    0.149225
    35  H    0.150079
    36  H    0.152130
    37  H    0.152527
    38  H    0.155656
    39  H    0.162335
    40  H    0.162838
 Sum of Mulliken charges =  -0.00000

 Dipole moment (field-independent basis, Debye):
    X=             -0.0205    Y=              0.0014    Z=              0.0187  Tot=              0.0278
 Quadrupole moment (field-independent basis, Debye-Ang):
   XX=            -85.1618   YY=            -85.4459   ZZ=            -84.1873
   XY=              0.7003   XZ=             -1.3608   YZ=             -0.4073

 Normal termination of Gaussian 16 at Thu May  6 02:16:06 2021.
