 Gaussian 16, Revision A.03,
 Gaussian 16:  EM64L-G16RevA.03 25-Dec-2016

 -------------
 #p 6-31g* mp2
 -------------

 ------------------------------------------------------
 Input file generated by CHIRIPA (05-May-2021 14:55:19)
 ------------------------------------------------------
 Symbolic Z-matrix:
 Charge =  0 Multiplicity = 1

                         Standard orientation:
 ---------------------------------------------------------------------
 Center     Atomic      Atomic             Coordinates (Angstroms)
 Number     Number       Type             X           Y           Z
 ---------------------------------------------------------------------
      1          6           0       -3.854120   -1.557580    0.390545
      2          6           0       -4.092173   -0.657206   -0.653092
      3          6           0       -3.306602    0.490704   -0.793554
      4          6           0       -2.286829    0.708010    0.131720
      5          6           0       -2.024929   -0.170224    1.182150
      6          6           0       -2.823075   -1.311649    1.303226
      7          1           0       -4.469254   -2.446785    0.492129
      8          1           0       -4.892203   -0.845635   -1.363367
      9          1           0       -3.469081    1.204360   -1.592124
     10          1           0       -1.220127    0.044628    1.874646
     11          1           0       -2.635914   -2.009150    2.114711
     12          7           0       -1.448524    1.919819   -0.006720
     13          8           0       -0.556259    2.088457    0.821568
     14          8           0       -1.699600    2.678050   -0.940895
     15          6           0        3.524165   -0.060271    0.043820
     16          6           0        5.029539   -0.292145   -0.090601
     17          6           0        5.856794    0.897732    0.396881
     18          1           0        3.245964    0.838519   -0.523388
     19          1           0        3.284735    0.147511    1.095911
     20          1           0        5.265868   -0.500795   -1.141899
     21          1           0        5.304159   -1.190597    0.476837
     22          1           0        5.650093    1.104199    1.451986
     23          1           0        5.611584    1.797921   -0.175947
     24          1           0        6.929998    0.710552    0.291730
     25          6           0        2.683814   -1.240950   -0.439432
     26          6           0        1.178441   -1.009077   -0.305012
     27          6           0        0.351185   -2.198953   -0.792493
     28          1           0        2.923244   -1.448733   -1.491523
     29          1           0        2.962016   -2.139741    0.127776
     30          1           0        0.903820   -0.110625   -0.872449
     31          1           0        0.942112   -0.800427    0.746287
     32          1           0        0.596396   -3.099142   -0.219665
     33          1           0        0.557887   -2.405421   -1.847599
     34          1           0       -0.722018   -2.011774   -0.687343
 ---------------------------------------------------------------------

 SCF Done:  E(RHF) =  -669.534199494     A.U. after   15 cycles
 E2 =    -0.2094948500D+01 EUMP2 =    -0.67162914799383D+03

 The electronic state is 1-A.
 Alpha  occ. eigenvalues --  -20.60833 -20.60812 -15.85862 -11.31221 -11.27826
 Alpha  occ. eigenvalues --  -11.27782 -11.27572 -11.26837 -11.26803 -11.21327
 Alpha  occ. eigenvalues --  -11.21177 -11.21056 -11.20865 -11.20829 -11.20622
 Alpha  occ. eigenvalues --   -1.59892  -1.39445  -1.19434  -1.08816  -1.08047
 Alpha  occ. eigenvalues --   -1.04840  -1.03199  -0.95694  -0.95599  -0.86662
 Alpha  occ. eigenvalues --   -0.86223  -0.82478  -0.79283  -0.77866  -0.77488
 Alpha  occ. eigenvalues --   -0.72089  -0.71214  -0.70535  -0.65073  -0.64859
 Alpha  occ. eigenvalues --   -0.64659  -0.62189  -0.60600  -0.59114  -0.57349
 Alpha  occ. eigenvalues --   -0.55329  -0.54935  -0.53360  -0.52918  -0.52234
 Alpha  occ. eigenvalues --   -0.51808  -0.49586  -0.48857  -0.48848  -0.47579
 Alpha  occ. eigenvalues --   -0.46305  -0.45475  -0.45297  -0.44701  -0.43426
 Alpha  occ. eigenvalues --   -0.37401  -0.36370
 Alpha virt. eigenvalues --    0.04990   0.11175   0.16467   0.21080   0.23232
 Alpha virt. eigenvalues --    0.24568   0.26101   0.27333   0.27609   0.28300
 Alpha virt. eigenvalues --    0.28796   0.30694   0.31430   0.31947   0.32040

 Mulliken charges:
               1
     1  C   -0.170824
     2  C   -0.218368
     3  C   -0.171484
     4  C    0.160238
     5  C   -0.169319
     6  C   -0.219290
     7  H    0.226285
     8  H    0.223927
     9  H    0.275896
    10  H    0.276187
    11  H    0.224032
    12  N    0.488628
    13  O   -0.458921
    14  O   -0.460641
    15  C   -0.298335
    16  C   -0.299663
    17  C   -0.475469
    18  H    0.157209
    19  H    0.150983
    20  H    0.150673
    21  H    0.149077
    22  H    0.155440
    23  H    0.157679
    24  H    0.158132
    25  C   -0.298383
    26  C   -0.299655
    27  C   -0.483095
    28  H    0.148818
    29  H    0.146056
    30  H    0.156701
    31  H    0.147695
    32  H    0.149631
    33  H    0.154429
    34  H    0.165734
 Sum of Mulliken charges =  -0.00000

 Dipole moment (field-independent basis, Debye):
    X=             -3.0487    Y=             -4.1087    Z=              0.5098  Tot=              5.1416
 Quadrupole moment (field-independent basis, Debye-Ang):
   XX=            -81.0333   YY=           -101.9102   ZZ=            -90.8659
   XY=              6.8838   XZ=              0.6989   YZ=             -2.2415

 Normal termination of Gaussian 16 at Thu May  6 01:18:57 2021.
