 Gaussian 16, Revision A.03,
 Gaussian 16:  EM64L-G16RevA.03 25-Dec-2016

 -------------
 #p 6-31g* mp2
 -------------

 ------------------------------------------------------
 Input file generated by CHIRIPA (05-May-2021 14:51:08)
 ------------------------------------------------------
 Symbolic Z-matrix:
 Charge =  0 Multiplicity = 1

                         Standard orientation:
 ---------------------------------------------------------------------
 Center     Atomic      Atomic             Coordinates (Angstroms)
 Number     Number       Type             X           Y           Z
 ---------------------------------------------------------------------
      1          6           0        3.219268   -0.355927    0.158785
      2          6           0        3.702779    0.113384   -1.213785
      3          6           0        5.013907    0.896757   -1.142611
      4          1           0        3.091479    0.516893    0.813613
      5          1           0        3.996526   -0.981219    0.619519
      6          1           0        2.924273    0.736470   -1.672379
      7          1           0        3.829248   -0.760638   -1.865480
      8          1           0        5.807896    0.280345   -0.708769
      9          1           0        4.897780    1.785960   -0.514571
     10          1           0        5.341251    1.222611   -2.134843
     11          6           0        1.909631   -1.140519    0.104052
     12          6           0        1.426120   -1.609830    1.476622
     13          6           0        0.114992   -2.393203    1.405448
     14          1           0        1.132373   -0.515227   -0.356682
     15          1           0        2.037420   -2.013339   -0.550776
     16          1           0        1.299651   -0.735808    2.128317
     17          1           0        2.204626   -2.232916    1.935216
     18          1           0        0.231119   -3.282405    0.777408
     19          1           0       -0.678997   -1.776791    0.971607
     20          1           0       -0.212352   -2.719057    2.397680
     21          6           0       -2.477872    1.503373   -0.056023
     22          6           0       -1.236176    1.894259    0.746090
     23          6           0       -1.076672    3.408239    0.888276
     24          1           0       -2.422596    1.962862   -1.052395
     25          1           0       -3.368386    1.922543    0.432522
     26          1           0       -0.348396    1.473313    0.256941
     27          1           0       -1.294321    1.433629    1.740602
     28          1           0       -1.944507    3.841003    1.396389
     29          1           0       -0.993207    3.880911   -0.095702
     30          1           0       -0.182766    3.665336    1.465073
     31          6           0       -2.651027   -0.006927   -0.206815
     32          6           0       -3.892723   -0.397814   -1.008927
     33          6           0       -4.052227   -1.911794   -1.151114
     34          1           0       -1.760513   -0.426098   -0.695359
     35          1           0       -2.706302   -0.466416    0.789558
     36          1           0       -3.834578    0.062817   -2.003440
     37          1           0       -4.780504    0.023134   -0.519778
     38          1           0       -4.135691   -2.384466   -0.167134
     39          1           0       -3.184391   -2.344558   -1.659226
     40          1           0       -4.946133   -2.168891   -1.727910
 ---------------------------------------------------------------------

 SCF Done:  E(RHF) =  -470.732257863     A.U. after   11 cycles
 E2 =    -0.1584872316D+01 EUMP2 =    -0.47231713017841D+03

 The electronic state is 1-A.
 Alpha  occ. eigenvalues --  -11.21702 -11.21651 -11.21603 -11.21497 -11.21488
 Alpha  occ. eigenvalues --  -11.21427 -11.21375 -11.21313 -11.21155 -11.21083
 Alpha  occ. eigenvalues --  -11.21069 -11.20825  -1.08539  -1.08376  -1.03600
 Alpha  occ. eigenvalues --   -1.03465  -0.96061  -0.95905  -0.87085  -0.86916
 Alpha  occ. eigenvalues --   -0.79691  -0.79538  -0.78456  -0.78114  -0.65233
 Alpha  occ. eigenvalues --   -0.64951  -0.61001  -0.60869  -0.59425  -0.59289
 Alpha  occ. eigenvalues --   -0.57739  -0.57480  -0.55332  -0.55218  -0.52741
 Alpha  occ. eigenvalues --   -0.52602  -0.52576  -0.52259  -0.49992  -0.49883
 Alpha  occ. eigenvalues --   -0.48012  -0.47861  -0.46825  -0.46644  -0.46171
 Alpha  occ. eigenvalues --   -0.45778  -0.45685  -0.45058  -0.43855  -0.43727
 Alpha virt. eigenvalues --    0.20173   0.23070   0.23926   0.24351   0.24978
 Alpha virt. eigenvalues --    0.26254   0.27179   0.27988   0.28151   0.29986
 Alpha virt. eigenvalues --    0.31119   0.31454   0.31635   0.31778   0.32163

 Mulliken charges:
               1
     1  C   -0.298499
     2  C   -0.299466
     3  C   -0.475667
     4  H    0.149773
     5  H    0.149799
     6  H    0.151001
     7  H    0.151940
     8  H    0.155277
     9  H    0.155230
    10  H    0.160156
    11  C   -0.303960
    12  C   -0.298877
    13  C   -0.486419
    14  H    0.153486
    15  H    0.149467
    16  H    0.152213
    17  H    0.151205
    18  H    0.153584
    19  H    0.168579
    20  H    0.158254
    21  C   -0.297124
    22  C   -0.306342
    23  C   -0.475389
    24  H    0.149697
    25  H    0.149949
    26  H    0.156580
    27  H    0.152815
    28  H    0.155679
    29  H    0.155369
    30  H    0.160244
    31  C   -0.306576
    32  C   -0.298555
    33  C   -0.476506
    34  H    0.153863
    35  H    0.152968
    36  H    0.151963
    37  H    0.152058
    38  H    0.155888
    39  H    0.155854
    40  H    0.160488
 Sum of Mulliken charges =  -0.00000

 Dipole moment (field-independent basis, Debye):
    X=             -0.0770    Y=              0.0386    Z=             -0.0188  Tot=              0.0881
 Quadrupole moment (field-independent basis, Debye-Ang):
   XX=            -85.0572   YY=            -85.6097   ZZ=            -84.1250
   XY=             -1.2089   XZ=             -0.5031   YZ=              0.0456

 Normal termination of Gaussian 16 at Thu May  6 02:04:45 2021.
