 Gaussian 16, Revision A.03,
 Gaussian 16:  EM64L-G16RevA.03 25-Dec-2016

 -------------
 #p 6-31g* mp2
 -------------

 ------------------------------------------------------
 Input file generated by CHIRIPA (05-May-2021 14:57:26)
 ------------------------------------------------------
 Symbolic Z-matrix:
 Charge =  0 Multiplicity = 1

                         Standard orientation:
 ---------------------------------------------------------------------
 Center     Atomic      Atomic             Coordinates (Angstroms)
 Number     Number       Type             X           Y           Z
 ---------------------------------------------------------------------
      1          6           0       -2.221957   -0.465518    1.835962
      2          6           0       -3.175133   -1.461622    1.599835
      3          6           0       -4.184715   -1.267956    0.652320
      4          6           0       -4.211356   -0.060659   -0.044110
      5          6           0       -3.276010    0.950865    0.168580
      6          6           0       -2.275344    0.735428    1.120842
      7          1           0       -1.441152   -0.624419    2.573858
      8          1           0       -3.136128   -2.395288    2.153722
      9          1           0       -4.935274   -2.022268    0.449605
     10          1           0       -3.340767    1.871101   -0.399215
     11          1           0       -1.536420    1.510780    1.302133
     12          7           0       -5.275436    0.155890   -1.049714
     13          8           0       -5.277061    1.228376   -1.650054
     14          8           0       -6.087689   -0.750965   -1.218525
     15          6           0        1.887454    1.279506    0.469887
     16          6           0        1.860218   -0.057238    0.058921
     17          6           0        3.044511   -0.722801   -0.271273
     18          6           0        4.243695   -0.018034   -0.178812
     19          6           0        4.303504    1.314167    0.227333
     20          6           0        3.106860    1.959743    0.552635
     21          1           0        0.962670    1.788768    0.724489
     22          1           0        0.914668   -0.588020   -0.006269
     23          1           0        3.052257   -1.757338   -0.592350
     24          1           0        5.261415    1.816933    0.282555
     25          1           0        3.131032    2.997911    0.871490
     26          7           0        5.503989   -0.712056   -0.525784
     27          8           0        6.547522   -0.068915   -0.436081
     28          8           0        5.424412   -1.886031   -0.880872
 ---------------------------------------------------------------------

 SCF Done:  E(RHF) =  -868.336927114     A.U. after   16 cycles
 E2 =    -0.2600079407D+01 EUMP2 =    -0.87093700652130D+03

 The electronic state is 1-A.
 Alpha  occ. eigenvalues --  -20.61456 -20.61447 -20.61189 -20.61183 -15.86517
 Alpha  occ. eigenvalues --  -15.86244 -11.32073 -11.31728 -11.28725 -11.28638
 Alpha  occ. eigenvalues --  -11.28499 -11.28292 -11.28287 -11.28175 -11.27870
 Alpha  occ. eigenvalues --  -11.27669 -11.27374 -11.27357  -1.60526  -1.60261
 Alpha  occ. eigenvalues --   -1.40074  -1.39811  -1.20287  -1.19916  -1.09653
 Alpha  occ. eigenvalues --   -1.09313  -1.05722  -1.05325  -0.96442  -0.96128
 Alpha  occ. eigenvalues --   -0.87120  -0.86726  -0.83276  -0.82943  -0.78285
 Alpha  occ. eigenvalues --   -0.77949  -0.72730  -0.72461  -0.71853  -0.71585
 Alpha  occ. eigenvalues --   -0.71384  -0.71109  -0.65942  -0.65778  -0.65567
 Alpha  occ. eigenvalues --   -0.65306  -0.63062  -0.62657  -0.56251  -0.55903
 Alpha  occ. eigenvalues --   -0.54046  -0.53797  -0.53661  -0.53405  -0.49505
 Alpha  occ. eigenvalues --   -0.49472  -0.49230  -0.49209  -0.45437  -0.45189
 Alpha  occ. eigenvalues --   -0.38295  -0.37942  -0.37326  -0.36920
 Alpha virt. eigenvalues --    0.04258   0.04567   0.10190   0.10711   0.15660
 Alpha virt. eigenvalues --    0.16017   0.18166   0.21886   0.24494   0.26497
 Alpha virt. eigenvalues --    0.27548   0.28730   0.29530   0.31334   0.32040

 Mulliken charges:
               1
     1  C   -0.175591
     2  C   -0.218760
     3  C   -0.169200
     4  C    0.159191
     5  C   -0.169711
     6  C   -0.225598
     7  H    0.228072
     8  H    0.227337
     9  H    0.279119
    10  H    0.277583
    11  H    0.218855
    12  N    0.488010
    13  O   -0.458691
    14  O   -0.457517
    15  C   -0.173805
    16  C   -0.223001
    17  C   -0.170439
    18  C    0.159453
    19  C   -0.170386
    20  C   -0.218376
    21  H    0.218599
    22  H    0.225690
    23  H    0.277164
    24  H    0.277391
    25  H    0.224690
    26  N    0.487884
    27  O   -0.458866
    28  O   -0.459100
 Sum of Mulliken charges =  -0.00000

 Dipole moment (field-independent basis, Debye):
    X=             -0.8215    Y=              1.5448    Z=              4.7036  Tot=              5.0184
 Quadrupole moment (field-independent basis, Debye-Ang):
   XX=           -171.2922   YY=            -97.3939   ZZ=           -106.6540
   XY=             18.2190   XZ=             -9.0128   YZ=             -0.8771

 Normal termination of Gaussian 16 at Thu May  6 00:26:45 2021.
