 Gaussian 16, Revision A.03,
 Gaussian 16:  EM64L-G16RevA.03 25-Dec-2016

 -------------
 #p 6-31g* mp2
 -------------

 ------------------------------------------------------
 Input file generated by CHIRIPA (05-May-2021 14:55:19)
 ------------------------------------------------------
 Symbolic Z-matrix:
 Charge =  0 Multiplicity = 1

                         Standard orientation:
 ---------------------------------------------------------------------
 Center     Atomic      Atomic             Coordinates (Angstroms)
 Number     Number       Type             X           Y           Z
 ---------------------------------------------------------------------
      1          6           0        4.421432    0.764556    0.990321
      2          6           0        3.621518   -0.067938    1.780012
      3          6           0        2.569123   -0.790453    1.209937
      4          6           0        2.343853   -0.656207   -0.159195
      5          6           0        3.123209    0.165058   -0.972471
      6          6           0        4.170168    0.878197   -0.380982
      7          1           0        5.236846    1.322181    1.441487
      8          1           0        3.814334   -0.158138    2.845249
      9          1           0        1.934311   -1.442152    1.797917
     10          1           0        2.906567    0.234485   -2.031557
     11          1           0        4.789762    1.523968   -0.996716
     12          7           0        1.232608   -1.416138   -0.774043
     13          8           0        1.054773   -1.280569   -1.982609
     14          8           0        0.560490   -2.132951   -0.035752
     15          6           0       -2.482310    0.777240    0.163647
     16          6           0       -1.954378    2.054307   -0.490854
     17          6           0       -0.447843    2.235579   -0.303006
     18          1           0       -2.244873    0.797297    1.236105
     19          1           0       -1.952559   -0.088368   -0.257640
     20          1           0       -2.485941    2.917139   -0.069455
     21          1           0       -2.193268    2.031296   -1.561844
     22          1           0        0.098897    1.393563   -0.739681
     23          1           0       -0.195438    2.284440    0.761187
     24          1           0       -0.091669    3.154662   -0.778701
     25          6           0       -3.986809    0.582020   -0.015524
     26          6           0       -4.514742   -0.695047    0.638977
     27          6           0       -6.021277   -0.876318    0.451129
     28          1           0       -4.516560    1.447628    0.405764
     29          1           0       -4.224246    0.561963   -1.087981
     30          1           0       -4.275852   -0.672036    1.709966
     31          1           0       -3.983179   -1.557879    0.217577
     32          1           0       -6.273681   -0.925180   -0.613063
     33          1           0       -6.568016   -0.034303    0.887804
     34          1           0       -6.377451   -1.795402    0.926824
 ---------------------------------------------------------------------

 SCF Done:  E(RHF) =  -669.536051423     A.U. after   15 cycles
 E2 =    -0.2092733208D+01 EUMP2 =    -0.67162878463070D+03

 The electronic state is 1-A.
 Alpha  occ. eigenvalues --  -20.60952 -20.60936 -15.85955 -11.31225 -11.27793
 Alpha  occ. eigenvalues --  -11.27789 -11.27530 -11.26798 -11.26787 -11.21051
 Alpha  occ. eigenvalues --  -11.20851 -11.20739 -11.20682 -11.20566 -11.20459
 Alpha  occ. eigenvalues --   -1.60001  -1.39556  -1.19401  -1.08819  -1.07746
 Alpha  occ. eigenvalues --   -1.04792  -1.02938  -0.95665  -0.95404  -0.86433
 Alpha  occ. eigenvalues --   -0.86195  -0.82501  -0.78999  -0.77567  -0.77532
 Alpha  occ. eigenvalues --   -0.72181  -0.71329  -0.70515  -0.65059  -0.64800
 Alpha  occ. eigenvalues --   -0.64359  -0.62143  -0.60329  -0.58777  -0.57021
 Alpha  occ. eigenvalues --   -0.55305  -0.54708  -0.53162  -0.52888  -0.52123
 Alpha  occ. eigenvalues --   -0.51805  -0.49365  -0.48951  -0.48939  -0.47317
 Alpha  occ. eigenvalues --   -0.46009  -0.45122  -0.45005  -0.44870  -0.43163
 Alpha  occ. eigenvalues --   -0.37350  -0.36379
 Alpha virt. eigenvalues --    0.04949   0.11222   0.16451   0.21375   0.23491
 Alpha virt. eigenvalues --    0.24712   0.27135   0.27344   0.27869   0.28406
 Alpha virt. eigenvalues --    0.28544   0.30830   0.31729   0.32164   0.32468

 Mulliken charges:
               1
     1  C   -0.170367
     2  C   -0.218627
     3  C   -0.170532
     4  C    0.158195
     5  C   -0.171408
     6  C   -0.217751
     7  H    0.225766
     8  H    0.223522
     9  H    0.275724
    10  H    0.275603
    11  H    0.223668
    12  N    0.490183
    13  O   -0.460323
    14  O   -0.458614
    15  C   -0.304526
    16  C   -0.298090
    17  C   -0.477784
    18  H    0.144907
    19  H    0.166454
    20  H    0.148368
    21  H    0.154212
    22  H    0.155142
    23  H    0.151639
    24  H    0.156470
    25  C   -0.297841
    26  C   -0.300575
    27  C   -0.475485
    28  H    0.145430
    29  H    0.150397
    30  H    0.149308
    31  H    0.160322
    32  H    0.155132
    33  H    0.152373
    34  H    0.159105
 Sum of Mulliken charges =  -0.00000

 Dipole moment (field-independent basis, Debye):
    X=              4.0489    Y=              2.5192    Z=              2.1176  Tot=              5.2177
 Quadrupole moment (field-independent basis, Debye-Ang):
   XX=            -78.2835   YY=            -98.3088   ZZ=            -90.8673
   XY=              4.3397   XZ=              3.4763   YZ=             -3.4641

 Normal termination of Gaussian 16 at Wed May  5 17:21:38 2021.
