 Gaussian 16, Revision A.03,
 Gaussian 16:  EM64L-G16RevA.03 25-Dec-2016

 -------------
 #p 6-31g* mp2
 -------------

 ------------------------------------------------------
 Input file generated by CHIRIPA (05-May-2021 14:57:25)
 ------------------------------------------------------
 Symbolic Z-matrix:
 Charge =  0 Multiplicity = 1

                         Standard orientation:
 ---------------------------------------------------------------------
 Center     Atomic      Atomic             Coordinates (Angstroms)
 Number     Number       Type             X           Y           Z
 ---------------------------------------------------------------------
      1          6           0        6.006256   -0.305054   -0.593305
      2          6           0        5.125991    0.497362   -1.326642
      3          6           0        3.795178    0.643202   -0.923882
      4          6           0        3.376452   -0.030777    0.222290
      5          6           0        4.229384   -0.837384    0.974076
      6          6           0        5.555936   -0.968696    0.552694
      7          1           0        7.038409   -0.412703   -0.913412
      8          1           0        5.472946    1.013938   -2.217045
      9          1           0        3.092444    1.258105   -1.472951
     10          1           0        3.854345   -1.339881    1.857400
     11          1           0        6.237333   -1.592523    1.124169
     12          7           0        1.969835    0.115926    0.658531
     13          8           0        1.625570   -0.488361    1.671919
     14          8           0        1.238229    0.832423   -0.021190
     15          6           0       -4.515969   -2.284945   -0.409029
     16          6           0       -5.283738   -1.302358    0.224671
     17          6           0       -4.790905   -0.002551    0.373546
     18          6           0       -3.520528    0.281169   -0.125388
     19          6           0       -2.731502   -0.675972   -0.761479
     20          6           0       -3.244543   -1.969171   -0.899217
     21          1           0       -4.906662   -3.292099   -0.520353
     22          1           0       -6.271480   -1.544734    0.606333
     23          1           0       -5.364041    0.777400    0.859971
     24          1           0       -1.750405   -0.404252   -1.131659
     25          1           0       -2.646056   -2.730241   -1.391794
     26          7           0       -2.988091    1.653719    0.026324
     27          8           0       -1.865905    1.878258   -0.421916
     28          8           0       -3.703034    2.478996    0.590604
 ---------------------------------------------------------------------

 SCF Done:  E(RHF) =  -868.336587685     A.U. after   16 cycles
 E2 =    -0.2600110697D+01 EUMP2 =    -0.87093669838202D+03

 The electronic state is 1-A.
 Alpha  occ. eigenvalues --  -20.60485 -20.60420 -20.59498 -20.59366 -15.85491
 Alpha  occ. eigenvalues --  -15.84481 -11.30993 -11.30074 -11.27595 -11.27555
 Alpha  occ. eigenvalues --  -11.27353 -11.26741 -11.26634 -11.26614 -11.26609
 Alpha  occ. eigenvalues --  -11.26547 -11.25814 -11.25763  -1.59535  -1.58510
 Alpha  occ. eigenvalues --   -1.39078  -1.38048  -1.19183  -1.18291  -1.08555
 Alpha  occ. eigenvalues --   -1.07660  -1.04602  -1.03734  -0.95361  -0.94447
 Alpha  occ. eigenvalues --   -0.85993  -0.85123  -0.82185  -0.81273  -0.77217
 Alpha  occ. eigenvalues --   -0.76265  -0.71702  -0.70877  -0.70674  -0.70285
 Alpha  occ. eigenvalues --   -0.69830  -0.69417  -0.64826  -0.64604  -0.63946
 Alpha  occ. eigenvalues --   -0.63761  -0.61943  -0.61070  -0.55102  -0.54269
 Alpha  occ. eigenvalues --   -0.52931  -0.52692  -0.52051  -0.51840  -0.48495
 Alpha  occ. eigenvalues --   -0.48455  -0.47511  -0.47411  -0.44451  -0.43382
 Alpha  occ. eigenvalues --   -0.37178  -0.36308  -0.36214  -0.35342
 Alpha virt. eigenvalues --    0.05297   0.06275   0.11438   0.12309   0.16756
 Alpha virt. eigenvalues --    0.17695   0.21569   0.22341   0.27477   0.28203
 Alpha virt. eigenvalues --    0.28481   0.29289   0.31112   0.31833   0.32729

 Mulliken charges:
               1
     1  C   -0.171260
     2  C   -0.218730
     3  C   -0.171891
     4  C    0.157535
     5  C   -0.171595
     6  C   -0.218686
     7  H    0.224842
     8  H    0.223425
     9  H    0.278602
    10  H    0.274731
    11  H    0.222457
    12  N    0.486446
    13  O   -0.464235
    14  O   -0.450247
    15  C   -0.171473
    16  C   -0.219208
    17  C   -0.171473
    18  C    0.158238
    19  C   -0.167713
    20  C   -0.219094
    21  H    0.221263
    22  H    0.219436
    23  H    0.273147
    24  H    0.284120
    25  H    0.219520
    26  N    0.487325
    27  O   -0.446541
    28  O   -0.468941
 Sum of Mulliken charges =  -0.00000

 Dipole moment (field-independent basis, Debye):
    X=              3.3523    Y=             -5.1582    Z=             -2.1381  Tot=              6.5128
 Quadrupole moment (field-independent basis, Debye-Ang):
   XX=            -57.4023   YY=           -106.8361   ZZ=           -102.4213
   XY=             12.7702   XZ=             -3.6224   YZ=             -1.7457

 Normal termination of Gaussian 16 at Wed May  5 19:30:15 2021.
