 Gaussian 16, Revision A.03,
 Gaussian 16:  EM64L-G16RevA.03 25-Dec-2016

 -------------
 #p 6-31g* mp2
 -------------

 ------------------------------------------------------
 Input file generated by CHIRIPA (05-May-2021 14:55:22)
 ------------------------------------------------------
 Symbolic Z-matrix:
 Charge =  0 Multiplicity = 1

                         Standard orientation:
 ---------------------------------------------------------------------
 Center     Atomic      Atomic             Coordinates (Angstroms)
 Number     Number       Type             X           Y           Z
 ---------------------------------------------------------------------
      1          6           0       -5.658621    0.324595    0.293149
      2          6           0       -4.736028    1.273341   -0.159866
      3          6           0       -3.401256    0.918561   -0.376807
      4          6           0       -3.021778   -0.399809   -0.129444
      5          6           0       -3.917362   -1.367888    0.322266
      6          6           0       -5.247069   -0.990673    0.532347
      7          1           0       -6.693537    0.608911    0.459010
      8          1           0       -5.052818    2.295530   -0.346467
      9          1           0       -2.666175    1.632913   -0.727198
     10          1           0       -3.571786   -2.379123    0.499466
     11          1           0       -5.961383   -1.729592    0.884198
     12          7           0       -1.611396   -0.787275   -0.355479
     13          8           0       -1.302220   -1.955289   -0.130112
     14          8           0       -0.841819    0.084381   -0.753733
     15          6           0        4.369656   -0.305098    0.154378
     16          6           0        5.866878   -0.529747   -0.059744
     17          6           0        6.260005   -2.005390    0.015919
     18          1           0        4.080262   -0.713445    1.132360
     19          1           0        3.809009   -0.874030   -0.600198
     20          1           0        6.424577    0.040541    0.694152
     21          1           0        6.152779   -0.120646   -1.037247
     22          1           0        5.729482   -2.584979   -0.746460
     23          1           0        6.002824   -2.422877    0.994778
     24          1           0        7.334530   -2.143093   -0.139942
     25          6           0        3.961162    1.165129    0.081631
     26          6           0        2.463941    1.389779    0.295753
     27          6           0        2.070814    2.865421    0.220090
     28          1           0        4.521810    1.734061    0.836207
     29          1           0        4.250557    1.573477   -0.896350
     30          1           0        2.178040    0.980677    1.273257
     31          1           0        1.906243    0.819490   -0.458143
     32          1           0        2.327996    3.282907   -0.758768
     33          1           0        2.601338    3.445011    0.982469
     34          1           0        0.996289    3.003125    0.375951
 ---------------------------------------------------------------------

 SCF Done:  E(RHF) =  -669.536092922     A.U. after   15 cycles
 E2 =    -0.2091024251D+01 EUMP2 =    -0.67162711717378D+03

 The electronic state is 1-A.
 Alpha  occ. eigenvalues --  -20.60955 -20.60940 -15.85981 -11.31299 -11.27861
 Alpha  occ. eigenvalues --  -11.27858 -11.27598 -11.26868 -11.26858 -11.20743
 Alpha  occ. eigenvalues --  -11.20307 -11.20301 -11.20229 -11.20063 -11.19989
 Alpha  occ. eigenvalues --   -1.60008  -1.39564  -1.19466  -1.08871  -1.07321
 Alpha  occ. eigenvalues --   -1.04862  -1.02451  -0.95715  -0.94960  -0.86263
 Alpha  occ. eigenvalues --   -0.85985  -0.82550  -0.78512  -0.77603  -0.77081
 Alpha  occ. eigenvalues --   -0.72204  -0.71320  -0.70575  -0.65123  -0.64865
 Alpha  occ. eigenvalues --   -0.63957  -0.62210  -0.59851  -0.58325  -0.56538
 Alpha  occ. eigenvalues --   -0.55366  -0.54270  -0.53194  -0.52954  -0.51682
 Alpha  occ. eigenvalues --   -0.51378  -0.49058  -0.48954  -0.48865  -0.46815
 Alpha  occ. eigenvalues --   -0.45526  -0.45002  -0.44647  -0.44453  -0.42714
 Alpha  occ. eigenvalues --   -0.37445  -0.36463
 Alpha virt. eigenvalues --    0.04921   0.11191   0.16414   0.21279   0.23912
 Alpha virt. eigenvalues --    0.25203   0.27188   0.27743   0.27980   0.28768
 Alpha virt. eigenvalues --    0.29013   0.30785   0.31926   0.32404   0.32870

 Mulliken charges:
               1
     1  C   -0.170594
     2  C   -0.218531
     3  C   -0.170960
     4  C    0.157794
     5  C   -0.170572
     6  C   -0.218592
     7  H    0.226018
     8  H    0.223922
     9  H    0.275802
    10  H    0.275873
    11  H    0.223824
    12  N    0.490956
    13  O   -0.459048
    14  O   -0.461993
    15  C   -0.298047
    16  C   -0.298852
    17  C   -0.475095
    18  H    0.149009
    19  H    0.155379
    20  H    0.149051
    21  H    0.150042
    22  H    0.156142
    23  H    0.154428
    24  H    0.156913
    25  C   -0.298188
    26  C   -0.305285
    27  C   -0.473952
    28  H    0.143624
    29  H    0.146135
    30  H    0.147859
    31  H    0.179874
    32  H    0.151271
    33  H    0.148425
    34  H    0.157368
 Sum of Mulliken charges =  -0.00000

 Dipole moment (field-independent basis, Debye):
    X=             -5.3032    Y=              1.2086    Z=              0.7114  Tot=              5.4855
 Quadrupole moment (field-independent basis, Debye-Ang):
   XX=            -66.5496   YY=            -93.2060   ZZ=            -94.4677
   XY=             -0.9990   XZ=             -2.3087   YZ=             -2.0819

 Normal termination of Gaussian 16 at Thu May  6 04:40:30 2021.
