 Gaussian 16, Revision A.03,
 Gaussian 16:  EM64L-G16RevA.03 25-Dec-2016

 -------------
 #p 6-31g* mp2
 -------------

 ------------------------------------------------------
 Input file generated by CHIRIPA (05-May-2021 14:55:25)
 ------------------------------------------------------
 Symbolic Z-matrix:
 Charge =  0 Multiplicity = 1

                         Standard orientation:
 ---------------------------------------------------------------------
 Center     Atomic      Atomic             Coordinates (Angstroms)
 Number     Number       Type             X           Y           Z
 ---------------------------------------------------------------------
      1          6           0       -0.897350    0.539262    2.048578
      2          6           0       -0.468846   -0.302137    1.016612
      3          6           0       -1.360365   -0.718274    0.023348
      4          6           0       -2.679138   -0.271902    0.093192
      5          6           0       -3.136317    0.566713    1.108575
      6          6           0       -2.227373    0.970242    2.091191
      7          1           0       -0.198029    0.857630    2.816033
      8          1           0        0.563479   -0.638412    0.980985
      9          1           0       -1.055323   -1.369384   -0.786851
     10          1           0       -4.171590    0.885384    1.117398
     11          1           0       -2.562952    1.623712    2.891446
     12          7           0       -3.632173   -0.705773   -0.952695
     13          8           0       -4.788780   -0.298552   -0.868628
     14          8           0       -3.204509   -1.444848   -1.836725
     15          6           0        2.892290    0.719872   -0.845749
     16          6           0        2.630537    2.124380   -0.300931
     17          6           0        1.958021    3.039676   -1.324528
     18          1           0        3.521358    0.793052   -1.743447
     19          1           0        1.940071    0.275307   -1.166740
     20          1           0        3.582785    2.565633    0.020217
     21          1           0        2.002178    2.047835    0.595685
     22          1           0        0.994414    2.624963   -1.637701
     23          1           0        2.584004    3.145704   -2.216438
     24          1           0        1.780192    4.038590   -0.914151
     25          6           0        3.564202   -0.206862    0.165897
     26          6           0        3.825953   -1.611370   -0.378921
     27          6           0        4.498471   -2.526666    0.644676
     28          1           0        4.516421    0.237704    0.486888
     29          1           0        2.935133   -0.280041    1.063595
     30          1           0        4.454314   -1.534824   -1.275537
     31          1           0        2.873706   -2.052622   -0.700069
     32          1           0        3.872488   -2.632694    1.536586
     33          1           0        5.462077   -2.111953    0.957849
     34          1           0        4.676299   -3.525578    0.234299
 ---------------------------------------------------------------------

 SCF Done:  E(RHF) =  -669.535336398     A.U. after   15 cycles
 E2 =    -0.2092968470D+01 EUMP2 =    -0.67162830486778D+03

 The electronic state is 1-A.
 Alpha  occ. eigenvalues --  -20.60795 -20.60790 -15.85849 -11.31234 -11.27802
 Alpha  occ. eigenvalues --  -11.27797 -11.27544 -11.26818 -11.26789 -11.22449
 Alpha  occ. eigenvalues --  -11.22364 -11.22282 -11.22147 -11.21786 -11.21514
 Alpha  occ. eigenvalues --   -1.59870  -1.39423  -1.19407  -1.09269  -1.08793
 Alpha  occ. eigenvalues --   -1.04811  -1.04237  -0.96684  -0.95629  -0.87688
 Alpha  occ. eigenvalues --   -0.86210  -0.82462  -0.80312  -0.79075  -0.77512
 Alpha  occ. eigenvalues --   -0.72067  -0.71194  -0.70512  -0.66147  -0.65058
 Alpha  occ. eigenvalues --   -0.64650  -0.62123  -0.61644  -0.60046  -0.58291
 Alpha  occ. eigenvalues --   -0.56002  -0.55286  -0.53334  -0.53131  -0.53108
 Alpha  occ. eigenvalues --   -0.52851  -0.50623  -0.48829  -0.48821  -0.48613
 Alpha  occ. eigenvalues --   -0.47367  -0.46596  -0.46549  -0.44824  -0.44528
 Alpha  occ. eigenvalues --   -0.37375  -0.36396
 Alpha virt. eigenvalues --    0.04999   0.11148   0.16402   0.18582   0.23100
 Alpha virt. eigenvalues --    0.23571   0.25050   0.25350   0.27077   0.28747
 Alpha virt. eigenvalues --    0.29780   0.30578   0.31105   0.31380   0.31840

 Mulliken charges:
               1
     1  C   -0.173906
     2  C   -0.222916
     3  C   -0.174397
     4  C    0.158969
     5  C   -0.170988
     6  C   -0.218394
     7  H    0.226021
     8  H    0.235083
     9  H    0.275888
    10  H    0.275858
    11  H    0.223767
    12  N    0.488024
    13  O   -0.460260
    14  O   -0.460237
    15  C   -0.301089
    16  C   -0.298788
    17  C   -0.476550
    18  H    0.155200
    19  H    0.147533
    20  H    0.153200
    21  H    0.145716
    22  H    0.159319
    23  H    0.157163
    24  H    0.161028
    25  C   -0.302229
    26  C   -0.300762
    27  C   -0.475604
    28  H    0.155484
    29  H    0.137900
    30  H    0.157431
    31  H    0.148400
    32  H    0.152403
    33  H    0.157508
    34  H    0.164225
 Sum of Mulliken charges =  -0.00000

 Dipole moment (field-independent basis, Debye):
    X=              3.4758    Y=              1.5623    Z=              3.5920  Tot=              5.2368
 Quadrupole moment (field-independent basis, Debye-Ang):
   XX=           -109.0073   YY=            -95.0838   ZZ=            -93.8436
   XY=             -6.7276   XZ=            -12.4463   YZ=              0.8496

 Normal termination of Gaussian 16 at Thu May  6 01:36:46 2021.
