 Gaussian 16, Revision A.03,
 Gaussian 16:  EM64L-G16RevA.03 25-Dec-2016

 -------------
 #p 6-31g* mp2
 -------------

 ------------------------------------------------------
 Input file generated by CHIRIPA (05-May-2021 14:51:10)
 ------------------------------------------------------
 Symbolic Z-matrix:
 Charge =  0 Multiplicity = 1

                         Standard orientation:
 ---------------------------------------------------------------------
 Center     Atomic      Atomic             Coordinates (Angstroms)
 Number     Number       Type             X           Y           Z
 ---------------------------------------------------------------------
      1          6           0       -3.170855    0.891889   -0.304070
      2          6           0       -2.573796    1.921289    0.656056
      3          6           0       -3.330308    3.249943    0.643417
      4          1           0       -3.170826    1.305814   -1.321720
      5          1           0       -4.222578    0.718610   -0.037146
      6          1           0       -1.523122    2.091544    0.388260
      7          1           0       -2.575071    1.504791    1.671508
      8          1           0       -4.375823    3.100711    0.931911
      9          1           0       -3.317898    3.690798   -0.358628
     10          1           0       -2.886646    3.971150    1.336876
     11          6           0       -2.425449   -0.441563   -0.302729
     12          6           0       -3.022508   -1.470963   -1.262855
     13          6           0       -2.265996   -2.799618   -1.250216
     14          1           0       -1.373726   -0.268284   -0.569654
     15          1           0       -2.425478   -0.855488    0.714921
     16          1           0       -3.021233   -1.054465   -2.278307
     17          1           0       -4.073181   -1.641218   -0.995059
     18          1           0       -2.278406   -3.240472   -0.248171
     19          1           0       -1.220481   -2.650385   -1.538710
     20          1           0       -2.709658   -3.520824   -1.943675
     21          6           0        2.630743   -0.774826    0.806665
     22          6           0        1.128813   -1.010372    0.970098
     23          6           0        0.809822   -2.112954    1.980224
     24          1           0        3.110346   -1.711932    0.492405
     25          1           0        3.062450   -0.514901    1.783119
     26          1           0        0.699828   -1.268423   -0.006630
     27          1           0        0.652702   -0.072549    1.283822
     28          1           0        1.210884   -1.859318    2.966842
     29          1           0        1.258278   -3.061987    1.669060
     30          1           0       -0.269335   -2.264719    2.081456
     31          6           0        2.965561    0.324501   -0.199866
     32          6           0        4.467491    0.560046   -0.363299
     33          6           0        4.786482    1.662627   -1.373424
     34          1           0        2.533854    0.064574   -1.176320
     35          1           0        2.485958    1.261606    0.114395
     36          1           0        4.943602   -0.377777   -0.677022
     37          1           0        4.896476    0.818098    0.613429
     38          1           0        4.338026    2.611662   -1.062261
     39          1           0        4.385420    1.408993   -2.360044
     40          1           0        5.865639    1.814393   -1.474657
 ---------------------------------------------------------------------

 SCF Done:  E(RHF) =  -470.732504803     A.U. after   11 cycles
 E2 =    -0.1584296780D+01 EUMP2 =    -0.47231680158359D+03

 The electronic state is 1-A.
 Alpha  occ. eigenvalues --  -11.21612 -11.21600 -11.21580 -11.21515 -11.21406
 Alpha  occ. eigenvalues --  -11.21354 -11.21327 -11.21257 -11.21088 -11.21085
 Alpha  occ. eigenvalues --  -11.21072 -11.21025  -1.08457  -1.08368  -1.03554
 Alpha  occ. eigenvalues --   -1.03481  -0.95979  -0.95953  -0.87000  -0.86968
 Alpha  occ. eigenvalues --   -0.79683  -0.79531  -0.78448  -0.77980  -0.65104
 Alpha  occ. eigenvalues --   -0.64993  -0.61000  -0.60843  -0.59458  -0.59227
 Alpha  occ. eigenvalues --   -0.57649  -0.57506  -0.55263  -0.55249  -0.52691
 Alpha  occ. eigenvalues --   -0.52641  -0.52403  -0.52387  -0.49920  -0.49911
 Alpha  occ. eigenvalues --   -0.48085  -0.47858  -0.46768  -0.46484  -0.46171
 Alpha  occ. eigenvalues --   -0.45747  -0.45650  -0.45089  -0.43767  -0.43746
 Alpha virt. eigenvalues --    0.20813   0.22983   0.23270   0.24332   0.24859
 Alpha virt. eigenvalues --    0.25991   0.26770   0.27731   0.28720   0.29654
 Alpha virt. eigenvalues --    0.29996   0.30739   0.31758   0.32186   0.32385

 Mulliken charges:
               1
     1  C   -0.297719
     2  C   -0.300618
     3  C   -0.475652
     4  H    0.149334
     5  H    0.149056
     6  H    0.152491
     7  H    0.151693
     8  H    0.155278
     9  H    0.155254
    10  H    0.160024
    11  C   -0.304279
    12  C   -0.299773
    13  C   -0.477506
    14  H    0.157773
    15  H    0.150040
    16  H    0.151510
    17  H    0.151586
    18  H    0.155948
    19  H    0.155646
    20  H    0.160317
    21  C   -0.297880
    22  C   -0.304372
    23  C   -0.477120
    24  H    0.149375
    25  H    0.149295
    26  H    0.156095
    27  H    0.154215
    28  H    0.154641
    29  H    0.155024
    30  H    0.161526
    31  C   -0.298321
    32  C   -0.299501
    33  C   -0.475721
    34  H    0.148438
    35  H    0.149249
    36  H    0.152051
    37  H    0.152113
    38  H    0.155120
    39  H    0.155019
    40  H    0.160350
 Sum of Mulliken charges =  -0.00000

 Dipole moment (field-independent basis, Debye):
    X=              0.0026    Y=             -0.0033    Z=             -0.0013  Tot=              0.0043
 Quadrupole moment (field-independent basis, Debye-Ang):
   XX=            -84.9113   YY=            -85.8588   ZZ=            -84.1913
   XY=              0.3504   XZ=             -0.1803   YZ=              0.7084

 Normal termination of Gaussian 16 at Wed May  5 16:40:15 2021.
