 Gaussian 16, Revision A.03,
 Gaussian 16:  EM64L-G16RevA.03 25-Dec-2016

 -------------
 #p 6-31g* mp2
 -------------

 ------------------------------------------------------
 Input file generated by CHIRIPA (05-May-2021 14:57:25)
 ------------------------------------------------------
 Symbolic Z-matrix:
 Charge =  0 Multiplicity = 1

                         Standard orientation:
 ---------------------------------------------------------------------
 Center     Atomic      Atomic             Coordinates (Angstroms)
 Number     Number       Type             X           Y           Z
 ---------------------------------------------------------------------
      1          6           0        1.978951    1.687734    0.007942
      2          6           0        1.672305    0.332937    0.172301
      3          6           0        2.680960   -0.634027    0.126016
      4          6           0        3.991338   -0.208974   -0.087365
      5          6           0        4.328613    1.133243   -0.254660
      6          6           0        3.303790    2.082867   -0.204639
      7          1           0        1.189123    2.432160    0.045348
      8          1           0        0.644304    0.023170    0.337540
      9          1           0        2.471586   -1.689572    0.250134
     10          1           0        5.362724    1.411460   -0.417837
     11          1           0        3.544873    3.134317   -0.332610
     12          7           0        5.067714   -1.223477   -0.138342
     13          8           0        6.214265   -0.823192   -0.327632
     14          8           0        4.744446   -2.399719    0.011957
     15          6           0       -1.973128    1.625877    0.763034
     16          6           0       -2.686202    1.850126   -0.419235
     17          6           0       -3.708172    0.978974   -0.808103
     18          6           0       -3.991901   -0.111373    0.012830
     19          6           0       -3.299439   -0.361663    1.196528
     20          6           0       -2.281479    0.522643    1.565728
     21          1           0       -1.180795    2.307718    1.057476
     22          1           0       -2.448905    2.706095   -1.044576
     23          1           0       -4.276085    1.128876   -1.718280
     24          1           0       -3.558881   -1.223542    1.799250
     25          1           0       -1.729361    0.346004    2.484427
     26          7           0       -5.071692   -1.040586   -0.388436
     27          8           0       -5.302331   -1.993917    0.352241
     28          8           0       -5.666949   -0.797977   -1.436027
 ---------------------------------------------------------------------

 SCF Done:  E(RHF) =  -868.336603352     A.U. after   16 cycles
 E2 =    -0.2601197226D+01 EUMP2 =    -0.87093780057838D+03

 The electronic state is 1-A.
 Alpha  occ. eigenvalues --  -20.61495 -20.61490 -20.61158 -20.61153 -15.86556
 Alpha  occ. eigenvalues --  -15.86213 -11.32174 -11.31704 -11.28749 -11.28735
 Alpha  occ. eigenvalues --  -11.28665 -11.28265 -11.28247 -11.28155 -11.27879
 Alpha  occ. eigenvalues --  -11.27860 -11.27367 -11.27280  -1.60565  -1.60230
 Alpha  occ. eigenvalues --   -1.40111  -1.39780  -1.20387  -1.19888  -1.09771
 Alpha  occ. eigenvalues --   -1.09287  -1.05803  -1.05294  -0.96554  -0.96098
 Alpha  occ. eigenvalues --   -0.87204  -0.86701  -0.83355  -0.82916  -0.78329
 Alpha  occ. eigenvalues --   -0.77920  -0.72769  -0.72432  -0.71890  -0.71693
 Alpha  occ. eigenvalues --   -0.71554  -0.70954  -0.66040  -0.65815  -0.65546
 Alpha  occ. eigenvalues --   -0.65286  -0.63117  -0.62631  -0.56529  -0.55760
 Alpha  occ. eigenvalues --   -0.54198  -0.53884  -0.53636  -0.53318  -0.49549
 Alpha  occ. eigenvalues --   -0.49508  -0.49199  -0.49177  -0.45459  -0.45156
 Alpha  occ. eigenvalues --   -0.38423  -0.37929  -0.37396  -0.36885
 Alpha virt. eigenvalues --    0.04143   0.04587   0.10099   0.10770   0.15449
 Alpha virt. eigenvalues --    0.16027   0.18575   0.21980   0.24920   0.26156
 Alpha virt. eigenvalues --    0.27188   0.29386   0.29646   0.31358   0.32353

 Mulliken charges:
               1
     1  C   -0.174738
     2  C   -0.224664
     3  C   -0.171356
     4  C    0.159805
     5  C   -0.170870
     6  C   -0.217577
     7  H    0.215041
     8  H    0.229107
     9  H    0.277774
    10  H    0.277152
    11  H    0.223817
    12  N    0.487845
    13  O   -0.459127
    14  O   -0.458619
    15  C   -0.179906
    16  C   -0.217682
    17  C   -0.169401
    18  C    0.160101
    19  C   -0.170292
    20  C   -0.224266
    21  H    0.223075
    22  H    0.224769
    23  H    0.279398
    24  H    0.279678
    25  H    0.227720
    26  N    0.487857
    27  O   -0.457275
    28  O   -0.457365
 Sum of Mulliken charges =  -0.00000

 Dipole moment (field-independent basis, Debye):
    X=             -0.2180    Y=              6.6670    Z=              1.5359  Tot=              6.8451
 Quadrupole moment (field-independent basis, Debye-Ang):
   XX=           -162.2017   YY=           -103.8268   ZZ=           -102.2843
   XY=              3.8602   XZ=             -4.3620   YZ=             -3.8839

 Normal termination of Gaussian 16 at Wed May  5 16:26:58 2021.
