 Gaussian 16, Revision A.03,
 Gaussian 16:  EM64L-G16RevA.03 25-Dec-2016

 -------------
 #p 6-31g* mp2
 -------------

 ------------------------------------------------------
 Input file generated by CHIRIPA (05-May-2021 14:57:25)
 ------------------------------------------------------
 Symbolic Z-matrix:
 Charge =  0 Multiplicity = 1

                         Standard orientation:
 ---------------------------------------------------------------------
 Center     Atomic      Atomic             Coordinates (Angstroms)
 Number     Number       Type             X           Y           Z
 ---------------------------------------------------------------------
      1          6           0       -1.275310   -1.594147    0.605693
      2          6           0       -2.088114   -1.975173   -0.467008
      3          6           0       -3.231747   -1.237935   -0.788149
      4          6           0       -3.534118   -0.120178   -0.011953
      5          6           0       -2.744228    0.284832    1.062910
      6          6           0       -1.605379   -0.467347    1.365889
      7          1           0       -0.388766   -2.172655    0.848109
      8          1           0       -1.834228   -2.849807   -1.059124
      9          1           0       -3.878577   -1.510514   -1.613213
     10          1           0       -3.023127    1.161488    1.634844
     11          1           0       -0.975987   -0.169090    2.199527
     12          7           0       -4.742300    0.668212   -0.342316
     13          8           0       -4.986897    1.648924    0.356978
     14          8           0       -5.421797    0.290511   -1.294294
     15          6           0        2.936653    2.741202   -0.084065
     16          6           0        2.015435    1.895356    0.542374
     17          6           0        2.225928    0.513549    0.571501
     18          6           0        3.373505    0.009285   -0.038476
     19          6           0        4.309842    0.826056   -0.670497
     20          6           0        4.078902    2.204798   -0.687437
     21          1           0        2.765195    3.813432   -0.101957
     22          1           0        1.127468    2.309145    1.011777
     23          1           0        1.529079   -0.164186    1.049511
     24          1           0        5.185725    0.384170   -1.129825
     25          1           0        4.796043    2.859291   -1.174667
     26          7           0        3.607168   -1.451950   -0.014093
     27          8           0        4.626025   -1.871385   -0.558741
     28          8           0        2.767030   -2.150162    0.549207
 ---------------------------------------------------------------------

 SCF Done:  E(RHF) =  -868.338877216     A.U. after   16 cycles
 E2 =    -0.2600397086D+01 EUMP2 =    -0.87093927430272D+03

 The electronic state is 1-A.
 Alpha  occ. eigenvalues --  -20.61691 -20.61632 -20.60949 -20.60934 -15.86701
 Alpha  occ. eigenvalues --  -15.86001 -11.31866 -11.31352 -11.28470 -11.28372
 Alpha  occ. eigenvalues --  -11.28075 -11.28020 -11.27899 -11.27522 -11.27391
 Alpha  occ. eigenvalues --  -11.27336 -11.27019 -11.26799  -1.60720  -1.60022
 Alpha  occ. eigenvalues --   -1.40287  -1.39576  -1.20014  -1.19530  -1.09434
 Alpha  occ. eigenvalues --   -1.08898  -1.05397  -1.04946  -0.96312  -0.95729
 Alpha  occ. eigenvalues --   -0.86807  -0.86332  -0.83162  -0.82574  -0.78254
 Alpha  occ. eigenvalues --   -0.77651  -0.72937  -0.72217  -0.72028  -0.71348
 Alpha  occ. eigenvalues --   -0.71139  -0.70515  -0.65674  -0.65436  -0.65156
 Alpha  occ. eigenvalues --   -0.64948  -0.62786  -0.62264  -0.55880  -0.55300
 Alpha  occ. eigenvalues --   -0.53726  -0.53526  -0.53206  -0.53025  -0.49696
 Alpha  occ. eigenvalues --   -0.49644  -0.48975  -0.48971  -0.45733  -0.44985
 Alpha  occ. eigenvalues --   -0.37962  -0.37497  -0.36953  -0.36555
 Alpha virt. eigenvalues --    0.04271   0.04903   0.10644   0.10967   0.15818
 Alpha virt. eigenvalues --    0.16366   0.19267   0.22125   0.25432   0.26785
 Alpha virt. eigenvalues --    0.27858   0.29255   0.30471   0.31386   0.31764

 Mulliken charges:
               1
     1  C   -0.178353
     2  C   -0.220001
     3  C   -0.169925
     4  C    0.157811
     5  C   -0.171793
     6  C   -0.227795
     7  H    0.247840
     8  H    0.229084
     9  H    0.276687
    10  H    0.273297
    11  H    0.217262
    12  N    0.488183
    13  O   -0.462046
    14  O   -0.459241
    15  C   -0.169611
    16  C   -0.218513
    17  C   -0.169636
    18  C    0.158030
    19  C   -0.169741
    20  C   -0.218421
    21  H    0.229071
    22  H    0.223073
    23  H    0.268274
    24  H    0.276989
    25  H    0.226188
    26  N    0.490584
    27  O   -0.454966
    28  O   -0.472332
 Sum of Mulliken charges =  -0.00000

 Dipole moment (field-independent basis, Debye):
    X=              3.6007    Y=              2.3367    Z=              0.8723  Tot=              4.3802
 Quadrupole moment (field-independent basis, Debye-Ang):
   XX=           -136.8056   YY=           -102.3531   ZZ=           -101.8100
   XY=             28.8535   XZ=             -6.1981   YZ=              2.0616

 Normal termination of Gaussian 16 at Fri May  7 11:08:40 2021.
