 Gaussian 16, Revision A.03,
 Gaussian 16:  EM64L-G16RevA.03 25-Dec-2016

 -------------
 #p 6-31g* mp2
 -------------

 ------------------------------------------------------
 Input file generated by CHIRIPA (05-May-2021 14:55:21)
 ------------------------------------------------------
 Symbolic Z-matrix:
 Charge =  0 Multiplicity = 1

                         Standard orientation:
 ---------------------------------------------------------------------
 Center     Atomic      Atomic             Coordinates (Angstroms)
 Number     Number       Type             X           Y           Z
 ---------------------------------------------------------------------
      1          6           0       -2.131623    2.237371    0.639261
      2          6           0       -1.510603    1.486504   -0.364260
      3          6           0       -2.005536    0.227877   -0.718447
      4          6           0       -3.128347   -0.251396   -0.045481
      5          6           0       -3.769186    0.472790    0.958596
      6          6           0       -3.256949    1.729014    1.296328
      7          1           0       -1.740426    3.214169    0.908011
      8          1           0       -0.636511    1.878784   -0.876240
      9          1           0       -1.544265   -0.374526   -1.491594
     10          1           0       -4.638945    0.055222    1.451115
     11          1           0       -3.741285    2.309934    2.076068
     12          7           0       -3.661470   -1.582575   -0.411733
     13          8           0       -4.652002   -1.982422    0.196220
     14          8           0       -3.078705   -2.200901   -1.299818
     15          6           0        4.286275   -0.423526    0.441480
     16          6           0        4.284196   -1.880957   -0.020990
     17          6           0        5.077459   -2.797884    0.910552
     18          1           0        5.323797   -0.069047    0.511049
     19          1           0        3.868122   -0.367480    1.456073
     20          1           0        4.700950   -1.934063   -1.034948
     21          1           0        3.246551   -2.231949   -0.089651
     22          1           0        4.659140   -2.774582    1.922020
     23          1           0        6.121803   -2.475005    0.971351
     24          1           0        5.062786   -3.834982    0.561163
     25          6           0        3.497359    0.505449   -0.479576
     26          6           0        3.499439    1.962879   -0.017107
     27          6           0        2.706175    2.879807   -0.948649
     28          1           0        3.915513    0.449403   -1.494171
     29          1           0        2.459838    0.150970   -0.549146
     30          1           0        4.537083    2.313872    0.051554
     31          1           0        3.082684    2.015986    0.996851
     32          1           0        1.661831    2.556928   -1.009448
     33          1           0        3.124494    2.856505   -1.960117
     34          1           0        2.720848    3.916905   -0.599260
 ---------------------------------------------------------------------

 SCF Done:  E(RHF) =  -669.535525471     A.U. after   15 cycles
 E2 =    -0.2090991232D+01 EUMP2 =    -0.67162651670352D+03

 The electronic state is 1-A.
 Alpha  occ. eigenvalues --  -20.60769 -20.60764 -15.85823 -11.31192 -11.27766
 Alpha  occ. eigenvalues --  -11.27761 -11.27504 -11.26778 -11.26761 -11.22306
 Alpha  occ. eigenvalues --  -11.22063 -11.21946 -11.21834 -11.21739 -11.21221
 Alpha  occ. eigenvalues --   -1.59845  -1.39398  -1.19367  -1.08919  -1.08760
 Alpha  occ. eigenvalues --   -1.04772  -1.04033  -0.96502  -0.95593  -0.87523
 Alpha  occ. eigenvalues --   -0.86170  -0.82427  -0.80109  -0.78693  -0.77475
 Alpha  occ. eigenvalues --   -0.72041  -0.71169  -0.70471  -0.65570  -0.65018
 Alpha  occ. eigenvalues --   -0.64786  -0.62162  -0.61400  -0.59886  -0.58089
 Alpha  occ. eigenvalues --   -0.55824  -0.55260  -0.53197  -0.53100  -0.53039
 Alpha  occ. eigenvalues --   -0.52754  -0.50442  -0.48803  -0.48796  -0.48411
 Alpha  occ. eigenvalues --   -0.47132  -0.46243  -0.46137  -0.44803  -0.44271
 Alpha  occ. eigenvalues --   -0.37346  -0.36375
 Alpha virt. eigenvalues --    0.05059   0.11249   0.16518   0.19481   0.22729
 Alpha virt. eigenvalues --    0.23796   0.25271   0.26560   0.27145   0.28382
 Alpha virt. eigenvalues --    0.28696   0.29971   0.31129   0.31638   0.32021

 Mulliken charges:
               1
     1  C   -0.173166
     2  C   -0.226296
     3  C   -0.173416
     4  C    0.158888
     5  C   -0.171052
     6  C   -0.218610
     7  H    0.226198
     8  H    0.234930
     9  H    0.276234
    10  H    0.275626
    11  H    0.223461
    12  N    0.488020
    13  O   -0.460491
    14  O   -0.460377
    15  C   -0.298698
    16  C   -0.300537
    17  C   -0.476076
    18  H    0.150486
    19  H    0.150273
    20  H    0.152501
    21  H    0.154096
    22  H    0.155754
    23  H    0.154973
    24  H    0.162461
    25  C   -0.298175
    26  C   -0.299632
    27  C   -0.479738
    28  H    0.151174
    29  H    0.146381
    30  H    0.155429
    31  H    0.152161
    32  H    0.145288
    33  H    0.160073
    34  H    0.161854
 Sum of Mulliken charges =  -0.00000

 Dipole moment (field-independent basis, Debye):
    X=              2.0317    Y=              4.6550    Z=              1.3192  Tot=              5.2476
 Quadrupole moment (field-independent basis, Debye-Ang):
   XX=           -103.1923   YY=            -98.2128   ZZ=            -92.9919
   XY=            -15.1241   XZ=             -7.8694   YZ=              0.2893

 Normal termination of Gaussian 16 at Wed May  5 20:34:58 2021.
