 Gaussian 16, Revision A.03,
 Gaussian 16:  EM64L-G16RevA.03 25-Dec-2016

 -------------
 #p 6-31g* mp2
 -------------

 ------------------------------------------------------
 Input file generated by CHIRIPA (05-May-2021 14:51:09)
 ------------------------------------------------------
 Symbolic Z-matrix:
 Charge =  0 Multiplicity = 1

                         Standard orientation:
 ---------------------------------------------------------------------
 Center     Atomic      Atomic             Coordinates (Angstroms)
 Number     Number       Type             X           Y           Z
 ---------------------------------------------------------------------
      1          6           0        4.328612   -0.217282   -0.179204
      2          6           0        4.079624   -1.703670    0.078943
      3          6           0        5.317682   -2.563622   -0.176964
      4          1           0        4.662059   -0.082760   -1.217309
      5          1           0        5.153200    0.125807    0.460904
      6          1           0        3.254834   -2.043525   -0.560460
      7          1           0        3.746547   -1.834648    1.116498
      8          1           0        6.143501   -2.252461    0.470959
      9          1           0        5.648994   -2.462525   -1.215527
     10          1           0        5.117346   -3.622575    0.013678
     11          6           0        3.100213    0.655366    0.072289
     12          6           0        3.349200    2.141755   -0.185859
     13          6           0        2.111142    3.001706    0.070048
     14          1           0        2.275625    0.312278   -0.567820
     15          1           0        2.766766    0.520845    1.110394
     16          1           0        3.682277    2.272732   -1.223414
     17          1           0        4.173990    2.481609    0.453544
     18          1           0        1.779831    2.900610    1.108611
     19          1           0        1.285324    2.690546   -0.577875
     20          1           0        2.311478    4.060659   -0.120594
     21          6           0       -4.402329   -0.395855    0.334421
     22          6           0       -5.544079   -0.135450   -0.648727
     23          6           0       -6.914026   -0.494076   -0.072160
     24          1           0       -4.412938   -1.454831    0.626656
     25          1           0       -4.578212    0.183259    1.251528
     26          1           0       -5.365381   -0.713811   -1.564251
     27          1           0       -5.530633    0.922987   -0.938804
     28          1           0       -7.118019    0.092393    0.829528
     29          1           0       -6.951828   -1.553705    0.200528
     30          1           0       -7.715668   -0.300099   -0.791606
     31          6           0       -3.026496   -0.042229   -0.227505
     32          6           0       -1.884745   -0.302634    0.755643
     33          6           0       -0.514799    0.055992    0.179076
     34          1           0       -2.850612   -0.621344   -1.144613
     35          1           0       -3.015886    1.016747   -0.519741
     36          1           0       -1.898191   -1.361072    1.045719
     37          1           0       -2.063444    0.275727    1.671166
     38          1           0       -0.476997    1.115620   -0.093611
     39          1           0       -0.310805   -0.530478   -0.722612
     40          1           0        0.286843   -0.137985    0.898522
 ---------------------------------------------------------------------

 SCF Done:  E(RHF) =  -470.731532123     A.U. after   11 cycles
 E2 =    -0.1584033876D+01 EUMP2 =    -0.47231556599945D+03

 The electronic state is 1-A.
 Alpha  occ. eigenvalues --  -11.21581 -11.21571 -11.21537 -11.21518 -11.21370
 Alpha  occ. eigenvalues --  -11.21319 -11.21310 -11.21222 -11.21056 -11.21049
 Alpha  occ. eigenvalues --  -11.21002 -11.20922  -1.08412  -1.08351  -1.03533
 Alpha  occ. eigenvalues --   -1.03437  -0.95952  -0.95922  -0.86998  -0.86932
 Alpha  occ. eigenvalues --   -0.79729  -0.79436  -0.78279  -0.78065  -0.65025
 Alpha  occ. eigenvalues --   -0.65004  -0.60949  -0.60842  -0.59438  -0.59192
 Alpha  occ. eigenvalues --   -0.57701  -0.57417  -0.55370  -0.55084  -0.52831
 Alpha  occ. eigenvalues --   -0.52602  -0.52455  -0.52167  -0.50035  -0.49715
 Alpha  occ. eigenvalues --   -0.47984  -0.47768  -0.46633  -0.46492  -0.45902
 Alpha  occ. eigenvalues --   -0.45722  -0.45655  -0.45471  -0.43736  -0.43580
 Alpha virt. eigenvalues --    0.22105   0.23053   0.23794   0.24584   0.25605
 Alpha virt. eigenvalues --    0.26296   0.26532   0.27583   0.27841   0.29736
 Alpha virt. eigenvalues --    0.30336   0.31149   0.31662   0.31848   0.32257

 Mulliken charges:
               1
     1  C   -0.297452
     2  C   -0.299734
     3  C   -0.475555
     4  H    0.149164
     5  H    0.148871
     6  H    0.151890
     7  H    0.151322
     8  H    0.155147
     9  H    0.155119
    10  H    0.160039
    11  C   -0.303692
    12  C   -0.299282
    13  C   -0.477909
    14  H    0.160048
    15  H    0.148346
    16  H    0.151362
    17  H    0.151235
    18  H    0.154895
    19  H    0.158265
    20  H    0.159491
    21  C   -0.298153
    22  C   -0.299571
    23  C   -0.475671
    24  H    0.149544
    25  H    0.149470
    26  H    0.151779
    27  H    0.151885
    28  H    0.155164
    29  H    0.155126
    30  H    0.160160
    31  C   -0.298502
    32  C   -0.300736
    33  C   -0.480645
    34  H    0.149070
    35  H    0.149387
    36  H    0.151370
    37  H    0.151460
    38  H    0.159119
    39  H    0.152263
    40  H    0.165911
 Sum of Mulliken charges =  -0.00000

 Dipole moment (field-independent basis, Debye):
    X=              0.0092    Y=              0.0072    Z=             -0.0060  Tot=              0.0131
 Quadrupole moment (field-independent basis, Debye-Ang):
   XX=            -86.8170   YY=            -84.5818   ZZ=            -83.8006
   XY=              0.2736   XZ=              0.6205   YZ=              0.4177

 Normal termination of Gaussian 16 at Wed May  5 18:08:23 2021.
