 Gaussian 16, Revision A.03,
 Gaussian 16:  EM64L-G16RevA.03 25-Dec-2016

 -------------
 #p 6-31g* mp2
 -------------

 ------------------------------------------------------
 Input file generated by CHIRIPA (05-May-2021 14:55:19)
 ------------------------------------------------------
 Symbolic Z-matrix:
 Charge =  0 Multiplicity = 1

                         Standard orientation:
 ---------------------------------------------------------------------
 Center     Atomic      Atomic             Coordinates (Angstroms)
 Number     Number       Type             X           Y           Z
 ---------------------------------------------------------------------
      1          6           0       -1.751802    1.744114   -0.206600
      2          6           0       -3.104334    2.049688   -0.022745
      3          6           0       -4.056836    1.030198    0.066299
      4          6           0       -3.619789   -0.289802   -0.033106
      5          6           0       -2.279465   -0.626288   -0.216405
      6          6           0       -1.344402    0.409455   -0.302674
      7          1           0       -1.018649    2.542391   -0.274694
      8          1           0       -3.423606    3.085300    0.052209
      9          1           0       -5.110307    1.238494    0.208529
     10          1           0       -1.991551   -1.668145   -0.287532
     11          1           0       -0.294677    0.169179   -0.445470
     12          7           0       -4.618929   -1.377693    0.059692
     13          8           0       -4.208264   -2.532588   -0.030915
     14          8           0       -5.793801   -1.054888    0.221276
     15          6           0        4.850477   -0.405086    0.380725
     16          6           0        5.991935   -0.882731   -0.517560
     17          6           0        6.839054   -1.976164    0.134042
     18          1           0        5.267747   -0.032959    1.326428
     19          1           0        4.211533   -1.261638    0.636583
     20          1           0        6.627750   -0.025281   -0.772777
     21          1           0        5.571914   -1.253585   -1.461311
     22          1           0        6.223343   -2.849196    0.373449
     23          1           0        7.285179   -1.613913    1.065894
     24          1           0        7.649166   -2.302887   -0.525374
     25          6           0        3.994625    0.687975   -0.256820
     26          6           0        2.853168    1.165620    0.641465
     27          6           0        2.006050    2.259055   -0.010138
     28          1           0        4.633570    1.544528   -0.512679
     29          1           0        3.577357    0.315849   -1.202523
     30          1           0        3.273189    1.536475    1.585214
     31          1           0        2.217352    0.308171    0.896681
     32          1           0        1.559925    1.896803   -0.941990
     33          1           0        2.621761    3.132087   -0.249544
     34          1           0        1.195938    2.585778    0.649279
 ---------------------------------------------------------------------

 SCF Done:  E(RHF) =  -669.534932683     A.U. after   15 cycles
 E2 =    -0.2092018447D+01 EUMP2 =    -0.67162695112964D+03

 The electronic state is 1-A.
 Alpha  occ. eigenvalues --  -20.60709 -20.60703 -15.85762 -11.31107 -11.27677
 Alpha  occ. eigenvalues --  -11.27674 -11.27334 -11.26670 -11.26644 -11.22750
 Alpha  occ. eigenvalues --  -11.22522 -11.22278 -11.22150 -11.22051 -11.21498
 Alpha  occ. eigenvalues --   -1.59785  -1.39339  -1.19273  -1.09279  -1.08664
 Alpha  occ. eigenvalues --   -1.04684  -1.04408  -0.96892  -0.95501  -0.87917
 Alpha  occ. eigenvalues --   -0.86066  -0.82345  -0.80493  -0.79016  -0.77401
 Alpha  occ. eigenvalues --   -0.71980  -0.71108  -0.70394  -0.65962  -0.64922
 Alpha  occ. eigenvalues --   -0.64695  -0.62173  -0.61638  -0.60303  -0.58450
 Alpha  occ. eigenvalues --   -0.56164  -0.55234  -0.53507  -0.53302  -0.52976
 Alpha  occ. eigenvalues --   -0.52748  -0.50811  -0.48803  -0.48736  -0.48717
 Alpha  occ. eigenvalues --   -0.47515  -0.46569  -0.46461  -0.44749  -0.44636
 Alpha  occ. eigenvalues --   -0.37236  -0.36285
 Alpha virt. eigenvalues --    0.05124   0.11311   0.16584   0.19425   0.22533
 Alpha virt. eigenvalues --    0.23799   0.25474   0.26164   0.26727   0.27367
 Alpha virt. eigenvalues --    0.29172   0.29772   0.31041   0.31215   0.32273

 Mulliken charges:
               1
     1  C   -0.175114
     2  C   -0.219077
     3  C   -0.170993
     4  C    0.158463
     5  C   -0.171496
     6  C   -0.223940
     7  H    0.231617
     8  H    0.223145
     9  H    0.275205
    10  H    0.275088
    11  H    0.228982
    12  N    0.488059
    13  O   -0.460790
    14  O   -0.460646
    15  C   -0.298987
    16  C   -0.300295
    17  C   -0.476231
    18  H    0.151607
    19  H    0.150116
    20  H    0.152847
    21  H    0.152520
    22  H    0.156229
    23  H    0.156062
    24  H    0.162085
    25  C   -0.299213
    26  C   -0.302134
    27  C   -0.486108
    28  H    0.152299
    29  H    0.148841
    30  H    0.158053
    31  H    0.150566
    32  H    0.150706
    33  H    0.163287
    34  H    0.159247
 Sum of Mulliken charges =  -0.00000

 Dipole moment (field-independent basis, Debye):
    X=              3.8227    Y=              3.8570    Z=             -0.2901  Tot=              5.4382
 Quadrupole moment (field-independent basis, Debye-Ang):
   XX=           -117.0119   YY=            -95.0053   ZZ=            -95.5084
   XY=            -16.8019   XZ=              0.7160   YZ=              1.0264

 Normal termination of Gaussian 16 at Wed May  5 18:53:03 2021.
