 Gaussian 16, Revision A.03,
 Gaussian 16:  EM64L-G16RevA.03 25-Dec-2016

 -------------
 #p 6-31g* mp2
 -------------

 ------------------------------------------------------
 Input file generated by CHIRIPA (05-May-2021 14:51:10)
 ------------------------------------------------------
 Symbolic Z-matrix:
 Charge =  0 Multiplicity = 1

                         Standard orientation:
 ---------------------------------------------------------------------
 Center     Atomic      Atomic             Coordinates (Angstroms)
 Number     Number       Type             X           Y           Z
 ---------------------------------------------------------------------
      1          6           0        2.781696    1.132260    0.104893
      2          6           0        2.062882    2.002061   -0.926968
      3          6           0        2.402905    3.486329   -0.788669
      4          1           0        2.517993    1.477838    1.113844
      5          1           0        3.866524    1.272166    0.000164
      6          1           0        0.979778    1.859503   -0.821242
      7          1           0        2.328177    1.654250   -1.933578
      8          1           0        3.478158    3.648663   -0.915473
      9          1           0        2.122098    3.855082    0.203183
     10          1           0        1.878247    4.089715   -1.536010
     11          6           0        2.451933   -0.354091   -0.020585
     12          6           0        3.170747   -1.223892    1.011277
     13          6           0        2.830724   -2.708161    0.872977
     14          1           0        1.367104   -0.493997    0.084145
     15          1           0        2.715636   -0.699669   -1.029536
     16          1           0        2.905452   -0.876082    2.017886
     17          1           0        4.253851   -1.081335    0.905550
     18          1           0        3.111531   -3.076913   -0.118875
     19          1           0        1.755471   -2.870494    0.999782
     20          1           0        3.355382   -3.311547    1.620319
     21          6           0       -2.709162   -1.054074   -0.406424
     22          6           0       -1.460899   -1.936835   -0.382829
     23          6           0       -1.661284   -3.263723   -1.115637
     24          1           0       -3.546617   -1.602029    0.046743
     25          1           0       -2.991809   -0.858563   -1.450110
     26          1           0       -1.179884   -2.129480    0.660500
     27          1           0       -0.626270   -1.386644   -0.835931
     28          1           0       -1.919159   -3.089040   -2.165202
     29          1           0       -2.475918   -3.836097   -0.660269
     30          1           0       -0.756661   -3.879079   -1.086433
     31          6           0       -2.524466    0.275906    0.322115
     32          6           0       -3.772730    1.158667    0.298520
     33          6           0       -3.572345    2.485554    1.031329
     34          1           0       -2.241820    0.080395    1.365802
     35          1           0       -1.687011    0.823859   -0.131052
     36          1           0       -4.607358    0.608475    0.751623
     37          1           0       -4.053745    1.351312   -0.744809
     38          1           0       -2.757710    3.057929    0.575961
     39          1           0       -3.314469    2.310871    2.080894
     40          1           0       -4.476967    3.100911    1.002124
 ---------------------------------------------------------------------

 SCF Done:  E(RHF) =  -470.733201470     A.U. after   11 cycles
 E2 =    -0.1583951776D+01 EUMP2 =    -0.47231715324572D+03

 The electronic state is 1-A.
 Alpha  occ. eigenvalues --  -11.21650 -11.21626 -11.21617 -11.21568 -11.21466
 Alpha  occ. eigenvalues --  -11.21398 -11.21367 -11.21282 -11.21111 -11.21084
 Alpha  occ. eigenvalues --  -11.21077 -11.21041  -1.08491  -1.08399  -1.03576
 Alpha  occ. eigenvalues --   -1.03509  -0.96014  -0.95962  -0.87038  -0.86973
 Alpha  occ. eigenvalues --   -0.79696  -0.79539  -0.78436  -0.78090  -0.65178
 Alpha  occ. eigenvalues --   -0.64976  -0.60979  -0.60914  -0.59430  -0.59284
 Alpha  occ. eigenvalues --   -0.57634  -0.57567  -0.55320  -0.55233  -0.52708
 Alpha  occ. eigenvalues --   -0.52662  -0.52493  -0.52344  -0.50012  -0.49857
 Alpha  occ. eigenvalues --   -0.48106  -0.47811  -0.46733  -0.46585  -0.46315
 Alpha  occ. eigenvalues --   -0.45773  -0.45724  -0.45071  -0.43819  -0.43762
 Alpha virt. eigenvalues --    0.20379   0.22181   0.23478   0.24427   0.25170
 Alpha virt. eigenvalues --    0.26313   0.26948   0.27166   0.28706   0.29775
 Alpha virt. eigenvalues --    0.30759   0.31057   0.31658   0.31831   0.31975

 Mulliken charges:
               1
     1  C   -0.297297
     2  C   -0.302992
     3  C   -0.475617
     4  H    0.149726
     5  H    0.149390
     6  H    0.153471
     7  H    0.151805
     8  H    0.155448
     9  H    0.155493
    10  H    0.159987
    11  C   -0.307152
    12  C   -0.298901
    13  C   -0.478475
    14  H    0.159795
    15  H    0.148421
    16  H    0.151631
    17  H    0.151673
    18  H    0.154815
    19  H    0.158097
    20  H    0.160004
    21  C   -0.297773
    22  C   -0.306659
    23  C   -0.476130
    24  H    0.149851
    25  H    0.149780
    26  H    0.151180
    27  H    0.159404
    28  H    0.155243
    29  H    0.155066
    30  H    0.161592
    31  C   -0.302503
    32  C   -0.299494
    33  C   -0.475830
    34  H    0.149273
    35  H    0.152280
    36  H    0.152315
    37  H    0.152224
    38  H    0.155197
    39  H    0.155114
    40  H    0.160545
 Sum of Mulliken charges =  -0.00000

 Dipole moment (field-independent basis, Debye):
    X=             -0.0314    Y=             -0.0077    Z=             -0.0064  Tot=              0.0330
 Quadrupole moment (field-independent basis, Debye-Ang):
   XX=            -84.1336   YY=            -86.8206   ZZ=            -83.8353
   XY=             -0.0913   XZ=             -0.7744   YZ=             -0.7267

 Normal termination of Gaussian 16 at Wed May  5 18:12:21 2021.
