 Gaussian 16, Revision A.03,
 Gaussian 16:  EM64L-G16RevA.03 25-Dec-2016

 -------------
 #p 6-31g* mp2
 -------------

 ------------------------------------------------------
 Input file generated by CHIRIPA (05-May-2021 14:51:08)
 ------------------------------------------------------
 Symbolic Z-matrix:
 Charge =  0 Multiplicity = 1

                         Standard orientation:
 ---------------------------------------------------------------------
 Center     Atomic      Atomic             Coordinates (Angstroms)
 Number     Number       Type             X           Y           Z
 ---------------------------------------------------------------------
      1          6           0       -3.402959   -0.599516   -0.030923
      2          6           0       -2.374606   -0.194903    1.025848
      3          6           0       -0.978741   -0.746448    0.734034
      4          1           0       -3.445482   -1.695646   -0.091222
      5          1           0       -3.066021   -0.245179   -1.014952
      6          1           0       -2.714065   -0.548695    2.007792
      7          1           0       -2.334664    0.900389    1.083773
      8          1           0       -0.615313   -0.383146   -0.232678
      9          1           0       -0.996870   -1.840463    0.696591
     10          1           0       -0.259407   -0.445143    1.501910
     11          6           0       -4.803242   -0.055710    0.246941
     12          6           0       -5.831595   -0.460323   -0.809829
     13          6           0       -7.227460    0.091221   -0.518016
     14          1           0       -5.140180   -0.410047    1.230970
     15          1           0       -4.760719    1.040420    0.307240
     16          1           0       -5.871537   -1.555615   -0.867755
     17          1           0       -5.492136   -0.106532   -1.791774
     18          1           0       -7.209331    1.185237   -0.480573
     19          1           0       -7.590888   -0.272080    0.448697
     20          1           0       -7.946794   -0.210083   -1.285892
     21          6           0        3.587847    0.803893   -0.409841
     22          6           0        2.408600    1.090144    0.520440
     23          6           0        1.386312    2.044559   -0.097473
     24          1           0        4.079330    1.751210   -0.670568
     25          1           0        3.209537    0.378951   -1.349895
     26          1           0        2.789135    1.513135    1.458996
     27          1           0        1.919984    0.142016    0.779136
     28          1           0        0.978957    1.625902   -1.023426
     29          1           0        1.853047    3.004811   -0.339703
     30          1           0        0.551823    2.235395    0.584487
     31          6           0        4.618354   -0.148667    0.193823
     32          6           0        5.797601   -0.434918   -0.736458
     33          6           0        6.819889   -1.389332   -0.118546
     34          1           0        4.996664    0.276276    1.133876
     35          1           0        4.126871   -1.095985    0.454551
     36          1           0        6.286218    0.513210   -0.995154
     37          1           0        5.417067   -0.857909   -1.675014
     38          1           0        6.353155   -2.349585    0.123684
     39          1           0        7.227244   -0.970675    0.807407
     40          1           0        7.654378   -1.580169   -0.800505
 ---------------------------------------------------------------------

 SCF Done:  E(RHF) =  -470.732365754     A.U. after   11 cycles
 E2 =    -0.1583424438D+01 EUMP2 =    -0.47231579019253D+03

 The electronic state is 1-A.
 Alpha  occ. eigenvalues --  -11.21602 -11.21600 -11.21570 -11.21482 -11.21404
 Alpha  occ. eigenvalues --  -11.21356 -11.21345 -11.21295 -11.21070 -11.21046
 Alpha  occ. eigenvalues --  -11.21028 -11.21024  -1.08437  -1.08372  -1.03581
 Alpha  occ. eigenvalues --   -1.03435  -0.96062  -0.95861  -0.87028  -0.86932
 Alpha  occ. eigenvalues --   -0.79644  -0.79510  -0.78251  -0.78186  -0.65119
 Alpha  occ. eigenvalues --   -0.64972  -0.61157  -0.60728  -0.59535  -0.59135
 Alpha  occ. eigenvalues --   -0.57713  -0.57408  -0.55498  -0.54988  -0.52715
 Alpha  occ. eigenvalues --   -0.52583  -0.52437  -0.52322  -0.50014  -0.49760
 Alpha  occ. eigenvalues --   -0.47920  -0.47864  -0.46616  -0.46572  -0.45792
 Alpha  occ. eigenvalues --   -0.45749  -0.45690  -0.45658  -0.43785  -0.43665
 Alpha virt. eigenvalues --    0.21351   0.23050   0.23503   0.25247   0.26367
 Alpha virt. eigenvalues --    0.26498   0.26605   0.27564   0.27643   0.29461
 Alpha virt. eigenvalues --    0.29781   0.30525   0.31134   0.32225   0.32363

 Mulliken charges:
               1
     1  C   -0.298623
     2  C   -0.300630
     3  C   -0.479608
     4  H    0.149575
     5  H    0.149604
     6  H    0.151817
     7  H    0.152438
     8  H    0.158715
     9  H    0.154023
    10  H    0.163423
    11  C   -0.298321
    12  C   -0.299636
    13  C   -0.475706
    14  H    0.149496
    15  H    0.149759
    16  H    0.151880
    17  H    0.151951
    18  H    0.155228
    19  H    0.155164
    20  H    0.160242
    21  C   -0.297595
    22  C   -0.305976
    23  C   -0.475787
    24  H    0.149172
    25  H    0.149069
    26  H    0.150878
    27  H    0.159694
    28  H    0.154076
    29  H    0.154755
    30  H    0.161299
    31  C   -0.298356
    32  C   -0.299589
    33  C   -0.475688
    34  H    0.149322
    35  H    0.149824
    36  H    0.151839
    37  H    0.151874
    38  H    0.155170
    39  H    0.155098
    40  H    0.160129
 Sum of Mulliken charges =  -0.00000

 Dipole moment (field-independent basis, Debye):
    X=             -0.0202    Y=             -0.0126    Z=              0.0078  Tot=              0.0251
 Quadrupole moment (field-independent basis, Debye-Ang):
   XX=            -86.4953   YY=            -84.0693   ZZ=            -84.4637
   XY=              1.4311   XZ=             -0.0709   YZ=              0.0507

 Normal termination of Gaussian 16 at Thu May  6 00:29:52 2021.
