 Gaussian 16, Revision A.03,
 Gaussian 16:  EM64L-G16RevA.03 25-Dec-2016

 -------------
 #p 6-31g* mp2
 -------------

 ------------------------------------------------------
 Input file generated by CHIRIPA (05-May-2021 14:51:08)
 ------------------------------------------------------
 Symbolic Z-matrix:
 Charge =  0 Multiplicity = 1

                         Standard orientation:
 ---------------------------------------------------------------------
 Center     Atomic      Atomic             Coordinates (Angstroms)
 Number     Number       Type             X           Y           Z
 ---------------------------------------------------------------------
      1          6           0        4.300125   -0.576104   -0.120420
      2          6           0        5.726009   -0.024571   -0.094889
      3          6           0        6.758101   -1.030313   -0.605834
      4          1           0        4.256253   -1.489807    0.487994
      5          1           0        4.047355   -0.872330   -1.147918
      6          1           0        5.975522    0.271811    0.932008
      7          1           0        5.766448    0.888031   -0.703279
      8          1           0        6.536770   -1.318426   -1.638599
      9          1           0        6.747032   -1.938147    0.005978
     10          1           0        7.770509   -0.615385   -0.578916
     11          6           0        3.256983    0.417706    0.387442
     12          6           0        1.831099   -0.133826    0.361911
     13          6           0        0.799007    0.871915    0.872856
     14          1           0        3.509753    0.713933    1.414940
     15          1           0        3.300855    1.331409   -0.220972
     16          1           0        1.790660   -1.046429    0.970301
     17          1           0        1.581586   -0.430209   -0.664986
     18          1           0        0.810076    1.779750    0.261044
     19          1           0        1.020338    1.160029    1.905622
     20          1           0       -0.213401    0.456987    0.845938
     21          6           0       -4.314376   -0.436385   -0.308151
     22          6           0       -4.038988   -1.820361    0.280712
     23          6           0       -5.119744   -2.840906   -0.077407
     24          1           0       -5.290077   -0.080169    0.049708
     25          1           0       -4.393648   -0.519694   -1.400933
     26          1           0       -3.958885   -1.734242    1.371942
     27          1           0       -3.063744   -2.173242   -0.078438
     28          1           0       -5.195949   -2.956264   -1.163450
     29          1           0       -6.096177   -2.514770    0.295171
     30          1           0       -4.902957   -3.823246    0.353721
     31          6           0       -3.242732    0.594783    0.041130
     32          6           0       -3.518119    1.978758   -0.547734
     33          6           0       -2.437365    2.999303   -0.189615
     34          1           0       -3.163459    0.678091    1.133910
     35          1           0       -2.267031    0.238568   -0.316730
     36          1           0       -4.493365    2.331639   -0.188584
     37          1           0       -3.598223    1.892639   -1.638964
     38          1           0       -1.460932    2.673167   -0.562193
     39          1           0       -2.361158    3.114661    0.896426
     40          1           0       -2.654150    3.981644   -0.620744
 ---------------------------------------------------------------------

 SCF Done:  E(RHF) =  -470.732571272     A.U. after   11 cycles
 E2 =    -0.1583308122D+01 EUMP2 =    -0.47231587939375D+03

 The electronic state is 1-A.
 Alpha  occ. eigenvalues --  -11.21610 -11.21592 -11.21574 -11.21571 -11.21400
 Alpha  occ. eigenvalues --  -11.21388 -11.21340 -11.21328 -11.21075 -11.21065
 Alpha  occ. eigenvalues --  -11.20969 -11.20948  -1.08438  -1.08401  -1.03541
 Alpha  occ. eigenvalues --   -1.03474  -0.95972  -0.95940  -0.86994  -0.86956
 Alpha  occ. eigenvalues --   -0.79673  -0.79485  -0.78270  -0.78202  -0.65089
 Alpha  occ. eigenvalues --   -0.65019  -0.60998  -0.60829  -0.59481  -0.59184
 Alpha  occ. eigenvalues --   -0.57685  -0.57470  -0.55351  -0.55145  -0.52743
 Alpha  occ. eigenvalues --   -0.52600  -0.52559  -0.52191  -0.50024  -0.49780
 Alpha  occ. eigenvalues --   -0.47886  -0.47870  -0.46703  -0.46501  -0.45787
 Alpha  occ. eigenvalues --   -0.45756  -0.45718  -0.45659  -0.43778  -0.43656
 Alpha virt. eigenvalues --    0.21868   0.23105   0.23622   0.24751   0.26297
 Alpha virt. eigenvalues --    0.26567   0.26834   0.26931   0.27926   0.29241
 Alpha virt. eigenvalues --    0.30261   0.31318   0.31709   0.31832   0.32227

 Mulliken charges:
               1
     1  C   -0.298183
     2  C   -0.299624
     3  C   -0.475685
     4  H    0.149604
     5  H    0.149303
     6  H    0.151944
     7  H    0.151912
     8  H    0.155111
     9  H    0.155158
    10  H    0.160228
    11  C   -0.298317
    12  C   -0.299826
    13  C   -0.484187
    14  H    0.149624
    15  H    0.149566
    16  H    0.151769
    17  H    0.150769
    18  H    0.156223
    19  H    0.154666
    20  H    0.169235
    21  C   -0.297400
    22  C   -0.299884
    23  C   -0.475653
    24  H    0.149710
    25  H    0.149410
    26  H    0.151894
    27  H    0.151709
    28  H    0.155203
    29  H    0.155243
    30  H    0.160282
    31  C   -0.303177
    32  C   -0.299323
    33  C   -0.478930
    34  H    0.149764
    35  H    0.153875
    36  H    0.151704
    37  H    0.151384
    38  H    0.160149
    39  H    0.155549
    40  H    0.159200
 Sum of Mulliken charges =  -0.00000

 Dipole moment (field-independent basis, Debye):
    X=             -0.0181    Y=              0.0029    Z=              0.0084  Tot=              0.0202
 Quadrupole moment (field-independent basis, Debye-Ang):
   XX=            -85.8613   YY=            -85.7548   ZZ=            -83.2908
   XY=             -0.2081   XZ=             -0.1696   YZ=             -0.4817

 Normal termination of Gaussian 16 at Thu May  6 16:31:59 2021.
