 Gaussian 16, Revision A.03,
 Gaussian 16:  EM64L-G16RevA.03 25-Dec-2016

 -------------
 #p 6-31g* mp2
 -------------

 ------------------------------------------------------
 Input file generated by CHIRIPA (05-May-2021 14:51:13)
 ------------------------------------------------------
 Symbolic Z-matrix:
 Charge =  0 Multiplicity = 1

                         Standard orientation:
 ---------------------------------------------------------------------
 Center     Atomic      Atomic             Coordinates (Angstroms)
 Number     Number       Type             X           Y           Z
 ---------------------------------------------------------------------
      1          6           0        3.300728    0.260612   -0.087804
      2          6           0        2.031950   -0.370982    0.486020
      3          6           0        0.776544    0.449545    0.188557
      4          1           0        3.416772    1.272946    0.322876
      5          1           0        3.185588    0.375459   -1.174519
      6          1           0        2.149996   -0.485875    1.571138
      7          1           0        1.919015   -1.382002    0.074073
      8          1           0        0.631129    0.553340   -0.891574
      9          1           0        0.863423    1.454559    0.613997
     10          1           0       -0.118720   -0.020116    0.607821
     11          6           0        4.564130   -0.548056    0.201327
     12          6           0        5.832909    0.083539   -0.372498
     13          6           0        7.088315   -0.736989   -0.075035
     14          1           0        4.679270   -0.662903    1.288041
     15          1           0        4.448087   -1.560390   -0.209354
     16          1           0        5.945843    1.094559    0.039449
     17          1           0        5.714862    0.198431   -1.457616
     18          1           0        7.001435   -1.742003   -0.500475
     19          1           0        7.233729   -0.840784    1.005096
     20          1           0        7.983578   -0.267328   -0.494298
     21          6           0       -3.362906    0.626411   -0.218274
     22          6           0       -3.654325    2.068798    0.197152
     23          6           0       -2.505610    3.022505   -0.132528
     24          1           0       -2.446270    0.285481    0.282217
     25          1           0       -3.159085    0.597123   -1.297623
     26          1           0       -3.858895    2.095154    1.275148
     27          1           0       -4.570479    2.406269   -0.304237
     28          1           0       -2.304479    3.025846   -1.208696
     29          1           0       -1.588852    2.712962    0.379662
     30          1           0       -2.735099    4.048131    0.172900
     31          6           0       -4.501953   -0.338967    0.104752
     32          6           0       -4.210534   -1.781355   -0.310675
     33          6           0       -5.359248   -2.735062    0.019007
     34          1           0       -4.705772   -0.309679    1.184101
     35          1           0       -5.418587    0.001963   -0.395739
     36          1           0       -3.294380   -2.118826    0.190715
     37          1           0       -4.005964   -1.807710   -1.388670
     38          1           0       -6.276006   -2.425518   -0.493185
     39          1           0       -5.560380   -2.738402    1.095173
     40          1           0       -5.129759   -3.760687   -0.286423
 ---------------------------------------------------------------------

 SCF Done:  E(RHF) =  -470.732947379     A.U. after   11 cycles
 E2 =    -0.1583049574D+01 EUMP2 =    -0.47231599695252D+03

 The electronic state is 1-A.
 Alpha  occ. eigenvalues --  -11.21616 -11.21606 -11.21579 -11.21523 -11.21414
 Alpha  occ. eigenvalues --  -11.21354 -11.21341 -11.21260 -11.21086 -11.21075
 Alpha  occ. eigenvalues --  -11.21053 -11.20950  -1.08443  -1.08370  -1.03551
 Alpha  occ. eigenvalues --   -1.03464  -0.95998  -0.95917  -0.87020  -0.86934
 Alpha  occ. eigenvalues --   -0.79665  -0.79489  -0.78269  -0.78160  -0.65071
 Alpha  occ. eigenvalues --   -0.65016  -0.60958  -0.60862  -0.59423  -0.59239
 Alpha  occ. eigenvalues --   -0.57682  -0.57468  -0.55332  -0.55159  -0.52765
 Alpha  occ. eigenvalues --   -0.52601  -0.52516  -0.52230  -0.49994  -0.49796
 Alpha  occ. eigenvalues --   -0.47951  -0.47809  -0.46664  -0.46541  -0.45823
 Alpha  occ. eigenvalues --   -0.45722  -0.45701  -0.45658  -0.43739  -0.43682
 Alpha virt. eigenvalues --    0.21723   0.23015   0.23715   0.24533   0.25809
 Alpha virt. eigenvalues --    0.26434   0.26831   0.27227   0.27869   0.29209
 Alpha virt. eigenvalues --    0.30233   0.31408   0.31658   0.31906   0.32071

 Mulliken charges:
               1
     1  C   -0.298766
     2  C   -0.300153
     3  C   -0.479474
     4  H    0.149741
     5  H    0.149690
     6  H    0.151633
     7  H    0.152086
     8  H    0.156798
     9  H    0.155405
    10  H    0.163404
    11  C   -0.298231
    12  C   -0.299626
    13  C   -0.475705
    14  H    0.149477
    15  H    0.149669
    16  H    0.151979
    17  H    0.151976
    18  H    0.155182
    19  H    0.155167
    20  H    0.160287
    21  C   -0.304836
    22  C   -0.299154
    23  C   -0.479633
    24  H    0.157154
    25  H    0.149030
    26  H    0.151177
    27  H    0.151467
    28  H    0.154685
    29  H    0.161163
    30  H    0.159212
    31  C   -0.297793
    32  C   -0.299427
    33  C   -0.475630
    34  H    0.149083
    35  H    0.149483
    36  H    0.151166
    37  H    0.151909
    38  H    0.155208
    39  H    0.155107
    40  H    0.160092
 Sum of Mulliken charges =  -0.00000

 Dipole moment (field-independent basis, Debye):
    X=              0.0399    Y=             -0.0019    Z=             -0.0055  Tot=              0.0403
 Quadrupole moment (field-independent basis, Debye-Ang):
   XX=            -86.3577   YY=            -85.4694   ZZ=            -83.2110
   XY=             -0.0771   XZ=              0.4918   YZ=              0.5152

 Normal termination of Gaussian 16 at Wed May  5 18:23:09 2021.
