 Gaussian 16, Revision A.03,
 Gaussian 16:  EM64L-G16RevA.03 25-Dec-2016

 -------------
 #p 6-31g* mp2
 -------------

 ------------------------------------------------------
 Input file generated by CHIRIPA (05-May-2021 14:51:12)
 ------------------------------------------------------
 Symbolic Z-matrix:
 Charge =  0 Multiplicity = 1

                         Standard orientation:
 ---------------------------------------------------------------------
 Center     Atomic      Atomic             Coordinates (Angstroms)
 Number     Number       Type             X           Y           Z
 ---------------------------------------------------------------------
      1          6           0       -3.006072    0.051655   -0.534692
      2          6           0       -4.327141   -0.680166   -0.295527
      3          6           0       -4.446125   -1.967370   -1.112071
      4          1           0       -2.911441    0.284151   -1.604241
      5          1           0       -2.172677   -0.619861   -0.285867
      6          1           0       -5.157816   -0.007003   -0.543413
      7          1           0       -4.418728   -0.910778    0.773606
      8          1           0       -3.637262   -2.660356   -0.858866
      9          1           0       -4.380550   -1.751446   -2.183368
     10          1           0       -5.398014   -2.474401   -0.925826
     11          6           0       -2.872287    1.340402    0.274604
     12          6           0       -1.551218    2.072222    0.035439
     13          6           0       -1.432234    3.359426    0.851982
     14          1           0       -3.705682    2.011917    0.025778
     15          1           0       -2.966919    1.107905    1.344153
     16          1           0       -1.459632    2.302835   -1.033695
     17          1           0       -0.720543    1.399059    0.283324
     18          1           0       -1.497809    3.143502    1.923280
     19          1           0       -2.241097    4.052412    0.598778
     20          1           0       -0.480346    3.866457    0.665738
     21          6           0        2.221494   -0.743497    0.387154
     22          6           0        1.803711   -2.166408    0.759667
     23          6           0        0.365385   -2.245134    1.272324
     24          1           0        2.107521   -0.092984    1.265099
     25          1           0        1.536230   -0.356497   -0.379684
     26          1           0        2.490394   -2.551116    1.524574
     27          1           0        1.918873   -2.813649   -0.119215
     28          1           0       -0.335082   -1.886765    0.511063
     29          1           0        0.239687   -1.622740    2.164191
     30          1           0        0.087612   -3.271225    1.532782
     31          6           0        3.656866   -0.648559   -0.127065
     32          6           0        4.074649    0.774352   -0.499579
     33          6           0        5.512974    0.853077   -1.012235
     34          1           0        4.342129   -1.035560    0.639772
     35          1           0        3.770839   -1.299072   -1.005011
     36          1           0        3.959486    1.421593    0.379303
     37          1           0        3.387966    1.159059   -1.264486
     38          1           0        5.638673    0.230684   -1.904103
     39          1           0        6.213440    0.494709   -0.250975
     40          1           0        5.790747    1.879170   -1.272693
 ---------------------------------------------------------------------

 SCF Done:  E(RHF) =  -470.733359650     A.U. after   11 cycles
 E2 =    -0.1583415871D+01 EUMP2 =    -0.47231677552121D+03

 The electronic state is 1-A.
 Alpha  occ. eigenvalues --  -11.21662 -11.21617 -11.21569 -11.21539 -11.21446
 Alpha  occ. eigenvalues --  -11.21385 -11.21362 -11.21303 -11.21151 -11.21083
 Alpha  occ. eigenvalues --  -11.21048 -11.21032  -1.08475  -1.08389  -1.03574
 Alpha  occ. eigenvalues --   -1.03490  -0.96032  -0.95939  -0.87052  -0.86954
 Alpha  occ. eigenvalues --   -0.79643  -0.79554  -0.78341  -0.78154  -0.65149
 Alpha  occ. eigenvalues --   -0.64986  -0.60987  -0.60874  -0.59395  -0.59309
 Alpha  occ. eigenvalues --   -0.57677  -0.57522  -0.55389  -0.55171  -0.52719
 Alpha  occ. eigenvalues --   -0.52638  -0.52505  -0.52324  -0.50055  -0.49814
 Alpha  occ. eigenvalues --   -0.48001  -0.47870  -0.46752  -0.46582  -0.46043
 Alpha  occ. eigenvalues --   -0.45773  -0.45719  -0.45267  -0.43828  -0.43744
 Alpha virt. eigenvalues --    0.20592   0.23060   0.23947   0.24152   0.25546
 Alpha virt. eigenvalues --    0.26731   0.26997   0.27571   0.28081   0.29438
 Alpha virt. eigenvalues --    0.30580   0.31600   0.31705   0.31937   0.32015

 Mulliken charges:
               1
     1  C   -0.307477
     2  C   -0.298935
     3  C   -0.476008
     4  H    0.149089
     5  H    0.157813
     6  H    0.151832
     7  H    0.152266
     8  H    0.155267
     9  H    0.154891
    10  H    0.160248
    11  C   -0.297346
    12  C   -0.304142
    13  C   -0.475540
    14  H    0.149320
    15  H    0.149742
    16  H    0.151161
    17  H    0.156715
    18  H    0.154922
    19  H    0.154966
    20  H    0.160251
    21  C   -0.301356
    22  C   -0.299088
    23  C   -0.483889
    24  H    0.149826
    25  H    0.152489
    26  H    0.152252
    27  H    0.152250
    28  H    0.161843
    29  H    0.155115
    30  H    0.160849
    31  C   -0.298309
    32  C   -0.299798
    33  C   -0.475740
    34  H    0.149658
    35  H    0.149819
    36  H    0.151972
    37  H    0.152309
    38  H    0.155226
    39  H    0.155184
    40  H    0.160351
 Sum of Mulliken charges =  -0.00000

 Dipole moment (field-independent basis, Debye):
    X=              0.0339    Y=             -0.0201    Z=              0.0057  Tot=              0.0398
 Quadrupole moment (field-independent basis, Debye-Ang):
   XX=            -85.6138   YY=            -85.4780   ZZ=            -83.7023
   XY=             -0.6055   XZ=              0.8833   YZ=             -0.6760

 Normal termination of Gaussian 16 at Wed May  5 18:19:41 2021.
