 Gaussian 16, Revision A.03,
 Gaussian 16:  EM64L-G16RevA.03 25-Dec-2016

 -------------
 #p 6-31g* mp2
 -------------

 ------------------------------------------------------
 Input file generated by CHIRIPA (05-May-2021 14:57:23)
 ------------------------------------------------------
 Symbolic Z-matrix:
 Charge =  0 Multiplicity = 1

                         Standard orientation:
 ---------------------------------------------------------------------
 Center     Atomic      Atomic             Coordinates (Angstroms)
 Number     Number       Type             X           Y           Z
 ---------------------------------------------------------------------
      1          6           0        1.113417   -0.715224    0.960770
      2          6           0        1.488562   -0.950904   -0.365971
      3          6           0        2.772469   -0.620935   -0.810102
      4          6           0        3.659873   -0.054227    0.103488
      5          6           0        3.315923    0.192851    1.431622
      6          6           0        2.026684   -0.145104    1.853758
      7          1           0        0.113977   -0.974654    1.297239
      8          1           0        0.781389   -1.393545   -1.061686
      9          1           0        3.089203   -0.792569   -1.831689
     10          1           0        4.042803    0.635381    2.101868
     11          1           0        1.738099    0.039063    2.884702
     12          7           0        5.021909    0.299323   -0.355052
     13          8           0        5.785196    0.797509    0.469474
     14          8           0        5.300397    0.071556   -1.530298
     15          6           0       -3.414970   -2.409942   -0.126065
     16          6           0       -4.423866   -1.703992    0.537476
     17          6           0       -4.445122   -0.306285    0.514833
     18          6           0       -3.437367    0.356357   -0.184184
     19          6           0       -2.418783   -0.318662   -0.855097
     20          6           0       -2.417408   -1.716246   -0.819012
     21          1           0       -3.406180   -3.495667   -0.103254
     22          1           0       -5.199868   -2.240089    1.076426
     23          1           0       -5.214353    0.265241    1.019868
     24          1           0       -1.658731    0.243525   -1.383951
     25          1           0       -1.632648   -2.261876   -1.335235
     26          7           0       -3.449347    1.835982   -0.215270
     27          8           0       -2.550110    2.396319   -0.838195
     28          8           0       -4.357745    2.407359    0.383878
 ---------------------------------------------------------------------

 SCF Done:  E(RHF) =  -868.336821257     A.U. after   16 cycles
 E2 =    -0.2601046710D+01 EUMP2 =    -0.87093786796777D+03

 The electronic state is 1-A.
 Alpha  occ. eigenvalues --  -20.61511 -20.61504 -20.60872 -20.60864 -15.86575
 Alpha  occ. eigenvalues --  -15.85930 -11.32155 -11.31362 -11.28813 -11.28727
 Alpha  occ. eigenvalues --  -11.28537 -11.28022 -11.27938 -11.27910 -11.27737
 Alpha  occ. eigenvalues --  -11.27707 -11.27116 -11.26924  -1.60585  -1.59944
 Alpha  occ. eigenvalues --   -1.40131  -1.39496  -1.20374  -1.19563  -1.09710
 Alpha  occ. eigenvalues --   -1.08943  -1.05821  -1.04995  -0.96503  -0.95757
 Alpha  occ. eigenvalues --   -0.87181  -0.86405  -0.83343  -0.82603  -0.78366
 Alpha  occ. eigenvalues --   -0.77635  -0.72782  -0.72149  -0.71921  -0.71432
 Alpha  occ. eigenvalues --   -0.71267  -0.70654  -0.66025  -0.65838  -0.65226
 Alpha  occ. eigenvalues --   -0.65056  -0.63152  -0.62305  -0.56258  -0.55508
 Alpha  occ. eigenvalues --   -0.54091  -0.53912  -0.53280  -0.53092  -0.49561
 Alpha  occ. eigenvalues --   -0.49526  -0.48914  -0.48896  -0.45488  -0.44887
 Alpha  occ. eigenvalues --   -0.38353  -0.37649  -0.37311  -0.36592
 Alpha virt. eigenvalues --    0.04158   0.04937   0.10154   0.11030   0.15497
 Alpha virt. eigenvalues --    0.16386   0.18726   0.21921   0.24575   0.27342
 Alpha virt. eigenvalues --    0.28008   0.28615   0.29458   0.31499   0.31801

 Mulliken charges:
               1
     1  C   -0.171370
     2  C   -0.222225
     3  C   -0.169463
     4  C    0.158907
     5  C   -0.168878
     6  C   -0.217773
     7  H    0.228349
     8  H    0.212136
     9  H    0.275838
    10  H    0.277168
    11  H    0.225272
    12  N    0.488186
    13  O   -0.459197
    14  O   -0.460350
    15  C   -0.171077
    16  C   -0.219055
    17  C   -0.169735
    18  C    0.157876
    19  C   -0.174333
    20  C   -0.228007
    21  H    0.229170
    22  H    0.227222
    23  H    0.279017
    24  H    0.278449
    25  H    0.221180
    26  N    0.487851
    27  O   -0.457206
    28  O   -0.457954
 Sum of Mulliken charges =  -0.00000

 Dipole moment (field-independent basis, Debye):
    X=             -4.9270    Y=             -6.3218    Z=              1.8569  Tot=              8.2273
 Quadrupole moment (field-independent basis, Debye-Ang):
   XX=           -135.9335   YY=           -109.1229   ZZ=            -99.3074
   XY=             14.3657   XZ=              3.5688   YZ=              2.4698

 Normal termination of Gaussian 16 at Thu May  6 12:58:17 2021.
