 Gaussian 16, Revision A.03,
 Gaussian 16:  EM64L-G16RevA.03 25-Dec-2016

 -------------
 #p 6-31g* mp2
 -------------

 ------------------------------------------------------
 Input file generated by CHIRIPA (05-May-2021 14:57:25)
 ------------------------------------------------------
 Symbolic Z-matrix:
 Charge =  0 Multiplicity = 1

                         Standard orientation:
 ---------------------------------------------------------------------
 Center     Atomic      Atomic             Coordinates (Angstroms)
 Number     Number       Type             X           Y           Z
 ---------------------------------------------------------------------
      1          6           0        1.372687   -0.942984    0.412560
      2          6           0        1.975597   -0.008904    1.261392
      3          6           0        3.299807    0.388397    1.053626
      4          6           0        3.994824   -0.171114   -0.017443
      5          6           0        3.421890   -1.103868   -0.880581
      6          6           0        2.096482   -1.486527   -0.653837
      7          1           0        0.343543   -1.245930    0.581329
      8          1           0        1.415903    0.414880    2.090364
      9          1           0        3.791054    1.109673    1.695386
     10          1           0        4.005274   -1.508807   -1.698570
     11          1           0        1.630822   -2.212141   -1.314663
     12          7           0        5.397340    0.241741   -0.247442
     13          8           0        5.988161   -0.265972   -1.198123
     14          8           0        5.879255    1.065231    0.527322
     15          6           0       -4.850760   -2.031374    0.149394
     16          6           0       -5.497318   -0.994928   -0.531974
     17          6           0       -4.904374    0.267168   -0.632374
     18          6           0       -3.658577    0.458663   -0.036884
     19          6           0       -2.989267   -0.553914    0.648682
     20          6           0       -3.601001   -1.807954    0.736512
     21          1           0       -5.318671   -3.008672    0.222505
     22          1           0       -6.467956   -1.165562   -0.988911
     23          1           0       -5.382746    1.087251   -1.153951
     24          1           0       -2.022303   -0.353504    1.093917
     25          1           0       -3.096551   -2.611017    1.266290
     26          7           0       -3.020907    1.790523   -0.136520
     27          8           0       -1.922839    1.933639    0.396771
     28          8           0       -3.631246    2.666101   -0.746018
 ---------------------------------------------------------------------

 SCF Done:  E(RHF) =  -868.337044025     A.U. after   16 cycles
 E2 =    -0.2599830496D+01 EUMP2 =    -0.87093687452058D+03

 The electronic state is 1-A.
 Alpha  occ. eigenvalues --  -20.61552 -20.61528 -20.60545 -20.60537 -15.86599
 Alpha  occ. eigenvalues --  -15.85596 -11.32060 -11.30967 -11.28737 -11.28555
 Alpha  occ. eigenvalues --  -11.28319 -11.27700 -11.27579 -11.27546 -11.27490
 Alpha  occ. eigenvalues --  -11.27383 -11.26621 -11.26531  -1.60610  -1.59617
 Alpha  occ. eigenvalues --   -1.40166  -1.39171  -1.20221  -1.19141  -1.09582
 Alpha  occ. eigenvalues --   -1.08558  -1.05650  -1.04538  -0.96415  -0.95395
 Alpha  occ. eigenvalues --   -0.87033  -0.85950  -0.83253  -0.82220  -0.78306
 Alpha  occ. eigenvalues --   -0.77241  -0.72815  -0.71933  -0.71818  -0.71346
 Alpha  occ. eigenvalues --   -0.70937  -0.70322  -0.65872  -0.65643  -0.64808
 Alpha  occ. eigenvalues --   -0.64553  -0.63012  -0.61884  -0.56116  -0.55152
 Alpha  occ. eigenvalues --   -0.53944  -0.53716  -0.52861  -0.52643  -0.49582
 Alpha  occ. eigenvalues --   -0.49559  -0.48577  -0.48569  -0.45549  -0.44575
 Alpha  occ. eigenvalues --   -0.38168  -0.37260  -0.37131  -0.36116
 Alpha virt. eigenvalues --    0.04225   0.05281   0.10373   0.11527   0.15718
 Alpha virt. eigenvalues --    0.16746   0.18750   0.21942   0.25151   0.26924
 Alpha virt. eigenvalues --    0.27585   0.29340   0.30580   0.31066   0.32211

 Mulliken charges:
               1
     1  C   -0.167096
     2  C   -0.213522
     3  C   -0.170473
     4  C    0.159020
     5  C   -0.170978
     6  C   -0.218685
     7  H    0.214589
     8  H    0.226364
     9  H    0.276683
    10  H    0.274837
    11  H    0.221122
    12  N    0.488055
    13  O   -0.461221
    14  O   -0.459753
    15  C   -0.170518
    16  C   -0.217651
    17  C   -0.169924
    18  C    0.160898
    19  C   -0.176509
    20  C   -0.219214
    21  H    0.228346
    22  H    0.226814
    23  H    0.278484
    24  H    0.269045
    25  H    0.222213
    26  N    0.488162
    27  O   -0.463183
    28  O   -0.455902
 Sum of Mulliken charges =  -0.00000

 Dipole moment (field-independent basis, Debye):
    X=             -7.4222    Y=             -6.0148    Z=              1.1026  Tot=              9.6168
 Quadrupole moment (field-independent basis, Debye-Ang):
   XX=           -124.2008   YY=           -107.2016   ZZ=           -101.2923
   XY=              9.8932   XZ=              4.7117   YZ=              2.0414

 Normal termination of Gaussian 16 at Thu May  6 21:19:53 2021.
