 Gaussian 16, Revision A.03,
 Gaussian 16:  EM64L-G16RevA.03 25-Dec-2016

 -------------
 #p 6-31g* mp2
 -------------

 ------------------------------------------------------
 Input file generated by CHIRIPA (05-May-2021 14:57:23)
 ------------------------------------------------------
 Symbolic Z-matrix:
 Charge =  0 Multiplicity = 1

                         Standard orientation:
 ---------------------------------------------------------------------
 Center     Atomic      Atomic             Coordinates (Angstroms)
 Number     Number       Type             X           Y           Z
 ---------------------------------------------------------------------
      1          6           0       -2.296946    2.126651    0.375936
      2          6           0       -3.678864    2.334586    0.435815
      3          6           0       -4.566147    1.275616    0.221665
      4          6           0       -4.034624    0.016129   -0.051216
      5          6           0       -2.662836   -0.222803   -0.117546
      6          6           0       -1.794228    0.850869    0.099933
      7          1           0       -1.614937    2.954994    0.543586
      8          1           0       -4.072116    3.324302    0.649968
      9          1           0       -5.640439    1.408568    0.262136
     10          1           0       -2.300697   -1.220711   -0.333077
     11          1           0       -0.721480    0.686446    0.052813
     12          7           0       -4.964065   -1.112738   -0.279690
     13          8           0       -4.470572   -2.212799   -0.518365
     14          8           0       -6.168456   -0.876106   -0.215766
     15          6           0        4.595908    2.179612   -0.413675
     16          6           0        3.256178    1.889989   -0.134810
     17          6           0        2.848992    0.573952    0.103505
     18          6           0        3.812369   -0.432442    0.054865
     19          6           0        5.154630   -0.175761   -0.220340
     20          6           0        5.539195    1.147632   -0.455477
     21          1           0        4.903433    3.204798   -0.597569
     22          1           0        2.521431    2.689422   -0.101699
     23          1           0        1.818399    0.321607    0.321719
     24          1           0        5.864107   -0.993916   -0.246533
     25          1           0        6.580336    1.369609   -0.671804
     26          7           0        3.393273   -1.829565    0.305475
     27          8           0        4.261392   -2.698269    0.256871
     28          8           0        2.204603   -2.029473    0.545763
 ---------------------------------------------------------------------

 SCF Done:  E(RHF) =  -868.336635890     A.U. after   16 cycles
 E2 =    -0.2599642061D+01 EUMP2 =    -0.87093627795148D+03

 The electronic state is 1-A.
 Alpha  occ. eigenvalues --  -20.61389 -20.61364 -20.60670 -20.60652 -15.86437
 Alpha  occ. eigenvalues --  -15.85722 -11.31901 -11.31194 -11.28598 -11.28408
 Alpha  occ. eigenvalues --  -11.28191 -11.27807 -11.27755 -11.27667 -11.27570
 Alpha  occ. eigenvalues --  -11.27432 -11.26927 -11.26864  -1.60448  -1.59738
 Alpha  occ. eigenvalues --   -1.40003  -1.39287  -1.20070  -1.19406  -1.09435
 Alpha  occ. eigenvalues --   -1.08805  -1.05504  -1.04824  -0.96263  -0.95606
 Alpha  occ. eigenvalues --   -0.86892  -0.86239  -0.83105  -0.82432  -0.78156
 Alpha  occ. eigenvalues --   -0.77438  -0.72653  -0.71940  -0.71770  -0.71185
 Alpha  occ. eigenvalues --   -0.71063  -0.70550  -0.65728  -0.65532  -0.65070
 Alpha  occ. eigenvalues --   -0.64869  -0.62890  -0.62136  -0.55971  -0.55396
 Alpha  occ. eigenvalues --   -0.53798  -0.53629  -0.53151  -0.52909  -0.49420
 Alpha  occ. eigenvalues --   -0.49400  -0.48714  -0.48682  -0.45388  -0.44668
 Alpha  occ. eigenvalues --   -0.38023  -0.37431  -0.37101  -0.36417
 Alpha virt. eigenvalues --    0.04411   0.05100   0.10552   0.11218   0.15901
 Alpha virt. eigenvalues --    0.16538   0.18032   0.22025   0.24402   0.26713
 Alpha virt. eigenvalues --    0.28105   0.29392   0.29741   0.30983   0.32291

 Mulliken charges:
               1
     1  C   -0.172292
     2  C   -0.218497
     3  C   -0.170410
     4  C    0.158641
     5  C   -0.171519
     6  C   -0.221430
     7  H    0.219690
     8  H    0.222804
     9  H    0.276090
    10  H    0.283903
    11  H    0.222998
    12  N    0.487867
    13  O   -0.456930
    14  O   -0.461175
    15  C   -0.170215
    16  C   -0.219213
    17  C   -0.178535
    18  C    0.160646
    19  C   -0.169024
    20  C   -0.218153
    21  H    0.227455
    22  H    0.218301
    23  H    0.276074
    24  H    0.278286
    25  H    0.226318
    26  N    0.487287
    27  O   -0.456100
    28  O   -0.462865
 Sum of Mulliken charges =  -0.00000

 Dipole moment (field-independent basis, Debye):
    X=              4.9176    Y=              8.7354    Z=             -0.1198  Tot=             10.0252
 Quadrupole moment (field-independent basis, Debye-Ang):
   XX=           -110.9379   YY=           -107.4927   ZZ=           -106.5831
   XY=             -1.9572   XZ=             -8.1972   YZ=              1.1566

 Normal termination of Gaussian 16 at Thu May  6 12:55:47 2021.
