 Gaussian 16, Revision A.03,
 Gaussian 16:  EM64L-G16RevA.03 25-Dec-2016

 -------------
 #p 6-31g* mp2
 -------------

 ------------------------------------------------------
 Input file generated by CHIRIPA (05-May-2021 14:55:24)
 ------------------------------------------------------
 Symbolic Z-matrix:
 Charge =  0 Multiplicity = 1

                         Standard orientation:
 ---------------------------------------------------------------------
 Center     Atomic      Atomic             Coordinates (Angstroms)
 Number     Number       Type             X           Y           Z
 ---------------------------------------------------------------------
      1          6           0       -1.460202    2.042843    1.066522
      2          6           0       -2.698733    2.119497    0.421009
      3          6           0       -3.309351    0.967150   -0.082768
      4          6           0       -2.650387   -0.250830    0.077170
      5          6           0       -1.415901   -0.359690    0.715515
      6          6           0       -0.823861    0.805675    1.211459
      7          1           0       -0.993075    2.943070    1.454825
      8          1           0       -3.195232    3.078944    0.307012
      9          1           0       -4.267733    0.997827   -0.586733
     10          1           0       -0.945293   -1.330383    0.814015
     11          1           0        0.138045    0.743140    1.712329
     12          7           0       -3.286987   -1.477658   -0.452009
     13          8           0       -2.685900   -2.538654   -0.298323
     14          8           0       -4.374988   -1.355021   -1.010446
     15          6           0        3.781533   -0.494068   -0.202548
     16          6           0        3.250156   -1.818726    0.345999
     17          6           0        4.308810   -2.921883    0.355367
     18          1           0        4.158063   -0.651564   -1.222531
     19          1           0        4.641252   -0.173380    0.401966
     20          1           0        2.390833   -2.136121   -0.258518
     21          1           0        2.874673   -1.658017    1.364724
     22          1           0        5.163521   -2.630336    0.974293
     23          1           0        4.676934   -3.111157   -0.658172
     24          1           0        3.907557   -3.860022    0.751284
     25          6           0        2.734863    0.618570   -0.218279
     26          6           0        3.266240    1.943228   -0.766827
     27          6           0        2.207586    3.046385   -0.776193
     28          1           0        1.875143    0.297881   -0.822793
     29          1           0        2.358333    0.776065    0.801705
     30          1           0        3.641724    1.782519   -1.785551
     31          1           0        4.125563    2.260622   -0.162308
     32          1           0        1.839462    3.235658    0.237346
     33          1           0        1.352874    2.754838   -1.395120
     34          1           0        2.608839    3.984524   -1.172111
 ---------------------------------------------------------------------

 SCF Done:  E(RHF) =  -669.535252444     A.U. after   15 cycles
 E2 =    -0.2092576137D+01 EUMP2 =    -0.67162782858081D+03

 The electronic state is 1-A.
 Alpha  occ. eigenvalues --  -20.60729 -20.60724 -15.85781 -11.31129 -11.27689
 Alpha  occ. eigenvalues --  -11.27668 -11.27415 -11.26710 -11.26655 -11.22278
 Alpha  occ. eigenvalues --  -11.22127 -11.22120 -11.21919 -11.21839 -11.21402
 Alpha  occ. eigenvalues --   -1.59805  -1.39359  -1.19294  -1.09064  -1.08689
 Alpha  occ. eigenvalues --   -1.04691  -1.04112  -0.96567  -0.95530  -0.87583
 Alpha  occ. eigenvalues --   -0.86093  -0.82364  -0.80193  -0.78914  -0.77396
 Alpha  occ. eigenvalues --   -0.72000  -0.71129  -0.70397  -0.65717  -0.64942
 Alpha  occ. eigenvalues --   -0.64680  -0.62053  -0.61496  -0.59932  -0.58181
 Alpha  occ. eigenvalues --   -0.55873  -0.55183  -0.53247  -0.53072  -0.53029
 Alpha  occ. eigenvalues --   -0.52707  -0.50503  -0.48763  -0.48756  -0.48492
 Alpha  occ. eigenvalues --   -0.47221  -0.46410  -0.46317  -0.44769  -0.44377
 Alpha  occ. eigenvalues --   -0.37255  -0.36263
 Alpha virt. eigenvalues --    0.05094   0.11303   0.16539   0.19653   0.22772
 Alpha virt. eigenvalues --    0.23435   0.24804   0.25744   0.26554   0.28688
 Alpha virt. eigenvalues --    0.29335   0.30548   0.31275   0.31438   0.31800

 Mulliken charges:
               1
     1  C   -0.171702
     2  C   -0.219009
     3  C   -0.171483
     4  C    0.158466
     5  C   -0.174518
     6  C   -0.215765
     7  H    0.225888
     8  H    0.223253
     9  H    0.275227
    10  H    0.276236
    11  H    0.227119
    12  N    0.488048
    13  O   -0.460690
    14  O   -0.460668
    15  C   -0.298156
    16  C   -0.301690
    17  C   -0.475926
    18  H    0.153315
    19  H    0.150277
    20  H    0.155303
    21  H    0.146113
    22  H    0.155338
    23  H    0.157627
    24  H    0.163334
    25  C   -0.301152
    26  C   -0.299827
    27  C   -0.475919
    28  H    0.155312
    29  H    0.139101
    30  H    0.156089
    31  H    0.152914
    32  H    0.144786
    33  H    0.160055
    34  H    0.162703
 Sum of Mulliken charges =  -0.00000

 Dipole moment (field-independent basis, Debye):
    X=              2.3872    Y=              4.2737    Z=              1.7358  Tot=              5.1938
 Quadrupole moment (field-independent basis, Debye-Ang):
   XX=           -103.9407   YY=            -96.5032   ZZ=            -93.7479
   XY=            -14.1274   XZ=             -3.4861   YZ=             -0.9112

 Normal termination of Gaussian 16 at Thu May  6 04:47:02 2021.
