 Gaussian 16, Revision A.03,
 Gaussian 16:  EM64L-G16RevA.03 25-Dec-2016

 -------------
 #p 6-31g* mp2
 -------------

 ------------------------------------------------------
 Input file generated by CHIRIPA (05-May-2021 14:53:13)
 ------------------------------------------------------
 Symbolic Z-matrix:
 Charge =  0 Multiplicity = 1

                         Standard orientation:
 ---------------------------------------------------------------------
 Center     Atomic      Atomic             Coordinates (Angstroms)
 Number     Number       Type             X           Y           Z
 ---------------------------------------------------------------------
      1          6           0       -3.702329    0.191708    0.236463
      2          6           0       -4.609011    0.634249   -0.912480
      3          6           0       -5.451040    1.861431   -0.562043
      4          1           0       -4.319205   -0.025055    1.119312
      5          1           0       -3.041023    1.024206    0.513982
      6          1           0       -5.267460   -0.199285   -1.188671
      7          1           0       -3.989922    0.849800   -1.792754
      8          1           0       -4.807869    2.709853   -0.306874
      9          1           0       -6.092666    1.654807    0.300641
     10          1           0       -6.091720    2.160587   -1.397445
     11          6           0       -2.854285   -1.033961   -0.098627
     12          6           0       -1.947603   -1.476502    1.050316
     13          6           0       -1.105574   -2.703683    0.699879
     14          1           0       -3.515591   -1.866459   -0.376146
     15          1           0       -2.237409   -0.817197   -0.981476
     16          1           0       -2.566692   -1.692053    1.930590
     17          1           0       -1.289154   -0.642968    1.326507
     18          1           0       -0.463948   -2.497060   -0.162805
     19          1           0       -1.748745   -3.552106    0.444710
     20          1           0       -0.464894   -3.002839    1.535281
     21          6           0        2.401698    2.707954    0.771439
     22          6           0        2.829611    2.447272   -0.534491
     23          6           0        2.921778    1.133089   -1.002439
     24          6           0        2.576595    0.099017   -0.133627
     25          6           0        2.146839    0.326513    1.172836
     26          6           0        2.062276    1.648611    1.619440
     27          1           0        2.333054    3.731918    1.126662
     28          1           0        3.093859    3.267994   -1.195273
     29          1           0        3.250041    0.902840   -2.008743
     30          1           0        1.890255   -0.512459    1.808216
     31          1           0        1.729637    1.848079    2.634137
     32          7           0        2.670143   -1.296440   -0.617726
     33          8           0        2.360270   -2.189867    0.167387
     34          8           0        3.051569   -1.470347   -1.773107
 ---------------------------------------------------------------------

 SCF Done:  E(RHF) =  -669.535761575     A.U. after   15 cycles
 E2 =    -0.2091987248D+01 EUMP2 =    -0.67162774882306D+03

 The electronic state is 1-A.
 Alpha  occ. eigenvalues --  -20.60908 -20.60878 -15.85920 -11.31279 -11.27845
 Alpha  occ. eigenvalues --  -11.27841 -11.27583 -11.26861 -11.26851 -11.21548
 Alpha  occ. eigenvalues --  -11.21295 -11.21269 -11.21124 -11.21095 -11.20215
 Alpha  occ. eigenvalues --   -1.59960  -1.39513  -1.19451  -1.08848  -1.08239
 Alpha  occ. eigenvalues --   -1.04850  -1.03269  -0.95724  -0.95638  -0.86681
 Alpha  occ. eigenvalues --   -0.86246  -0.82516  -0.79341  -0.78052  -0.77565
 Alpha  occ. eigenvalues --   -0.72147  -0.71287  -0.70553  -0.65106  -0.64892
 Alpha  occ. eigenvalues --   -0.64833  -0.62198  -0.60665  -0.59081  -0.57302
 Alpha  occ. eigenvalues --   -0.55352  -0.54962  -0.53182  -0.52938  -0.52338
 Alpha  occ. eigenvalues --   -0.52100  -0.49635  -0.48913  -0.48892  -0.47649
 Alpha  occ. eigenvalues --   -0.46429  -0.45597  -0.45547  -0.44773  -0.43509
 Alpha  occ. eigenvalues --   -0.37428  -0.36445
 Alpha virt. eigenvalues --    0.04928   0.11160   0.16416   0.21071   0.22974
 Alpha virt. eigenvalues --    0.24210   0.26573   0.27088   0.27677   0.27820
 Alpha virt. eigenvalues --    0.28869   0.30957   0.31569   0.31786   0.31987

 Mulliken charges:
               1
     1  C   -0.297471
     2  C   -0.299454
     3  C   -0.475331
     4  H    0.148793
     5  H    0.146116
     6  H    0.152899
     7  H    0.151881
     8  H    0.152977
     9  H    0.154991
    10  H    0.160151
    11  C   -0.297511
    12  C   -0.301885
    13  C   -0.473585
    14  H    0.150677
    15  H    0.150100
    16  H    0.148797
    17  H    0.143015
    18  H    0.165673
    19  H    0.151912
    20  H    0.162396
    21  C   -0.170688
    22  C   -0.218473
    23  C   -0.171032
    24  C    0.157702
    25  C   -0.170735
    26  C   -0.219248
    27  H    0.226028
    28  H    0.223811
    29  H    0.275814
    30  H    0.277223
    31  H    0.224237
    32  N    0.486976
    33  O   -0.457042
    34  O   -0.459717
 Sum of Mulliken charges =  -0.00000

 Dipole moment (field-independent basis, Debye):
    X=             -0.1636    Y=              4.8374    Z=              1.6480  Tot=              5.1130
 Quadrupole moment (field-independent basis, Debye-Ang):
   XX=            -96.9129   YY=            -93.9177   ZZ=            -91.3729
   XY=             14.4807   XZ=              2.8025   YZ=             -2.3858

 Normal termination of Gaussian 16 at Wed May  5 21:47:34 2021.
