 Gaussian 16, Revision A.03,
 Gaussian 16:  EM64L-G16RevA.03 25-Dec-2016

 -------------
 #p 6-31g* mp2
 -------------

 ------------------------------------------------------
 Input file generated by CHIRIPA (05-May-2021 14:55:19)
 ------------------------------------------------------
 Symbolic Z-matrix:
 Charge =  0 Multiplicity = 1

                         Standard orientation:
 ---------------------------------------------------------------------
 Center     Atomic      Atomic             Coordinates (Angstroms)
 Number     Number       Type             X           Y           Z
 ---------------------------------------------------------------------
      1          6           0       -2.539189    2.172135   -0.011925
      2          6           0       -3.830540    1.976843    0.488869
      3          6           0       -4.410115    0.704607    0.481360
      4          6           0       -3.666583   -0.354652   -0.036733
      5          6           0       -2.377893   -0.192068   -0.542829
      6          6           0       -1.818258    1.088966   -0.525270
      7          1           0       -2.096706    3.163856   -0.002188
      8          1           0       -4.392760    2.816203    0.888154
      9          1           0       -5.407996    0.525191    0.862755
     10          1           0       -1.842052   -1.048206   -0.934391
     11          1           0       -0.815185    1.237674   -0.914854
     12          7           0       -4.269598   -1.706169   -0.050002
     13          8           0       -3.593770   -2.622980   -0.511900
     14          8           0       -5.406652   -1.823084    0.401747
     15          6           0        3.918878    0.486882    0.296202
     16          6           0        3.505253    1.728296   -0.494868
     17          6           0        2.208752    2.353269    0.021163
     18          1           0        3.109625   -0.254801    0.251897
     19          1           0        4.037127    0.757628    1.354554
     20          1           0        3.389164    1.455590   -1.551642
     21          1           0        4.315662    2.467033   -0.448835
     22          1           0        2.315852    2.653002    1.068679
     23          1           0        1.384089    1.635812   -0.040394
     24          1           0        1.931625    3.239242   -0.558590
     25          6           0        5.213151   -0.149202   -0.207765
     26          6           0        5.626776   -1.390617    0.583305
     27          6           0        6.923278   -2.015589    0.067274
     28          1           0        5.094901   -0.419949   -1.266116
     29          1           0        6.022402    0.592480   -0.163460
     30          1           0        4.816366   -2.129355    0.537272
     31          1           0        5.742864   -1.117911    1.640078
     32          1           0        7.747940   -1.298132    0.128831
     33          1           0        6.816178   -2.315322   -0.980241
     34          1           0        7.200404   -2.901562    0.647027
 ---------------------------------------------------------------------

 SCF Done:  E(RHF) =  -669.535540128     A.U. after   15 cycles
 E2 =    -0.2090778021D+01 EUMP2 =    -0.67162631814927D+03

 The electronic state is 1-A.
 Alpha  occ. eigenvalues --  -20.60742 -20.60737 -15.85796 -11.31154 -11.27728
 Alpha  occ. eigenvalues --  -11.27723 -11.27456 -11.26734 -11.26701 -11.22349
 Alpha  occ. eigenvalues --  -11.22105 -11.21952 -11.21909 -11.21788 -11.21306
 Alpha  occ. eigenvalues --   -1.59818  -1.39372  -1.19326  -1.08960  -1.08719
 Alpha  occ. eigenvalues --   -1.04731  -1.04093  -0.96562  -0.95555  -0.87588
 Alpha  occ. eigenvalues --   -0.86125  -0.82391  -0.80165  -0.78730  -0.77442
 Alpha  occ. eigenvalues --   -0.72014  -0.71141  -0.70428  -0.65606  -0.64977
 Alpha  occ. eigenvalues --   -0.64748  -0.62128  -0.61455  -0.59949  -0.58143
 Alpha  occ. eigenvalues --   -0.55880  -0.55211  -0.53286  -0.53095  -0.53013
 Alpha  occ. eigenvalues --   -0.52740  -0.50485  -0.48774  -0.48770  -0.48464
 Alpha  occ. eigenvalues --   -0.47180  -0.46282  -0.46181  -0.44779  -0.44333
 Alpha  occ. eigenvalues --   -0.37299  -0.36331
 Alpha virt. eigenvalues --    0.05096   0.11254   0.16563   0.20289   0.22553
 Alpha virt. eigenvalues --    0.23804   0.25694   0.26469   0.27136   0.28072
 Alpha virt. eigenvalues --    0.28871   0.29973   0.31048   0.31605   0.32156

 Mulliken charges:
               1
     1  C   -0.171895
     2  C   -0.218651
     3  C   -0.170964
     4  C    0.158683
     5  C   -0.172059
     6  C   -0.222631
     7  H    0.226410
     8  H    0.223306
     9  H    0.275497
    10  H    0.275208
    11  H    0.230107
    12  N    0.488089
    13  O   -0.460647
    14  O   -0.460527
    15  C   -0.298656
    16  C   -0.299583
    17  C   -0.481563
    18  H    0.149238
    19  H    0.151217
    20  H    0.152108
    21  H    0.155142
    22  H    0.160037
    23  H    0.149827
    24  H    0.158209
    25  C   -0.298812
    26  C   -0.300246
    27  C   -0.476057
    28  H    0.150048
    29  H    0.150435
    30  H    0.153229
    31  H    0.152582
    32  H    0.155321
    33  H    0.155745
    34  H    0.161852
 Sum of Mulliken charges =  -0.00000

 Dipole moment (field-independent basis, Debye):
    X=              2.2988    Y=              4.7678    Z=              0.0851  Tot=              5.2937
 Quadrupole moment (field-independent basis, Debye-Ang):
   XX=           -106.9223   YY=            -97.9427   ZZ=            -94.2858
   XY=            -19.3509   XZ=             -1.6288   YZ=              1.0175

 Normal termination of Gaussian 16 at Thu May  6 15:42:18 2021.
