 Gaussian 16, Revision A.03,
 Gaussian 16:  EM64L-G16RevA.03 25-Dec-2016

 -------------
 #p 6-31g* mp2
 -------------

 ------------------------------------------------------
 Input file generated by CHIRIPA (05-May-2021 14:55:21)
 ------------------------------------------------------
 Symbolic Z-matrix:
 Charge =  0 Multiplicity = 1

                         Standard orientation:
 ---------------------------------------------------------------------
 Center     Atomic      Atomic             Coordinates (Angstroms)
 Number     Number       Type             X           Y           Z
 ---------------------------------------------------------------------
      1          6           0       -1.507938    2.894575   -0.036964
      2          6           0       -2.198514    2.338765   -1.118954
      3          6           0       -2.679123    1.027409   -1.056449
      4          6           0       -2.450318    0.297077    0.108692
      5          6           0       -1.765818    0.822781    1.203400
      6          6           0       -1.294171    2.136146    1.118722
      7          1           0       -1.138070    3.914048   -0.094132
      8          1           0       -2.365992    2.925430   -2.017742
      9          1           0       -3.216867    0.572359   -1.879358
     10          1           0       -1.614290    0.213299    2.086003
     11          1           0       -0.758187    2.565199    1.960553
     12          7           0       -2.954373   -1.092260    0.186600
     13          8           0       -2.739775   -1.714859    1.224365
     14          8           0       -3.554506   -1.532317   -0.791576
     15          6           0        3.332760    0.027248   -0.091539
     16          6           0        4.859319    0.024922   -0.004369
     17          6           0        5.450064    1.433828    0.057250
     18          1           0        3.023419    0.595251   -0.979584
     19          1           0        2.923597    0.559687    0.778225
     20          1           0        5.265438   -0.508556   -0.873326
     21          1           0        5.165067   -0.543305    0.883467
     22          1           0        5.072778    1.971791    0.932951
     23          1           0        5.173718    2.006737   -0.833822
     24          1           0        6.542491    1.408754    0.119167
     25          6           0        2.727382   -1.373953   -0.153842
     26          6           0        1.200823   -1.371626   -0.241011
     27          6           0        0.610079   -2.780533   -0.302630
     28          1           0        3.136545   -1.906392   -1.023605
     29          1           0        3.036724   -1.941957    0.734204
     30          1           0        0.895074   -0.803399   -1.128847
     31          1           0        0.794705   -0.838148    0.627945
     32          1           0        0.886424   -3.353442    0.588442
     33          1           0        0.987364   -3.318495   -1.178332
     34          1           0       -0.482348   -2.755459   -0.364547
 ---------------------------------------------------------------------

 SCF Done:  E(RHF) =  -669.535530329     A.U. after   15 cycles
 E2 =    -0.2093190526D+01 EUMP2 =    -0.67162872085432D+03

 The electronic state is 1-A.
 Alpha  occ. eigenvalues --  -20.60873 -20.60866 -15.85901 -11.31229 -11.27808
 Alpha  occ. eigenvalues --  -11.27802 -11.27541 -11.26812 -11.26802 -11.21706
 Alpha  occ. eigenvalues --  -11.21464 -11.21343 -11.21269 -11.21252 -11.20437
 Alpha  occ. eigenvalues --   -1.59945  -1.39496  -1.19407  -1.08809  -1.08385
 Alpha  occ. eigenvalues --   -1.04810  -1.03418  -0.95851  -0.95650  -0.86856
 Alpha  occ. eigenvalues --   -0.86208  -0.82486  -0.79499  -0.78200  -0.77538
 Alpha  occ. eigenvalues --   -0.72125  -0.71295  -0.70521  -0.65066  -0.65026
 Alpha  occ. eigenvalues --   -0.64809  -0.62162  -0.60816  -0.59232  -0.57460
 Alpha  occ. eigenvalues --   -0.55311  -0.55140  -0.53151  -0.52902  -0.52493
 Alpha  occ. eigenvalues --   -0.52271  -0.49794  -0.48888  -0.48886  -0.47794
 Alpha  occ. eigenvalues --   -0.46556  -0.45723  -0.45671  -0.44896  -0.43651
 Alpha  occ. eigenvalues --   -0.37361  -0.36370
 Alpha virt. eigenvalues --    0.04952   0.11199   0.16449   0.21251   0.22877
 Alpha virt. eigenvalues --    0.24282   0.26414   0.27115   0.27597   0.28039
 Alpha virt. eigenvalues --    0.28403   0.30746   0.31396   0.31719   0.32255

 Mulliken charges:
               1
     1  C   -0.170029
     2  C   -0.218594
     3  C   -0.171326
     4  C    0.161246
     5  C   -0.170145
     6  C   -0.218379
     7  H    0.225943
     8  H    0.223567
     9  H    0.275713
    10  H    0.275491
    11  H    0.223546
    12  N    0.486752
    13  O   -0.458958
    14  O   -0.459728
    15  C   -0.296511
    16  C   -0.299530
    17  C   -0.475273
    18  H    0.148065
    19  H    0.144845
    20  H    0.152943
    21  H    0.152560
    22  H    0.152799
    23  H    0.153940
    24  H    0.160908
    25  C   -0.298065
    26  C   -0.302981
    27  C   -0.478569
    28  H    0.150027
    29  H    0.150026
    30  H    0.149293
    31  H    0.148541
    32  H    0.156353
    33  H    0.152685
    34  H    0.172847
 Sum of Mulliken charges =  -0.00000

 Dipole moment (field-independent basis, Debye):
    X=              1.6524    Y=              4.8540    Z=             -0.2734  Tot=              5.1349
 Quadrupole moment (field-independent basis, Debye-Ang):
   XX=           -104.0359   YY=            -93.1136   ZZ=            -89.6314
   XY=            -12.3227   XZ=              2.7935   YZ=             -0.1353

 Normal termination of Gaussian 16 at Thu May  6 12:29:01 2021.
