 Gaussian 16, Revision A.03,
 Gaussian 16:  EM64L-G16RevA.03 25-Dec-2016

 -------------
 #p 6-31g* mp2
 -------------

 ------------------------------------------------------
 Input file generated by CHIRIPA (05-May-2021 14:55:22)
 ------------------------------------------------------
 Symbolic Z-matrix:
 Charge =  0 Multiplicity = 1

                         Standard orientation:
 ---------------------------------------------------------------------
 Center     Atomic      Atomic             Coordinates (Angstroms)
 Number     Number       Type             X           Y           Z
 ---------------------------------------------------------------------
      1          6           0       -4.768860    1.472655   -0.473092
      2          6           0       -4.316150    1.371551    0.846511
      3          6           0       -3.255876    0.519696    1.170100
      4          6           0       -2.668765   -0.219798    0.144557
      5          6           0       -3.097168   -0.140896   -1.179655
      6          6           0       -4.158999    0.717440   -1.480188
      7          1           0       -5.593111    2.136914   -0.715509
      8          1           0       -4.787879    1.956863    1.630683
      9          1           0       -2.885423    0.422162    2.183347
     10          1           0       -2.606938   -0.736980   -1.939771
     11          1           0       -4.508486    0.793940   -2.505884
     12          7           0       -1.545476   -1.125050    0.474922
     13          8           0       -1.045104   -1.765894   -0.446807
     14          8           0       -1.186682   -1.176601    1.649335
     15          6           0        3.964646    0.673350    0.267331
     16          6           0        4.015198    1.970817   -0.540140
     17          6           0        4.641336    3.127909    0.238887
     18          1           0        3.395534    0.845776    1.191087
     19          1           0        4.983874    0.400812    0.574398
     20          1           0        2.996333    2.240088   -0.846770
     21          1           0        4.584092    1.795231   -1.462173
     22          1           0        5.667668    2.884273    0.531949
     23          1           0        4.070887    3.331657    1.150850
     24          1           0        4.667441    4.045520   -0.357074
     25          6           0        3.341329   -0.492610   -0.498008
     26          6           0        3.290776   -1.790076    0.309463
     27          6           0        2.664638   -2.947168   -0.469565
     28          1           0        2.322100   -0.220071   -0.805076
     29          1           0        3.910440   -0.665036   -1.421765
     30          1           0        2.721883   -1.614491    1.231497
     31          1           0        4.309642   -2.059347    0.616092
     32          1           0        3.235087   -3.150916   -1.381527
     33          1           0        1.638306   -2.703532   -0.762627
     34          1           0        2.638534   -3.864778    0.126397
 ---------------------------------------------------------------------

 SCF Done:  E(RHF) =  -669.536537702     A.U. after   15 cycles
 E2 =    -0.2091214342D+01 EUMP2 =    -0.67162775204493D+03

 The electronic state is 1-A.
 Alpha  occ. eigenvalues --  -20.61070 -20.61055 -15.86087 -11.31365 -11.27921
 Alpha  occ. eigenvalues --  -11.27918 -11.27651 -11.26918 -11.26908 -11.21003
 Alpha  occ. eigenvalues --  -11.20608 -11.20542 -11.20278 -11.20170 -11.19299
 Alpha  occ. eigenvalues --   -1.60116  -1.39674  -1.19528  -1.08940  -1.07450
 Alpha  occ. eigenvalues --   -1.04917  -1.02476  -0.95789  -0.94925  -0.86320
 Alpha  occ. eigenvalues --   -0.85950  -0.82623  -0.78609  -0.77682  -0.77199
 Alpha  occ. eigenvalues --   -0.72307  -0.71428  -0.70635  -0.65184  -0.64920
 Alpha  occ. eigenvalues --   -0.64079  -0.62264  -0.59856  -0.58386  -0.56526
 Alpha  occ. eigenvalues --   -0.55424  -0.54199  -0.53251  -0.53007  -0.51639
 Alpha  occ. eigenvalues --   -0.51359  -0.49217  -0.49057  -0.48705  -0.46889
 Alpha  occ. eigenvalues --   -0.45644  -0.45127  -0.44736  -0.44553  -0.42752
 Alpha  occ. eigenvalues --   -0.37505  -0.36516
 Alpha virt. eigenvalues --    0.04833   0.11140   0.16332   0.21276   0.23766
 Alpha virt. eigenvalues --    0.25455   0.27203   0.27574   0.28176   0.28423
 Alpha virt. eigenvalues --    0.29146   0.30853   0.32307   0.32538   0.32617

 Mulliken charges:
               1
     1  C   -0.170419
     2  C   -0.218597
     3  C   -0.170524
     4  C    0.157483
     5  C   -0.170761
     6  C   -0.218543
     7  H    0.226300
     8  H    0.224085
     9  H    0.275945
    10  H    0.276026
    11  H    0.224157
    12  N    0.490091
    13  O   -0.461176
    14  O   -0.458745
    15  C   -0.298099
    16  C   -0.298424
    17  C   -0.475029
    18  H    0.150548
    19  H    0.147392
    20  H    0.149406
    21  H    0.150423
    22  H    0.154687
    23  H    0.154219
    24  H    0.157214
    25  C   -0.297963
    26  C   -0.298694
    27  C   -0.485774
    28  H    0.152099
    29  H    0.145108
    30  H    0.159699
    31  H    0.144406
    32  H    0.144282
    33  H    0.183101
    34  H    0.156078
 Sum of Mulliken charges =  -0.00000

 Dipole moment (field-independent basis, Debye):
    X=             -4.3519    Y=              3.1483    Z=             -1.1107  Tot=              5.4849
 Quadrupole moment (field-independent basis, Debye-Ang):
   XX=            -74.7580   YY=            -97.8112   ZZ=            -90.5966
   XY=             -8.5889   XZ=              1.9570   YZ=              1.8506

 Normal termination of Gaussian 16 at Wed May  5 20:37:49 2021.
