 Gaussian 16, Revision A.03,
 Gaussian 16:  EM64L-G16RevA.03 25-Dec-2016

 -------------
 #p 6-31g* mp2
 -------------

 ------------------------------------------------------
 Input file generated by CHIRIPA (05-May-2021 14:53:16)
 ------------------------------------------------------
 Symbolic Z-matrix:
 Charge =  0 Multiplicity = 1

                         Standard orientation:
 ---------------------------------------------------------------------
 Center     Atomic      Atomic             Coordinates (Angstroms)
 Number     Number       Type             X           Y           Z
 ---------------------------------------------------------------------
      1          6           0        3.797315    0.138452   -0.146760
      2          6           0        5.310225    0.356783   -0.109075
      3          6           0        5.713103    1.775019   -0.514152
      4          1           0        3.427673    0.351109   -1.159226
      5          1           0        3.312488    0.863390    0.521674
      6          1           0        5.792157   -0.369259   -0.776324
      7          1           0        5.676336    0.143396    0.903370
      8          1           0        5.259101    2.511061    0.157209
      9          1           0        5.375581    1.995492   -1.532028
     10          1           0        6.798795    1.909114   -0.480216
     11          6           0        3.378938   -1.274609    0.255668
     12          6           0        1.866028   -1.492940    0.217984
     13          6           0        1.463149   -2.911176    0.623060
     14          1           0        3.863764   -1.999546   -0.412765
     15          1           0        3.748580   -1.487265    1.268134
     16          1           0        1.499917   -1.279553   -0.794462
     17          1           0        1.384095   -0.766898    0.885232
     18          1           0        1.800672   -3.131649    1.640936
     19          1           0        1.917151   -3.647218   -0.048301
     20          1           0        0.377457   -3.045271    0.589124
     21          6           0       -1.385573    2.493132    0.353027
     22          6           0       -2.779895    2.583247    0.418333
     23          6           0       -3.575314    1.454276    0.200889
     24          6           0       -2.940277    0.245690   -0.080784
     25          6           0       -1.553454    0.123869   -0.152686
     26          6           0       -0.777873    1.265894    0.068227
     27          1           0       -0.775377    3.375214    0.523290
     28          1           0       -3.254577    3.535028    0.639319
     29          1           0       -4.656846    1.495771    0.245417
     30          1           0       -1.109085   -0.838695   -0.375002
     31          1           0        0.304757    1.192947    0.016878
     32          7           0       -3.771850   -0.956411   -0.312819
     33          8           0       -3.188051   -2.009540   -0.559263
     34          8           0       -4.991689   -0.822725   -0.243850
 ---------------------------------------------------------------------

 SCF Done:  E(RHF) =  -669.535189026     A.U. after   15 cycles
 E2 =    -0.2092862868D+01 EUMP2 =    -0.67162805189361D+03

 The electronic state is 1-A.
 Alpha  occ. eigenvalues --  -20.60720 -20.60714 -15.85768 -11.31091 -11.27672
 Alpha  occ. eigenvalues --  -11.27610 -11.27392 -11.26684 -11.26582 -11.22475
 Alpha  occ. eigenvalues --  -11.22266 -11.22208 -11.22091 -11.21671 -11.21511
 Alpha  occ. eigenvalues --   -1.59793  -1.39348  -1.19261  -1.09192  -1.08665
 Alpha  occ. eigenvalues --   -1.04674  -1.04199  -0.96620  -0.95506  -0.87627
 Alpha  occ. eigenvalues --   -0.86056  -0.82366  -0.80325  -0.79081  -0.77350
 Alpha  occ. eigenvalues --   -0.71988  -0.71114  -0.70378  -0.65823  -0.64912
 Alpha  occ. eigenvalues --   -0.64654  -0.62095  -0.61592  -0.59930  -0.58241
 Alpha  occ. eigenvalues --   -0.55885  -0.55161  -0.53288  -0.53082  -0.52994
 Alpha  occ. eigenvalues --   -0.52698  -0.50542  -0.48762  -0.48743  -0.48576
 Alpha  occ. eigenvalues --   -0.47341  -0.46528  -0.46483  -0.44762  -0.44465
 Alpha  occ. eigenvalues --   -0.37250  -0.36242
 Alpha virt. eigenvalues --    0.05105   0.11368   0.16527   0.20101   0.22509
 Alpha virt. eigenvalues --    0.23226   0.24668   0.25714   0.26208   0.28651
 Alpha virt. eigenvalues --    0.29232   0.30729   0.31002   0.31505   0.32598

 Mulliken charges:
               1
     1  C   -0.301364
     2  C   -0.299944
     3  C   -0.476257
     4  H    0.149447
     5  H    0.143813
     6  H    0.155059
     7  H    0.154035
     8  H    0.153488
     9  H    0.155624
    10  H    0.163064
    11  C   -0.296862
    12  C   -0.312829
    13  C   -0.480075
    14  H    0.154038
    15  H    0.153004
    16  H    0.149146
    17  H    0.150005
    18  H    0.158125
    19  H    0.159653
    20  H    0.170244
    21  C   -0.171651
    22  C   -0.218785
    23  C   -0.170739
    24  C    0.159120
    25  C   -0.178173
    26  C   -0.225995
    27  H    0.225298
    28  H    0.222941
    29  H    0.275156
    30  H    0.284022
    31  H    0.231380
    32  N    0.488152
    33  O   -0.461608
    34  O   -0.460529
 Sum of Mulliken charges =  -0.00000

 Dipole moment (field-independent basis, Debye):
    X=              3.1391    Y=              4.0772    Z=              0.8338  Tot=              5.2127
 Quadrupole moment (field-independent basis, Debye-Ang):
   XX=           -108.2260   YY=            -92.0317   ZZ=            -94.7632
   XY=            -15.1355   XZ=             -3.3037   YZ=              0.7941

 Normal termination of Gaussian 16 at Wed May  5 20:21:29 2021.
