 Gaussian 16, Revision A.03,
 Gaussian 16:  EM64L-G16RevA.03 25-Dec-2016

 -------------
 #p 6-31g* mp2
 -------------

 ------------------------------------------------------
 Input file generated by CHIRIPA (05-May-2021 14:57:24)
 ------------------------------------------------------
 Symbolic Z-matrix:
 Charge =  0 Multiplicity = 1

                         Standard orientation:
 ---------------------------------------------------------------------
 Center     Atomic      Atomic             Coordinates (Angstroms)
 Number     Number       Type             X           Y           Z
 ---------------------------------------------------------------------
      1          6           0       -0.936308   -0.331653    0.041692
      2          6           0       -1.672270   -1.457496   -0.342180
      3          6           0       -3.069174   -1.414069   -0.378538
      4          6           0       -3.700419   -0.223080   -0.023062
      5          6           0       -2.995062    0.915409    0.363726
      6          6           0       -1.598885    0.849125    0.392801
      7          1           0        0.148558   -0.374266    0.067107
      8          1           0       -1.160377   -2.375849   -0.615380
      9          1           0       -3.663548   -2.270851   -0.671902
     10          1           0       -3.533503    1.816687    0.630551
     11          1           0       -1.029908    1.725022    0.691322
     12          7           0       -5.178874   -0.165007   -0.057697
     13          8           0       -5.711226    0.896229    0.260132
     14          8           0       -5.777339   -1.181825   -0.402019
     15          6           0        1.936636    2.240149   -0.141153
     16          6           0        1.983926    1.489284    1.038035
     17          6           0        2.822489    0.375038    1.137112
     18          6           0        3.603711    0.038573    0.032678
     19          6           0        3.578809    0.766694   -1.155813
     20          6           0        2.732825    1.877097   -1.232391
     21          1           0        1.282338    3.104229   -0.209380
     22          1           0        1.366709    1.768899    1.887096
     23          1           0        2.878700   -0.223890    2.037969
     24          1           0        4.205815    0.463350   -1.985430
     25          1           0        2.698154    2.458380   -2.149426
     26          7           0        4.495389   -1.138995    0.125656
     27          8           0        5.173739   -1.414643   -0.861509
     28          8           0        4.499050   -1.764027    1.183936
 ---------------------------------------------------------------------

 SCF Done:  E(RHF) =  -868.335969912     A.U. after   16 cycles
 E2 =    -0.2603152278D+01 EUMP2 =    -0.87093912219001D+03

 The electronic state is 1-A.
 Alpha  occ. eigenvalues --  -20.61816 -20.61808 -20.61006 -20.60995 -15.86876
 Alpha  occ. eigenvalues --  -15.86061 -11.32500 -11.31445 -11.29074 -11.29011
 Alpha  occ. eigenvalues --  -11.28831 -11.28139 -11.28105 -11.28043 -11.28007
 Alpha  occ. eigenvalues --  -11.27607 -11.27120 -11.26942  -1.60888  -1.60080
 Alpha  occ. eigenvalues --   -1.40432  -1.39633  -1.20707  -1.19628  -1.10048
 Alpha  occ. eigenvalues --   -1.08995  -1.06112  -1.05056  -0.96823  -0.95828
 Alpha  occ. eigenvalues --   -0.87499  -0.86434  -0.83629  -0.82680  -0.78641
 Alpha  occ. eigenvalues --   -0.77744  -0.73079  -0.72278  -0.72230  -0.71749
 Alpha  occ. eigenvalues --   -0.71406  -0.70718  -0.66332  -0.66129  -0.65270
 Alpha  occ. eigenvalues --   -0.65053  -0.63400  -0.62403  -0.56574  -0.55856
 Alpha  occ. eigenvalues --   -0.54152  -0.54042  -0.53363  -0.53136  -0.49861
 Alpha  occ. eigenvalues --   -0.49824  -0.49038  -0.49030  -0.45780  -0.45035
 Alpha  occ. eigenvalues --   -0.38706  -0.37807  -0.37456  -0.36677
 Alpha virt. eigenvalues --    0.03822   0.04847   0.09775   0.10929   0.15302
 Alpha virt. eigenvalues --    0.16327   0.18997   0.22029   0.25055   0.26527
 Alpha virt. eigenvalues --    0.28135   0.28973   0.29791   0.30533   0.31925

 Mulliken charges:
               1
     1  C   -0.174470
     2  C   -0.220913
     3  C   -0.169639
     4  C    0.157692
     5  C   -0.170587
     6  C   -0.223536
     7  H    0.237751
     8  H    0.226844
     9  H    0.276917
    10  H    0.274192
    11  H    0.209348
    12  N    0.488102
    13  O   -0.461275
    14  O   -0.459160
    15  C   -0.172070
    16  C   -0.231454
    17  C   -0.179402
    18  C    0.159384
    19  C   -0.170808
    20  C   -0.216798
    21  H    0.228247
    22  H    0.227159
    23  H    0.280488
    24  H    0.280389
    25  H    0.229774
    26  N    0.487740
    27  O   -0.456312
    28  O   -0.457602
 Sum of Mulliken charges =  -0.00000

 Dipole moment (field-independent basis, Debye):
    X=              2.4493    Y=              3.8515    Z=             -0.3437  Tot=              4.5773
 Quadrupole moment (field-independent basis, Debye-Ang):
   XX=           -165.8077   YY=           -100.2425   ZZ=           -100.6087
   XY=             15.2689   XZ=             -3.6512   YZ=              0.7068

 Normal termination of Gaussian 16 at Wed May  5 19:26:15 2021.
