 Gaussian 16, Revision A.03,
 Gaussian 16:  EM64L-G16RevA.03 25-Dec-2016

 -------------
 #p 6-31g* mp2
 -------------

 ------------------------------------------------------
 Input file generated by CHIRIPA (05-May-2021 14:53:15)
 ------------------------------------------------------
 Symbolic Z-matrix:
 Charge =  0 Multiplicity = 1

                         Standard orientation:
 ---------------------------------------------------------------------
 Center     Atomic      Atomic             Coordinates (Angstroms)
 Number     Number       Type             X           Y           Z
 ---------------------------------------------------------------------
      1          6           0       -2.020421    0.274129   -0.692593
      2          6           0       -3.112243   -0.697100   -0.242457
      3          6           0       -3.113601   -1.998343   -1.045302
      4          1           0       -2.156274    0.499811   -1.759157
      5          1           0       -1.041673   -0.216493   -0.599114
      6          1           0       -4.088526   -0.204313   -0.335450
      7          1           0       -2.973889   -0.920346    0.823205
      8          1           0       -2.153595   -2.514729   -0.943639
      9          1           0       -3.274565   -1.794627   -2.108877
     10          1           0       -3.901917   -2.678004   -0.706955
     11          6           0       -2.006301    1.579639    0.100611
     12          6           0       -0.914479    2.550869   -0.349525
     13          6           0       -0.913121    3.852111    0.453319
     14          1           0       -2.985048    2.070261    0.007132
     15          1           0       -1.870448    1.353958    1.167174
     16          1           0       -1.052833    2.774114   -1.415187
     17          1           0        0.061804    2.058081   -0.256533
     18          1           0       -0.752156    3.648395    1.516894
     19          1           0       -1.873127    4.368497    0.351657
     20          1           0       -0.124804    4.531772    0.114973
     21          6           0       -0.094323   -2.299658    1.281896
     22          6           0        0.567234   -2.663880    0.104523
     23          6           0        1.493011   -1.798843   -0.486406
     24          6           0        1.734123   -0.571812    0.129670
     25          6           0        1.091078   -0.180292    1.302912
     26          6           0        0.169246   -1.061209    1.876284
     27          1           0       -0.811956   -2.977808    1.734125
     28          1           0        0.364531   -3.625040   -0.359295
     29          1           0        2.019356   -2.055543   -1.397715
     30          1           0        1.314085    0.784532    1.742003
     31          1           0       -0.343041   -0.775701    2.790665
     32          7           0        2.712113    0.352371   -0.486627
     33          8           0        2.906853    1.427737    0.075778
     34          8           0        3.265404   -0.016122   -1.520416
 ---------------------------------------------------------------------

 SCF Done:  E(RHF) =  -669.532091709     A.U. after   15 cycles
 E2 =    -0.2100943867D+01 EUMP2 =    -0.67163303557627D+03

 The electronic state is 1-A.
 Alpha  occ. eigenvalues --  -20.61033 -20.61015 -15.86043 -11.31415 -11.28012
 Alpha  occ. eigenvalues --  -11.27980 -11.27720 -11.27004 -11.26975 -11.21880
 Alpha  occ. eigenvalues --  -11.21442 -11.21415 -11.21340 -11.21247 -11.20879
 Alpha  occ. eigenvalues --   -1.60078  -1.39633  -1.19657  -1.09033  -1.08450
 Alpha  occ. eigenvalues --   -1.05035  -1.03587  -0.96066  -0.95813  -0.87093
 Alpha  occ. eigenvalues --   -0.86401  -0.82663  -0.79674  -0.78284  -0.77714
 Alpha  occ. eigenvalues --   -0.72269  -0.71409  -0.70716  -0.65277  -0.65261
 Alpha  occ. eigenvalues --   -0.65024  -0.62396  -0.61018  -0.59421  -0.57642
 Alpha  occ. eigenvalues --   -0.55507  -0.55453  -0.53367  -0.53096  -0.52714
 Alpha  occ. eigenvalues --   -0.52462  -0.50035  -0.49044  -0.49026  -0.47972
 Alpha  occ. eigenvalues --   -0.46739  -0.45815  -0.45571  -0.44832  -0.43799
 Alpha  occ. eigenvalues --   -0.37542  -0.36574
 Alpha virt. eigenvalues --    0.04783   0.10790   0.16163   0.20123   0.23251
 Alpha virt. eigenvalues --    0.23887   0.25659   0.27457   0.27973   0.28134
 Alpha virt. eigenvalues --    0.28659   0.30099   0.31323   0.31711   0.32225

 Mulliken charges:
               1
     1  C   -0.303990
     2  C   -0.296022
     3  C   -0.479823
     4  H    0.149838
     5  H    0.161211
     6  H    0.152920
     7  H    0.141506
     8  H    0.151367
     9  H    0.157995
    10  H    0.156796
    11  C   -0.296290
    12  C   -0.307245
    13  C   -0.473875
    14  H    0.149082
    15  H    0.138997
    16  H    0.154271
    17  H    0.157382
    18  H    0.148159
    19  H    0.153459
    20  H    0.167630
    21  C   -0.168573
    22  C   -0.218527
    23  C   -0.173162
    24  C    0.160779
    25  C   -0.175576
    26  C   -0.215185
    27  H    0.228504
    28  H    0.225874
    29  H    0.277118
    30  H    0.277476
    31  H    0.225005
    32  N    0.489344
    33  O   -0.458554
    34  O   -0.457892
 Sum of Mulliken charges =  -0.00000

 Dipole moment (field-independent basis, Debye):
    X=             -3.1416    Y=             -3.2796    Z=              2.1236  Tot=              5.0135
 Quadrupole moment (field-independent basis, Debye-Ang):
   XX=           -107.4867   YY=            -89.8856   ZZ=            -91.6435
   XY=             -4.7663   XZ=              3.0254   YZ=              0.0608

 Normal termination of Gaussian 16 at Thu May  6 04:17:08 2021.
