 Gaussian 16, Revision A.03,
 Gaussian 16:  EM64L-G16RevA.03 25-Dec-2016

 -------------
 #p 6-31g* mp2
 -------------

 ------------------------------------------------------
 Input file generated by CHIRIPA (05-May-2021 14:53:14)
 ------------------------------------------------------
 Symbolic Z-matrix:
 Charge =  0 Multiplicity = 1

                         Standard orientation:
 ---------------------------------------------------------------------
 Center     Atomic      Atomic             Coordinates (Angstroms)
 Number     Number       Type             X           Y           Z
 ---------------------------------------------------------------------
      1          6           0       -5.368938    0.122775   -0.090767
      2          6           0       -5.749661   -1.237224    0.495269
      3          6           0       -7.260585   -1.470786    0.514059
      4          1           0       -5.856757    0.915768    0.492449
      5          1           0       -5.765216    0.197703   -1.112894
      6          1           0       -5.351597   -1.310110    1.515489
      7          1           0       -5.260726   -2.027063   -0.089292
      8          1           0       -7.670130   -1.424917   -0.500224
      9          1           0       -7.761518   -0.703890    1.113674
     10          1           0       -7.510395   -2.448881    0.936888
     11          6           0       -3.861797    0.370969   -0.116308
     12          6           0       -3.481074    1.730968   -0.702344
     13          6           0       -1.970150    1.964530   -0.721134
     14          1           0       -3.465519    0.296041    0.905819
     15          1           0       -3.373978   -0.422023   -0.699523
     16          1           0       -3.970009    2.520808   -0.117783
     17          1           0       -3.879138    1.803854   -1.722563
     18          1           0       -1.469217    1.197635   -1.320749
     19          1           0       -1.560605    1.918662    0.293149
     20          1           0       -1.720340    2.942625   -1.143963
     21          6           0        1.088073   -0.039622    0.141824
     22          6           0        1.715694   -0.888514   -0.775779
     23          6           0        3.110002   -0.981416   -0.818468
     24          6           0        3.849156   -0.207684    0.074997
     25          6           0        3.253171    0.647314    1.000778
     26          6           0        1.857459    0.724236    1.025616
     27          1           0        0.004396    0.026338    0.168052
     28          1           0        1.120714   -1.482909   -1.463339
     29          1           0        3.621765   -1.630457   -1.518656
     30          1           0        3.872984    1.227480    1.673578
     31          1           0        1.372753    1.384349    1.739307
     32          7           0        5.325991   -0.297576    0.039253
     33          8           0        5.954639    0.394516    0.837030
     34          8           0        5.826922   -1.058424   -0.785862
 ---------------------------------------------------------------------

 SCF Done:  E(RHF) =  -669.534799345     A.U. after   15 cycles
 E2 =    -0.2091635503D+01 EUMP2 =    -0.67162643484839D+03

 The electronic state is 1-A.
 Alpha  occ. eigenvalues --  -20.60679 -20.60674 -15.85734 -11.31069 -11.27654
 Alpha  occ. eigenvalues --  -11.27650 -11.27271 -11.26639 -11.26628 -11.22632
 Alpha  occ. eigenvalues --  -11.22424 -11.22386 -11.22287 -11.22164 -11.21626
 Alpha  occ. eigenvalues --   -1.59756  -1.39311  -1.19242  -1.09344  -1.08632
 Alpha  occ. eigenvalues --   -1.04648  -1.04437  -0.96918  -0.95470  -0.87934
 Alpha  occ. eigenvalues --   -0.86043  -0.82322  -0.80518  -0.79138  -0.77371
 Alpha  occ. eigenvalues --   -0.71952  -0.71080  -0.70352  -0.65967  -0.64891
 Alpha  occ. eigenvalues --   -0.64663  -0.62010  -0.61820  -0.60288  -0.58549
 Alpha  occ. eigenvalues --   -0.56215  -0.55223  -0.53568  -0.53256  -0.52916
 Alpha  occ. eigenvalues --   -0.52738  -0.50861  -0.48811  -0.48708  -0.48676
 Alpha  occ. eigenvalues --   -0.47541  -0.46668  -0.46578  -0.44723  -0.44671
 Alpha  occ. eigenvalues --   -0.37185  -0.36263
 Alpha virt. eigenvalues --    0.05160   0.11370   0.16617   0.20063   0.22344
 Alpha virt. eigenvalues --    0.23842   0.25083   0.26185   0.26782   0.27226
 Alpha virt. eigenvalues --    0.29636   0.30148   0.30308   0.31399   0.31964

 Mulliken charges:
               1
     1  C   -0.298525
     2  C   -0.300259
     3  C   -0.476234
     4  H    0.151921
     5  H    0.151726
     6  H    0.152201
     7  H    0.151745
     8  H    0.156264
     9  H    0.156320
    10  H    0.162102
    11  C   -0.300155
    12  C   -0.299978
    13  C   -0.479693
    14  H    0.147401
    15  H    0.146262
    16  H    0.155800
    17  H    0.156170
    18  H    0.152640
    19  H    0.148148
    20  H    0.168708
    21  C   -0.171227
    22  C   -0.221553
    23  C   -0.170566
    24  C    0.157855
    25  C   -0.170780
    26  C   -0.221588
    27  H    0.234086
    28  H    0.222318
    29  H    0.275041
    30  H    0.275085
    31  H    0.222361
    32  N    0.488130
    33  O   -0.460853
    34  O   -0.460874
 Sum of Mulliken charges =  -0.00000

 Dipole moment (field-independent basis, Debye):
    X=             -5.5124    Y=              0.3980    Z=              0.0812  Tot=              5.5273
 Quadrupole moment (field-independent basis, Debye-Ang):
   XX=           -135.7094   YY=            -92.8165   ZZ=            -91.4692
   XY=              2.0299   XZ=              0.4867   YZ=              3.1806

 Normal termination of Gaussian 16 at Thu May  6 12:06:55 2021.
