 Gaussian 16, Revision A.03,
 Gaussian 16:  EM64L-G16RevA.03 25-Dec-2016

 -------------
 #p 6-31g* mp2
 -------------

 ------------------------------------------------------
 Input file generated by CHIRIPA (05-May-2021 14:55:20)
 ------------------------------------------------------
 Symbolic Z-matrix:
 Charge =  0 Multiplicity = 1

                         Standard orientation:
 ---------------------------------------------------------------------
 Center     Atomic      Atomic             Coordinates (Angstroms)
 Number     Number       Type             X           Y           Z
 ---------------------------------------------------------------------
      1          6           0       -3.732847    1.649576   -0.548913
      2          6           0       -2.339726    1.618160   -0.670359
      3          6           0       -1.629849    0.444212   -0.401161
      4          6           0       -2.348271   -0.684935   -0.011051
      5          6           0       -3.736213   -0.685216    0.118973
      6          6           0       -4.425423    0.499815   -0.155328
      7          1           0       -4.276269    2.565831   -0.760014
      8          1           0       -1.799237    2.509564   -0.975834
      9          1           0       -0.551290    0.392026   -0.487218
     10          1           0       -4.247330   -1.589783    0.425462
     11          1           0       -5.507333    0.521291   -0.060177
     12          7           0       -1.607695   -1.933608    0.276638
     13          8           0       -2.263985   -2.914904    0.618657
     14          8           0       -0.384964   -1.907377    0.154662
     15          6           0        2.465448    0.908109    0.181181
     16          6           0        2.479113    2.412092    0.456565
     17          6           0        1.078179    2.987258    0.667183
     18          1           0        1.848907    0.709866   -0.706242
     19          1           0        1.979060    0.393015    1.021123
     20          1           0        2.966568    2.924067   -0.383009
     21          1           0        3.095850    2.606796    1.343324
     22          1           0        0.586734    2.503048    1.517256
     23          1           0        0.456719    2.822121   -0.218886
     24          1           0        1.111306    4.063644    0.862524
     25          6           0        3.858588    0.318487   -0.031510
     26          6           0        3.844923   -1.185495   -0.306892
     27          6           0        5.245857   -1.760662   -0.517511
     28          1           0        4.344976    0.833581   -0.871450
     29          1           0        4.475129    0.516731    0.855915
     30          1           0        3.228186   -1.380199   -1.193651
     31          1           0        3.357467   -1.697471    0.532682
     32          1           0        5.867316   -1.595525    0.368558
     33          1           0        5.737301   -1.276453   -1.367583
     34          1           0        5.212729   -2.837048   -0.712851
 ---------------------------------------------------------------------

 SCF Done:  E(RHF) =  -669.534702023     A.U. after   15 cycles
 E2 =    -0.2093482089D+01 EUMP2 =    -0.67162818411173D+03

 The electronic state is 1-A.
 Alpha  occ. eigenvalues --  -20.60733 -20.60728 -15.85777 -11.31089 -11.27674
 Alpha  occ. eigenvalues --  -11.27590 -11.27408 -11.26685 -11.26633 -11.21871
 Alpha  occ. eigenvalues --  -11.21729 -11.21398 -11.21153 -11.20962 -11.20573
 Alpha  occ. eigenvalues --   -1.59805  -1.39359  -1.19267  -1.08675  -1.08355
 Alpha  occ. eigenvalues --   -1.04671  -1.03464  -0.95976  -0.95516  -0.87012
 Alpha  occ. eigenvalues --   -0.86064  -0.82356  -0.79587  -0.78122  -0.77329
 Alpha  occ. eigenvalues --   -0.71994  -0.71127  -0.70385  -0.65029  -0.64897
 Alpha  occ. eigenvalues --   -0.64692  -0.62091  -0.60826  -0.59369  -0.57535
 Alpha  occ. eigenvalues --   -0.55313  -0.55168  -0.53047  -0.52889  -0.52599
 Alpha  occ. eigenvalues --   -0.52287  -0.49937  -0.48760  -0.48755  -0.47831
 Alpha  occ. eigenvalues --   -0.46583  -0.45600  -0.45475  -0.44757  -0.43700
 Alpha  occ. eigenvalues --   -0.37257  -0.36244
 Alpha virt. eigenvalues --    0.05107   0.11360   0.16578   0.20246   0.23173
 Alpha virt. eigenvalues --    0.24196   0.25754   0.26374   0.27174   0.28368
 Alpha virt. eigenvalues --    0.29413   0.30226   0.31575   0.32031   0.32161

 Mulliken charges:
               1
     1  C   -0.170698
     2  C   -0.224380
     3  C   -0.177491
     4  C    0.154619
     5  C   -0.170087
     6  C   -0.219379
     7  H    0.225367
     8  H    0.226323
     9  H    0.291000
    10  H    0.275111
    11  H    0.222969
    12  N    0.487372
    13  O   -0.460588
    14  O   -0.461790
    15  C   -0.304702
    16  C   -0.299081
    17  C   -0.479709
    18  H    0.144640
    19  H    0.161162
    20  H    0.151753
    21  H    0.155172
    22  H    0.160799
    23  H    0.141472
    24  H    0.162309
    25  C   -0.298005
    26  C   -0.300016
    27  C   -0.476395
    28  H    0.146877
    29  H    0.149250
    30  H    0.155674
    31  H    0.162710
    32  H    0.153240
    33  H    0.151986
    34  H    0.162513
 Sum of Mulliken charges =  -0.00000

 Dipole moment (field-independent basis, Debye):
    X=             -2.4937    Y=              4.2749    Z=             -0.8996  Tot=              5.0302
 Quadrupole moment (field-independent basis, Debye-Ang):
   XX=            -79.9435   YY=           -100.6508   ZZ=            -94.3250
   XY=             -6.1289   XZ=              1.8876   YZ=             -0.0880

 Normal termination of Gaussian 16 at Wed May  5 17:23:25 2021.
