 Gaussian 16, Revision A.03,
 Gaussian 16:  EM64L-G16RevA.03 25-Dec-2016

 -------------
 #p 6-31g* mp2
 -------------

 ------------------------------------------------------
 Input file generated by CHIRIPA (05-May-2021 14:57:26)
 ------------------------------------------------------
 Symbolic Z-matrix:
 Charge =  0 Multiplicity = 1

                         Standard orientation:
 ---------------------------------------------------------------------
 Center     Atomic      Atomic             Coordinates (Angstroms)
 Number     Number       Type             X           Y           Z
 ---------------------------------------------------------------------
      1          6           0       -1.348910    0.051300    0.983221
      2          6           0       -2.349539   -0.451250    1.821497
      3          6           0       -3.668369   -0.555556    1.369442
      4          6           0       -3.952506   -0.146274    0.067504
      5          6           0       -2.977658    0.358546   -0.791634
      6          6           0       -1.665605    0.453884   -0.318375
      7          1           0       -0.327043    0.128844    1.342624
      8          1           0       -2.106493   -0.764658    2.832808
      9          1           0       -4.462526   -0.940979    1.997282
     10          1           0       -3.250534    0.662998   -1.794762
     11          1           0       -0.890548    0.844551   -0.971605
     12          7           0       -5.345106   -0.251951   -0.422291
     13          8           0       -5.569600    0.115356   -1.573519
     14          8           0       -6.185762   -0.700086    0.354310
     15          6           0        4.971801   -2.060418   -0.264268
     16          6           0        5.165876   -1.200549    0.821771
     17          6           0        4.479283    0.014998    0.896510
     18          6           0        3.602258    0.340508   -0.137010
     19          6           0        3.387485   -0.494965   -1.232065
     20          6           0        4.084790   -1.705508   -1.285919
     21          1           0        5.509324   -3.002740   -0.314216
     22          1           0        5.854118   -1.473578    1.616643
     23          1           0        4.610634    0.699419    1.725807
     24          1           0        2.694854   -0.195413   -2.009208
     25          1           0        3.932090   -2.371330   -2.130554
     26          7           0        2.869723    1.624704   -0.068942
     27          8           0        2.102600    1.888362   -0.992328
     28          8           0        3.076558    2.343283    0.906508
 ---------------------------------------------------------------------

 SCF Done:  E(RHF) =  -868.339478601     A.U. after   16 cycles
 E2 =    -0.2598875863D+01 EUMP2 =    -0.87093835446391D+03

 The electronic state is 1-A.
 Alpha  occ. eigenvalues --  -20.61979 -20.61928 -20.60356 -20.60349 -15.86980
 Alpha  occ. eigenvalues --  -15.85402 -11.32128 -11.30663 -11.28669 -11.28648
 Alpha  occ. eigenvalues --  -11.28325 -11.27601 -11.27591 -11.27235 -11.27156
 Alpha  occ. eigenvalues --  -11.26897 -11.26247 -11.26040  -1.61025  -1.59433
 Alpha  occ. eigenvalues --   -1.40582  -1.38989  -1.20272  -1.18807  -1.09701
 Alpha  occ. eigenvalues --   -1.08216  -1.05630  -1.04182  -0.96570  -0.95077
 Alpha  occ. eigenvalues --   -0.87037  -0.85576  -0.83403  -0.81906  -0.78488
 Alpha  occ. eigenvalues --   -0.76971  -0.73189  -0.72358  -0.71623  -0.71355
 Alpha  occ. eigenvalues --   -0.70754  -0.69912  -0.65915  -0.65613  -0.64450
 Alpha  occ. eigenvalues --   -0.64144  -0.62976  -0.61518  -0.56116  -0.54682
 Alpha  occ. eigenvalues --   -0.53981  -0.53707  -0.52534  -0.52248  -0.49965
 Alpha  occ. eigenvalues --   -0.49924  -0.48386  -0.48370  -0.46015  -0.44419
 Alpha  occ. eigenvalues --   -0.38234  -0.37226  -0.36780  -0.35789
 Alpha virt. eigenvalues --    0.03975   0.05538   0.10426   0.11869   0.15501
 Alpha virt. eigenvalues --    0.17071   0.20562   0.21963   0.26460   0.27134
 Alpha virt. eigenvalues --    0.28218   0.28558   0.30336   0.31093   0.32171

 Mulliken charges:
               1
     1  C   -0.170651
     2  C   -0.218799
     3  C   -0.172541
     4  C    0.158495
     5  C   -0.172629
     6  C   -0.224076
     7  H    0.224232
     8  H    0.220826
     9  H    0.273385
    10  H    0.274769
    11  H    0.239133
    12  N    0.488081
    13  O   -0.461275
    14  O   -0.462273
    15  C   -0.169864
    16  C   -0.218462
    17  C   -0.171828
    18  C    0.154722
    19  C   -0.172011
    20  C   -0.218022
    21  H    0.229081
    22  H    0.226310
    23  H    0.276732
    24  H    0.274528
    25  H    0.226864
    26  N    0.486879
    27  O   -0.466014
    28  O   -0.455591
 Sum of Mulliken charges =  -0.00000

 Dipole moment (field-independent basis, Debye):
    X=              7.9257    Y=             -4.1736    Z=              1.4526  Tot=              9.0745
 Quadrupole moment (field-independent basis, Debye-Ang):
   XX=           -124.4700   YY=           -108.1954   ZZ=            -97.1536
   XY=            -17.2977   XZ=             -6.7158   YZ=             -0.3786

 Normal termination of Gaussian 16 at Wed May  5 21:11:26 2021.
