 Gaussian 16, Revision A.03,
 Gaussian 16:  EM64L-G16RevA.03 25-Dec-2016

 -------------
 #p 6-31g* mp2
 -------------

 ------------------------------------------------------
 Input file generated by CHIRIPA (05-May-2021 14:53:16)
 ------------------------------------------------------
 Symbolic Z-matrix:
 Charge =  0 Multiplicity = 1

                         Standard orientation:
 ---------------------------------------------------------------------
 Center     Atomic      Atomic             Coordinates (Angstroms)
 Number     Number       Type             X           Y           Z
 ---------------------------------------------------------------------
      1          6           0       -2.767370    0.758885   -0.162450
      2          6           0       -2.772426    2.228835   -0.583407
      3          6           0       -1.369289    2.768995   -0.861311
      4          1           0       -2.144013    0.643151    0.734756
      5          1           0       -2.292740    0.160175   -0.952175
      6          1           0       -3.248150    2.824415    0.206268
      7          1           0       -3.395998    2.341115   -1.479603
      8          1           0       -0.889469    2.199987   -1.664183
      9          1           0       -0.740781    2.686033    0.031267
     10          1           0       -1.396238    3.821389   -1.160645
     11          6           0       -4.162800    0.204479    0.118863
     12          6           0       -4.157744   -1.265472    0.539821
     13          6           0       -5.560881   -1.805631    0.817724
     14          1           0       -4.637430    0.803189    0.908588
     15          1           0       -4.786157    0.320212   -0.778342
     16          1           0       -3.534172   -1.377751    1.436016
     17          1           0       -3.682020   -1.861052   -0.249855
     18          1           0       -6.189389   -1.722670   -0.074854
     19          1           0       -6.040701   -1.236623    1.620596
     20          1           0       -5.533932   -2.858025    1.117058
     21          6           0        3.610082    1.844780    0.802700
     22          6           0        4.443683    0.722011    0.770744
     23          6           0        3.954095   -0.513684    0.337256
     24          6           0        2.619800   -0.591041   -0.058930
     25          6           0        1.764363    0.509458   -0.038470
     26          6           0        2.275436    1.735113    0.398704
     27          1           0        3.998751    2.800798    1.140875
     28          1           0        5.480608    0.804229    1.083907
     29          1           0        4.577469   -1.398903    0.302476
     30          1           0        0.735142    0.396405   -0.356811
     31          1           0        1.625748    2.605393    0.422469
     32          7           0        2.090123   -1.893901   -0.519794
     33          8           0        0.910861   -1.935801   -0.863631
     34          8           0        2.864253   -2.848514   -0.528457
 ---------------------------------------------------------------------

 SCF Done:  E(RHF) =  -669.535433414     A.U. after   15 cycles
 E2 =    -0.2092276441D+01 EUMP2 =    -0.67162770985417D+03

 The electronic state is 1-A.
 Alpha  occ. eigenvalues --  -20.60710 -20.60705 -15.85759 -11.31081 -11.27667
 Alpha  occ. eigenvalues --  -11.27593 -11.27400 -11.26679 -11.26614 -11.22035
 Alpha  occ. eigenvalues --  -11.21940 -11.21537 -11.21370 -11.21301 -11.20831
 Alpha  occ. eigenvalues --   -1.59784  -1.39338  -1.19256  -1.08663  -1.08550
 Alpha  occ. eigenvalues --   -1.04657  -1.03699  -0.96197  -0.95501  -0.87232
 Alpha  occ. eigenvalues --   -0.86054  -0.82340  -0.79799  -0.78295  -0.77363
 Alpha  occ. eigenvalues --   -0.71980  -0.71106  -0.70371  -0.65191  -0.64908
 Alpha  occ. eigenvalues --   -0.64663  -0.62067  -0.61079  -0.59582  -0.57749
 Alpha  occ. eigenvalues --   -0.55515  -0.55161  -0.53004  -0.52951  -0.52732
 Alpha  occ. eigenvalues --   -0.52556  -0.50143  -0.48737  -0.48733  -0.48073
 Alpha  occ. eigenvalues --   -0.46786  -0.45839  -0.45700  -0.44752  -0.43918
 Alpha  occ. eigenvalues --   -0.37247  -0.36252
 Alpha virt. eigenvalues --    0.05127   0.11383   0.16605   0.20206   0.22918
 Alpha virt. eigenvalues --    0.23911   0.25502   0.26310   0.27111   0.28221
 Alpha virt. eigenvalues --    0.29156   0.30408   0.31345   0.31732   0.32107

 Mulliken charges:
               1
     1  C   -0.304636
     2  C   -0.298229
     3  C   -0.485408
     4  H    0.147622
     5  H    0.159673
     6  H    0.152866
     7  H    0.155812
     8  H    0.159161
     9  H    0.146229
    10  H    0.163832
    11  C   -0.298564
    12  C   -0.300826
    13  C   -0.476138
    14  H    0.148068
    15  H    0.150271
    16  H    0.152816
    17  H    0.160004
    18  H    0.154726
    19  H    0.153205
    20  H    0.162150
    21  C   -0.170758
    22  C   -0.218989
    23  C   -0.170539
    24  C    0.158013
    25  C   -0.177428
    26  C   -0.225003
    27  H    0.225325
    28  H    0.222932
    29  H    0.275095
    30  H    0.283774
    31  H    0.228994
    32  N    0.488006
    33  O   -0.461263
    34  O   -0.460790
 Sum of Mulliken charges =  -0.00000

 Dipole moment (field-independent basis, Debye):
    X=              1.6894    Y=              4.5186    Z=              1.5479  Tot=              5.0664
 Quadrupole moment (field-independent basis, Debye-Ang):
   XX=            -81.7331   YY=           -100.0842   ZZ=            -94.7395
   XY=              8.5685   XZ=              5.5703   YZ=             -1.2603

 Normal termination of Gaussian 16 at Thu May  6 15:34:47 2021.
