 Gaussian 16, Revision A.03,
 Gaussian 16:  EM64L-G16RevA.03 25-Dec-2016

 -------------
 #p 6-31g* mp2
 -------------

 ------------------------------------------------------
 Input file generated by CHIRIPA (05-May-2021 14:57:23)
 ------------------------------------------------------
 Symbolic Z-matrix:
 Charge =  0 Multiplicity = 1

                         Standard orientation:
 ---------------------------------------------------------------------
 Center     Atomic      Atomic             Coordinates (Angstroms)
 Number     Number       Type             X           Y           Z
 ---------------------------------------------------------------------
      1          6           0        2.025691   -2.041454    0.910864
      2          6           0        1.625948   -0.706863    1.035737
      3          6           0        2.451185    0.326829    0.582953
      4          6           0        3.675070   -0.011617    0.007758
      5          6           0        4.101388   -1.331603   -0.130735
      6          6           0        3.259960   -2.349022    0.329052
      7          1           0        1.378338   -2.838130    1.265318
      8          1           0        0.667940   -0.465041    1.487165
      9          1           0        2.166462    1.368583    0.667203
     10          1           0        5.062076   -1.541469   -0.585105
     11          1           0        3.572999   -3.384586    0.230772
     12          7           0        4.557282    1.074093   -0.475292
     13          8           0        5.630716    0.749586   -0.978354
     14          8           0        4.158622    2.229021   -0.341696
     15          6           0       -2.956787    2.596685    0.410893
     16          6           0       -4.283878    2.229615    0.164702
     17          6           0       -4.612880    0.899392   -0.112447
     18          6           0       -3.585056   -0.042061   -0.135540
     19          6           0       -2.253428    0.292469    0.105599
     20          6           0       -1.947577    1.628647    0.380609
     21          1           0       -2.710203    3.632348    0.625359
     22          1           0       -5.069709    2.979276    0.187566
     23          1           0       -5.631963    0.587696   -0.306700
     24          1           0       -1.491828   -0.477273    0.075906
     25          1           0       -0.916070    1.910834    0.571420
     26          7           0       -3.921100   -1.453460   -0.427814
     27          8           0       -2.997218   -2.263935   -0.442333
     28          8           0       -5.102012   -1.722517   -0.636845
 ---------------------------------------------------------------------

 SCF Done:  E(RHF) =  -868.337653884     A.U. after   16 cycles
 E2 =    -0.2600115418D+01 EUMP2 =    -0.87093776930225D+03

 The electronic state is 1-A.
 Alpha  occ. eigenvalues --  -20.61355 -20.61329 -20.61153 -20.61134 -15.86400
 Alpha  occ. eigenvalues --  -15.86205 -11.31766 -11.31603 -11.28395 -11.28308
 Alpha  occ. eigenvalues --  -11.28298 -11.28143 -11.28043 -11.27864 -11.27418
 Alpha  occ. eigenvalues --  -11.27289 -11.27283 -11.27088  -1.60417  -1.60221
 Alpha  occ. eigenvalues --   -1.39973  -1.39775  -1.19939  -1.19782  -1.09319
 Alpha  occ. eigenvalues --   -1.09145  -1.05374  -1.05204  -0.96159  -0.95978
 Alpha  occ. eigenvalues --   -0.86754  -0.86589  -0.83026  -0.82816  -0.78110
 Alpha  occ. eigenvalues --   -0.77851  -0.72620  -0.72422  -0.71738  -0.71544
 Alpha  occ. eigenvalues --   -0.71037  -0.70838  -0.65614  -0.65473  -0.65379
 Alpha  occ. eigenvalues --   -0.65179  -0.62917  -0.62365  -0.55825  -0.55609
 Alpha  occ. eigenvalues --   -0.53671  -0.53552  -0.53467  -0.53229  -0.49381
 Alpha  occ. eigenvalues --   -0.49366  -0.49184  -0.49172  -0.45379  -0.45175
 Alpha  occ. eigenvalues --   -0.37886  -0.37705  -0.36962  -0.36821
 Alpha virt. eigenvalues --    0.04472   0.04676   0.10699   0.10711   0.15921
 Alpha virt. eigenvalues --    0.16067   0.18389   0.22252   0.24598   0.26064
 Alpha virt. eigenvalues --    0.28214   0.29427   0.30649   0.30950   0.32305

 Mulliken charges:
               1
     1  C   -0.168561
     2  C   -0.224892
     3  C   -0.172525
     4  C    0.159179
     5  C   -0.168990
     6  C   -0.218216
     7  H    0.234105
     8  H    0.219397
     9  H    0.269484
    10  H    0.277639
    11  H    0.227343
    12  N    0.488433
    13  O   -0.458030
    14  O   -0.462611
    15  C   -0.169904
    16  C   -0.218224
    17  C   -0.169685
    18  C    0.159876
    19  C   -0.176121
    20  C   -0.219569
    21  H    0.229423
    22  H    0.226259
    23  H    0.277402
    24  H    0.272285
    25  H    0.219468
    26  N    0.488386
    27  O   -0.463767
    28  O   -0.457582
 Sum of Mulliken charges =  -0.00000

 Dipole moment (field-independent basis, Debye):
    X=             -1.9424    Y=              1.0429    Z=              2.6744  Tot=              3.4659
 Quadrupole moment (field-independent basis, Debye-Ang):
   XX=           -128.0043   YY=           -102.6963   ZZ=           -106.2867
   XY=            -37.0922   XZ=              1.7577   YZ=              0.1353

 Normal termination of Gaussian 16 at Fri May  7 00:17:33 2021.
