 Gaussian 16, Revision A.03,
 Gaussian 16:  EM64L-G16RevA.03 25-Dec-2016

 -------------
 #p 6-31g* mp2
 -------------

 ------------------------------------------------------
 Input file generated by CHIRIPA (05-May-2021 14:57:25)
 ------------------------------------------------------
 Symbolic Z-matrix:
 Charge =  0 Multiplicity = 1

                         Standard orientation:
 ---------------------------------------------------------------------
 Center     Atomic      Atomic             Coordinates (Angstroms)
 Number     Number       Type             X           Y           Z
 ---------------------------------------------------------------------
      1          6           0       -4.105201    1.992945   -0.848768
      2          6           0       -3.460928    2.070242    0.390368
      3          6           0       -2.868406    0.936558    0.954483
      4          6           0       -2.939300   -0.263618    0.248904
      5          6           0       -3.573973   -0.372619   -0.987461
      6          6           0       -4.159572    0.773911   -1.532522
      7          1           0       -4.562798    2.878608   -1.279586
      8          1           0       -3.417156    3.015630    0.923631
      9          1           0       -2.363249    0.968173    1.912207
     10          1           0       -3.601308   -1.329041   -1.495326
     11          1           0       -4.659254    0.710923   -2.495016
     12          7           0       -2.315688   -1.470598    0.836022
     13          8           0       -2.391906   -2.516124    0.194381
     14          8           0       -1.762492   -1.348248    1.926729
     15          6           0        5.478279    0.679749    0.077115
     16          6           0        5.103144   -0.410948   -0.714198
     17          6           0        3.756263   -0.760858   -0.848436
     18          6           0        2.806556    0.005232   -0.174303
     19          6           0        3.148778    1.097488    0.621403
     20          6           0        4.501620    1.429165    0.741220
     21          1           0        6.526884    0.944485    0.175793
     22          1           0        5.859470   -0.994751   -1.231102
     23          1           0        3.438021   -1.600325   -1.454601
     24          1           0        2.372067    1.660518    1.124529
     25          1           0        4.790038    2.276728    1.356439
     26          7           0        1.377517   -0.355550   -0.308782
     27          8           0        0.560048    0.335361    0.295388
     28          8           0        1.101966   -1.322412   -1.015809
 ---------------------------------------------------------------------

 SCF Done:  E(RHF) =  -868.338008083     A.U. after   16 cycles
 E2 =    -0.2601479513D+01 EUMP2 =    -0.87093948759652D+03

 The electronic state is 1-A.
 Alpha  occ. eigenvalues --  -20.60572 -20.60565 -20.59034 -20.59022 -15.85588
 Alpha  occ. eigenvalues --  -15.84088 -11.30991 -11.29607 -11.27582 -11.27547
 Alpha  occ. eigenvalues --  -11.27327 -11.26606 -11.26582 -11.26275 -11.26241
 Alpha  occ. eigenvalues --  -11.26152 -11.25396 -11.25383  -1.59617  -1.58059
 Alpha  occ. eigenvalues --   -1.39173  -1.37626  -1.19167  -1.17838  -1.08561
 Alpha  occ. eigenvalues --   -1.07218  -1.04580  -1.03318  -0.95393  -0.94032
 Alpha  occ. eigenvalues --   -0.85977  -0.84710  -0.82229  -0.80901  -0.77268
 Alpha  occ. eigenvalues --   -0.75882  -0.71854  -0.70923  -0.70364  -0.70287
 Alpha  occ. eigenvalues --   -0.69276  -0.69037  -0.64826  -0.64589  -0.63539
 Alpha  occ. eigenvalues --   -0.63385  -0.61930  -0.60687  -0.55091  -0.53887
 Alpha  occ. eigenvalues --   -0.52901  -0.52680  -0.51599  -0.51460  -0.48632
 Alpha  occ. eigenvalues --   -0.48560  -0.47122  -0.47073  -0.44596  -0.42937
 Alpha  occ. eigenvalues --   -0.37148  -0.36182  -0.35813  -0.34907
 Alpha virt. eigenvalues --    0.05290   0.06745   0.11473   0.12746   0.16767
 Alpha virt. eigenvalues --    0.18145   0.21575   0.22614   0.27475   0.28403
 Alpha virt. eigenvalues --    0.28538   0.29554   0.31112   0.32079   0.32706

 Mulliken charges:
               1
     1  C   -0.172275
     2  C   -0.221044
     3  C   -0.158127
     4  C    0.172034
     5  C   -0.169496
     6  C   -0.219920
     7  H    0.218712
     8  H    0.216050
     9  H    0.272576
    10  H    0.273268
    11  H    0.217419
    12  N    0.495111
    13  O   -0.463017
    14  O   -0.463318
    15  C   -0.170905
    16  C   -0.218598
    17  C   -0.170221
    18  C    0.159899
    19  C   -0.169900
    20  C   -0.218541
    21  H    0.224869
    22  H    0.223253
    23  H    0.276927
    24  H    0.273510
    25  H    0.222177
    26  N    0.491813
    27  O   -0.466769
    28  O   -0.455487
 Sum of Mulliken charges =  -0.00000

 Dipole moment (field-independent basis, Debye):
    X=              3.1832    Y=              5.2871    Z=             -1.5550  Tot=              6.3643
 Quadrupole moment (field-independent basis, Debye-Ang):
   XX=            -65.8664   YY=           -104.0641   ZZ=           -102.1829
   XY=             -8.1994   XZ=              6.2775   YZ=              6.7398

 Normal termination of Gaussian 16 at Thu May  6 14:44:42 2021.
