 Gaussian 16, Revision A.03,
 Gaussian 16:  EM64L-G16RevA.03 25-Dec-2016

 -------------
 #p 6-31g* mp2
 -------------

 ------------------------------------------------------
 Input file generated by CHIRIPA (05-May-2021 14:51:11)
 ------------------------------------------------------
 Symbolic Z-matrix:
 Charge =  0 Multiplicity = 1

                         Standard orientation:
 ---------------------------------------------------------------------
 Center     Atomic      Atomic             Coordinates (Angstroms)
 Number     Number       Type             X           Y           Z
 ---------------------------------------------------------------------
      1          6           0        2.218942   -0.568117   -0.060087
      2          6           0        3.007554   -1.877215   -0.108441
      3          6           0        2.106025   -3.106377   -0.227610
      4          1           0        1.522964   -0.597889    0.789426
      5          1           0        1.602830   -0.485638   -0.966177
      6          1           0        3.623043   -1.956544    0.796819
      7          1           0        3.701871   -1.844246   -0.957825
      8          1           0        1.501842   -3.054072   -1.139107
      9          1           0        1.422565   -3.167009    0.625506
     10          1           0        2.690404   -4.031189   -0.260545
     11          6           0        3.106334    0.669656    0.058998
     12          6           0        2.317721    1.978754    0.107352
     13          6           0        3.219250    3.207916    0.226520
     14          1           0        3.722445    0.587177    0.965087
     15          1           0        3.802312    0.699428   -0.790516
     16          1           0        1.623404    1.945784    0.956735
     17          1           0        1.702233    2.058082   -0.797909
     18          1           0        3.902710    3.268547   -0.626596
     19          1           0        3.823434    3.155611    1.138018
     20          1           0        2.634871    4.132727    0.259455
     21          6           0       -3.059553    0.573361    0.191208
     22          6           0       -2.539264    1.848979   -0.472179
     23          6           0       -3.343563    3.089079   -0.080962
     24          1           0       -4.113923    0.429496   -0.081835
     25          1           0       -3.033632    0.699124    1.282495
     26          1           0       -2.564860    1.720331   -1.561863
     27          1           0       -1.485956    1.989721   -0.197680
     28          1           0       -3.308278    3.245276    1.002070
     29          1           0       -4.393312    2.974354   -0.369864
     30          1           0       -2.954539    3.989535   -0.566450
     31          6           0       -2.265723   -0.674899   -0.190118
     32          6           0       -2.786012   -1.950518    0.473268
     33          6           0       -1.981713   -3.190618    0.082052
     34          1           0       -2.291643   -0.800662   -1.281405
     35          1           0       -1.211353   -0.531035    0.082925
     36          1           0       -3.839319   -2.091259    0.198769
     37          1           0       -2.760415   -1.821870    1.562952
     38          1           0       -0.931962   -3.075893    0.370954
     39          1           0       -2.016996   -3.346813   -1.000980
     40          1           0       -2.370736   -4.091074    0.567539
 ---------------------------------------------------------------------

 SCF Done:  E(RHF) =  -470.732980599     A.U. after   11 cycles
 E2 =    -0.1584046356D+01 EUMP2 =    -0.47231702695559D+03

 The electronic state is 1-A.
 Alpha  occ. eigenvalues --  -11.21665 -11.21648 -11.21536 -11.21510 -11.21468
 Alpha  occ. eigenvalues --  -11.21409 -11.21324 -11.21250 -11.21115 -11.21090
 Alpha  occ. eigenvalues --  -11.21030 -11.20910  -1.08496  -1.08346  -1.03590
 Alpha  occ. eigenvalues --   -1.03443  -0.96050  -0.95880  -0.87086  -0.86878
 Alpha  occ. eigenvalues --   -0.79715  -0.79452  -0.78403  -0.78069  -0.65134
 Alpha  occ. eigenvalues --   -0.64972  -0.61016  -0.60830  -0.59421  -0.59239
 Alpha  occ. eigenvalues --   -0.57793  -0.57401  -0.55397  -0.55123  -0.52731
 Alpha  occ. eigenvalues --   -0.52672  -0.52583  -0.52101  -0.50055  -0.49731
 Alpha  occ. eigenvalues --   -0.48224  -0.47613  -0.46726  -0.46470  -0.46248
 Alpha  occ. eigenvalues --   -0.45784  -0.45646  -0.45178  -0.43837  -0.43701
 Alpha virt. eigenvalues --    0.20918   0.22642   0.23463   0.24936   0.25325
 Alpha virt. eigenvalues --    0.26202   0.26440   0.27265   0.29172   0.29897
 Alpha virt. eigenvalues --    0.30519   0.30964   0.31573   0.31808   0.32221

 Mulliken charges:
               1
     1  C   -0.301559
     2  C   -0.299710
     3  C   -0.479244
     4  H    0.150095
     5  H    0.152163
     6  H    0.151838
     7  H    0.152211
     8  H    0.157559
     9  H    0.157548
    10  H    0.160825
    11  C   -0.298105
    12  C   -0.301644
    13  C   -0.475718
    14  H    0.149621
    15  H    0.150077
    16  H    0.151760
    17  H    0.153735
    18  H    0.155431
    19  H    0.155279
    20  H    0.160567
    21  C   -0.297808
    22  C   -0.302033
    23  C   -0.475509
    24  H    0.149374
    25  H    0.148898
    26  H    0.151324
    27  H    0.154674
    28  H    0.154937
    29  H    0.155023
    30  H    0.159960
    31  C   -0.303731
    32  C   -0.299087
    33  C   -0.482086
    34  H    0.148544
    35  H    0.155884
    36  H    0.151380
    37  H    0.150827
    38  H    0.163223
    39  H    0.154219
    40  H    0.159257
 Sum of Mulliken charges =  -0.00000

 Dipole moment (field-independent basis, Debye):
    X=              0.0950    Y=             -0.0081    Z=             -0.0170  Tot=              0.0969
 Quadrupole moment (field-independent basis, Debye-Ang):
   XX=            -85.0221   YY=            -86.7022   ZZ=            -83.1290
   XY=             -0.0068   XZ=              0.4729   YZ=             -0.1915

 Normal termination of Gaussian 16 at Thu May  6 03:50:17 2021.
