 Gaussian 16, Revision A.03,
 Gaussian 16:  EM64L-G16RevA.03 25-Dec-2016

 -------------
 #p 6-31g* mp2
 -------------

 ------------------------------------------------------
 Input file generated by CHIRIPA (05-May-2021 14:51:12)
 ------------------------------------------------------
 Symbolic Z-matrix:
 Charge =  0 Multiplicity = 1

                         Standard orientation:
 ---------------------------------------------------------------------
 Center     Atomic      Atomic             Coordinates (Angstroms)
 Number     Number       Type             X           Y           Z
 ---------------------------------------------------------------------
      1          6           0       -3.808835    0.334568    0.444413
      2          6           0       -2.512787    0.571498   -0.331544
      3          6           0       -1.458316    1.312554    0.491086
      4          1           0       -4.212576    1.301249    0.775268
      5          1           0       -3.583524   -0.238118    1.354722
      6          1           0       -2.740679    1.142375   -1.240819
      7          1           0       -2.112186   -0.395846   -0.660755
      8          1           0       -1.202101    0.743959    1.390894
      9          1           0       -1.834165    2.290919    0.807534
     10          1           0       -0.540026    1.471323   -0.082845
     11          6           0       -4.872717   -0.405220   -0.364658
     12          6           0       -6.168765   -0.642151    0.411299
     13          6           0       -7.223237   -1.383206   -0.411331
     14          1           0       -5.098029    0.167465   -1.274967
     15          1           0       -4.468977   -1.371902   -0.695514
     16          1           0       -6.569366    0.325193    0.740510
     17          1           0       -5.940873   -1.213027    1.320574
     18          1           0       -6.847387   -2.361572   -0.727779
     19          1           0       -7.479451   -0.814611   -1.311140
     20          1           0       -8.141526   -1.541975    0.162600
     21          6           0        4.844085   -0.458151   -0.334142
     22          6           0        5.014831   -1.723877    0.506553
     23          6           0        6.024957   -2.701357   -0.095090
     24          1           0        4.526014   -0.738866   -1.347540
     25          1           0        5.818703    0.038410   -0.438740
     26          1           0        4.039928   -2.217166    0.610694
     27          1           0        5.332348   -1.440105    1.518121
     28          1           0        7.009888   -2.231605   -0.183660
     29          1           0        5.710125   -3.013082   -1.096244
     30          1           0        6.131470   -3.599032    0.521916
     31          6           0        3.837467    0.528803    0.254388
     32          6           0        3.666721    1.794530   -0.586308
     33          6           0        2.656595    2.772009    0.015335
     34          1           0        2.862848    0.032242    0.358987
     35          1           0        4.155538    0.809518    1.267786
     36          1           0        3.349204    1.510758   -1.597876
     37          1           0        4.641625    2.287818   -0.690449
     38          1           0        2.971428    3.083734    1.016489
     39          1           0        1.671664    2.302258    0.103905
     40          1           0        2.550082    3.669684   -0.601671
 ---------------------------------------------------------------------

 SCF Done:  E(RHF) =  -470.733296686     A.U. after   11 cycles
 E2 =    -0.1582219913D+01 EUMP2 =    -0.47231551659937D+03

 The electronic state is 1-A.
 Alpha  occ. eigenvalues --  -11.21633 -11.21613 -11.21591 -11.21571 -11.21424
 Alpha  occ. eigenvalues --  -11.21384 -11.21364 -11.21324 -11.21102 -11.21081
 Alpha  occ. eigenvalues --  -11.21064 -11.20999  -1.08450  -1.08408  -1.03557
 Alpha  occ. eigenvalues --   -1.03502  -0.96019  -0.95939  -0.87052  -0.86941
 Alpha  occ. eigenvalues --   -0.79641  -0.79542  -0.78262  -0.78219  -0.65079
 Alpha  occ. eigenvalues --   -0.65043  -0.60948  -0.60932  -0.59409  -0.59301
 Alpha  occ. eigenvalues --   -0.57669  -0.57517  -0.55285  -0.55256  -0.52798
 Alpha  occ. eigenvalues --   -0.52642  -0.52443  -0.52280  -0.49940  -0.49875
 Alpha  occ. eigenvalues --   -0.47969  -0.47843  -0.46646  -0.46597  -0.45804
 Alpha  occ. eigenvalues --   -0.45763  -0.45728  -0.45689  -0.43770  -0.43759
 Alpha virt. eigenvalues --    0.21864   0.23004   0.23572   0.24840   0.26217
 Alpha virt. eigenvalues --    0.26639   0.27123   0.27487   0.27774   0.28705
 Alpha virt. eigenvalues --    0.30185   0.31396   0.31739   0.31869   0.32003

 Mulliken charges:
               1
     1  C   -0.298739
     2  C   -0.299144
     3  C   -0.481581
     4  H    0.149835
     5  H    0.149594
     6  H    0.152124
     7  H    0.151634
     8  H    0.155481
     9  H    0.156122
    10  H    0.165151
    11  C   -0.298233
    12  C   -0.299645
    13  C   -0.475712
    14  H    0.149576
    15  H    0.149596
    16  H    0.152012
    17  H    0.151961
    18  H    0.155167
    19  H    0.155205
    20  H    0.160309
    21  C   -0.298280
    22  C   -0.299619
    23  C   -0.475691
    24  H    0.149541
    25  H    0.149519
    26  H    0.151835
    27  H    0.151946
    28  H    0.155189
    29  H    0.155135
    30  H    0.160180
    31  C   -0.298418
    32  C   -0.299277
    33  C   -0.483389
    34  H    0.149591
    35  H    0.149721
    36  H    0.151430
    37  H    0.151836
    38  H    0.155340
    39  H    0.162787
    40  H    0.159912
 Sum of Mulliken charges =  -0.00000

 Dipole moment (field-independent basis, Debye):
    X=             -0.0274    Y=              0.0042    Z=              0.0100  Tot=              0.0295
 Quadrupole moment (field-independent basis, Debye-Ang):
   XX=            -85.3667   YY=            -84.7238   ZZ=            -84.7152
   XY=              0.0795   XZ=              0.3665   YZ=             -0.5408

 Normal termination of Gaussian 16 at Wed May  5 21:32:45 2021.
