 Gaussian 16, Revision A.03,
 Gaussian 16:  EM64L-G16RevA.03 25-Dec-2016

 -------------
 #p 6-31g* mp2
 -------------

 ------------------------------------------------------
 Input file generated by CHIRIPA (05-May-2021 14:53:17)
 ------------------------------------------------------
 Symbolic Z-matrix:
 Charge =  0 Multiplicity = 1

                         Standard orientation:
 ---------------------------------------------------------------------
 Center     Atomic      Atomic             Coordinates (Angstroms)
 Number     Number       Type             X           Y           Z
 ---------------------------------------------------------------------
      1          6           0        3.261407    0.081818   -0.051024
      2          6           0        3.145434   -1.216868   -0.849742
      3          6           0        4.108792   -2.299170   -0.361526
      4          1           0        4.293724    0.452413   -0.113684
      5          1           0        3.069201   -0.129986    1.009915
      6          1           0        3.336440   -1.002431   -1.909058
      7          1           0        2.113227   -1.584313   -0.785331
      8          1           0        3.915408   -2.541935    0.688364
      9          1           0        5.145572   -1.956747   -0.441747
     10          1           0        4.009059   -3.218902   -0.946339
     11          6           0        2.304655    1.173410   -0.527238
     12          6           0        2.420629    2.472096    0.271480
     13          6           0        1.457270    3.554398   -0.216736
     14          1           0        2.496862    1.385215   -1.588177
     15          1           0        1.272339    0.802815   -0.464577
     16          1           0        3.452836    2.839541    0.207069
     17          1           0        2.229622    2.257660    1.330796
     18          1           0        0.420491    3.211976   -0.136514
     19          1           0        1.650655    3.797163   -1.266626
     20          1           0        1.557004    4.474130    0.368077
     21          6           0       -4.175312    0.560064   -0.895871
     22          6           0       -3.620839    1.151984    0.243739
     23          6           0       -2.512084    0.578734    0.873495
     24          6           0       -1.980787   -0.591871    0.334330
     25          6           0       -2.510667   -1.205450   -0.799706
     26          6           0       -3.619436   -0.614694   -1.413045
     27          1           0       -5.036625    1.012178   -1.378704
     28          1           0       -4.050455    2.064331    0.647591
     29          1           0       -2.062928    1.015948    1.756965
     30          1           0       -2.060440   -2.114763   -1.179002
     31          1           0       -4.047960   -1.076591   -2.297952
     32          7           0       -0.806990   -1.208012    0.992336
     33          8           0       -0.357460   -2.239453    0.497673
     34          8           0       -0.358724   -0.647837    1.990283
 ---------------------------------------------------------------------

 SCF Done:  E(RHF) =  -669.536713401     A.U. after   15 cycles
 E2 =    -0.2092735685D+01 EUMP2 =    -0.67162944908530D+03

 The electronic state is 1-A.
 Alpha  occ. eigenvalues --  -20.61094 -20.61088 -15.86098 -11.31371 -11.27923
 Alpha  occ. eigenvalues --  -11.27914 -11.27642 -11.26912 -11.26901 -11.20999
 Alpha  occ. eigenvalues --  -11.20766 -11.20673 -11.20333 -11.20266 -11.19913
 Alpha  occ. eigenvalues --   -1.60141  -1.39698  -1.19527  -1.08942  -1.07542
 Alpha  occ. eigenvalues --   -1.04911  -1.02663  -0.95793  -0.95162  -0.86315
 Alpha  occ. eigenvalues --   -0.86182  -0.82627  -0.78770  -0.77691  -0.77319
 Alpha  occ. eigenvalues --   -0.72321  -0.71464  -0.70631  -0.65182  -0.64912
 Alpha  occ. eigenvalues --   -0.64132  -0.62258  -0.60039  -0.58569  -0.56759
 Alpha  occ. eigenvalues --   -0.55417  -0.54453  -0.53243  -0.53001  -0.51883
 Alpha  occ. eigenvalues --   -0.51594  -0.49171  -0.49094  -0.49015  -0.47107
 Alpha  occ. eigenvalues --   -0.45884  -0.45160  -0.44845  -0.44533  -0.42922
 Alpha  occ. eigenvalues --   -0.37494  -0.36506
 Alpha virt. eigenvalues --    0.04781   0.11125   0.16250   0.21224   0.23445
 Alpha virt. eigenvalues --    0.25149   0.26984   0.27221   0.28213   0.28336
 Alpha virt. eigenvalues --    0.28715   0.31022   0.31650   0.32292   0.32870

 Mulliken charges:
               1
     1  C   -0.300028
     2  C   -0.307398
     3  C   -0.474585
     4  H    0.144092
     5  H    0.161775
     6  H    0.142809
     7  H    0.170133
     8  H    0.161376
     9  H    0.148819
    10  H    0.157032
    11  C   -0.294043
    12  C   -0.300358
    13  C   -0.474722
    14  H    0.145028
    15  H    0.142997
    16  H    0.150479
    17  H    0.158138
    18  H    0.149773
    19  H    0.153406
    20  H    0.157817
    21  C   -0.170183
    22  C   -0.218435
    23  C   -0.171508
    24  C    0.157062
    25  C   -0.170480
    26  C   -0.218402
    27  H    0.226450
    28  H    0.224410
    29  H    0.276210
    30  H    0.276181
    31  H    0.224250
    32  N    0.489051
    33  O   -0.458196
    34  O   -0.458951
 Sum of Mulliken charges =  -0.00000

 Dipole moment (field-independent basis, Debye):
    X=             -4.3704    Y=              2.0132    Z=             -2.1499  Tot=              5.2702
 Quadrupole moment (field-independent basis, Debye-Ang):
   XX=            -79.3760   YY=            -96.0658   ZZ=            -94.0769
   XY=             -1.2673   XZ=              3.3571   YZ=              5.0151

 Normal termination of Gaussian 16 at Thu May  6 04:24:16 2021.
