 Gaussian 16, Revision A.03,
 Gaussian 16:  EM64L-G16RevA.03 25-Dec-2016

 -------------
 #p 6-31g* mp2
 -------------

 ------------------------------------------------------
 Input file generated by CHIRIPA (05-May-2021 14:53:15)
 ------------------------------------------------------
 Symbolic Z-matrix:
 Charge =  0 Multiplicity = 1

                         Standard orientation:
 ---------------------------------------------------------------------
 Center     Atomic      Atomic             Coordinates (Angstroms)
 Number     Number       Type             X           Y           Z
 ---------------------------------------------------------------------
      1          6           0        3.608821   -0.164660   -0.067342
      2          6           0        4.875993   -0.483681   -0.861372
      3          6           0        5.522792   -1.802712   -0.437578
      4          1           0        3.854075   -0.127220    1.002889
      5          1           0        2.888631   -0.984758   -0.194470
      6          1           0        5.593041    0.337421   -0.733900
      7          1           0        4.627731   -0.520177   -1.929853
      8          1           0        4.827687   -2.636261   -0.581194
      9          1           0        5.798481   -1.773790    0.621554
     10          1           0        6.427002   -2.011157   -1.017936
     11          6           0        2.950727    1.150913   -0.479540
     12          6           0        1.683554    1.469934    0.314490
     13          6           0        1.036755    2.788965   -0.109304
     14          1           0        3.670917    1.971011   -0.352412
     15          1           0        2.705472    1.113473   -1.549770
     16          1           0        1.931816    1.506430    1.382971
     17          1           0        0.966506    0.648832    0.187019
     18          1           0        0.761066    2.760043   -1.168435
     19          1           0        1.731861    3.622514    0.034312
     20          1           0        0.132546    2.997410    0.471055
     21          6           0       -0.918791   -0.650066    2.109569
     22          6           0       -1.259845   -1.752887    1.319640
     23          6           0       -2.169363   -1.617816    0.266511
     24          6           0       -2.721214   -0.359654    0.030333
     25          6           0       -2.401492    0.758077    0.799582
     26          6           0       -1.489696    0.599693    1.847481
     27          1           0       -0.211372   -0.764047    2.925633
     28          1           0       -0.818041   -2.724668    1.520874
     29          1           0       -2.451112   -2.454851   -0.360711
     30          1           0       -2.858430    1.714132    0.574671
     31          1           0       -1.226687    1.457913    2.459307
     32          7           0       -3.685285   -0.204320   -1.081800
     33          8           0       -4.157515    0.914814   -1.269347
     34          8           0       -3.950439   -1.204645   -1.744883
 ---------------------------------------------------------------------

 SCF Done:  E(RHF) =  -669.534513778     A.U. after   15 cycles
 E2 =    -0.2093644269D+01 EUMP2 =    -0.67162815804637D+03

 The electronic state is 1-A.
 Alpha  occ. eigenvalues --  -20.60804 -20.60797 -15.85858 -11.31241 -11.27823
 Alpha  occ. eigenvalues --  -11.27795 -11.27527 -11.26829 -11.26791 -11.21941
 Alpha  occ. eigenvalues --  -11.21917 -11.21804 -11.21696 -11.21471 -11.21425
 Alpha  occ. eigenvalues --   -1.59879  -1.39432  -1.19425  -1.08855  -1.08755
 Alpha  occ. eigenvalues --   -1.04833  -1.03890  -0.96355  -0.95638  -0.87369
 Alpha  occ. eigenvalues --   -0.86216  -0.82469  -0.79966  -0.78630  -0.77516
 Alpha  occ. eigenvalues --   -0.72075  -0.71204  -0.70511  -0.65432  -0.65067
 Alpha  occ. eigenvalues --   -0.64825  -0.62186  -0.61300  -0.59758  -0.58007
 Alpha  occ. eigenvalues --   -0.55644  -0.55308  -0.53274  -0.52969  -0.52898
 Alpha  occ. eigenvalues --   -0.52739  -0.50279  -0.48835  -0.48829  -0.48279
 Alpha  occ. eigenvalues --   -0.46971  -0.46170  -0.46065  -0.44834  -0.44164
 Alpha  occ. eigenvalues --   -0.37318  -0.36391
 Alpha virt. eigenvalues --    0.04996   0.11170   0.16400   0.20509   0.22679
 Alpha virt. eigenvalues --    0.23990   0.26051   0.26210   0.26935   0.28327
 Alpha virt. eigenvalues --    0.28484   0.30552   0.31078   0.31581   0.32276

 Mulliken charges:
               1
     1  C   -0.297963
     2  C   -0.299861
     3  C   -0.475768
     4  H    0.146271
     5  H    0.147868
     6  H    0.152862
     7  H    0.153973
     8  H    0.154235
     9  H    0.154051
    10  H    0.161935
    11  C   -0.298308
    12  C   -0.304088
    13  C   -0.474703
    14  H    0.149581
    15  H    0.152494
    16  H    0.141838
    17  H    0.162703
    18  H    0.160554
    19  H    0.155677
    20  H    0.151125
    21  C   -0.170134
    22  C   -0.219376
    23  C   -0.171545
    24  C    0.157958
    25  C   -0.170443
    26  C   -0.214790
    27  H    0.226542
    28  H    0.223890
    29  H    0.275808
    30  H    0.275961
    31  H    0.224098
    32  N    0.488095
    33  O   -0.460046
    34  O   -0.460492
 Sum of Mulliken charges =  -0.00000

 Dipole moment (field-independent basis, Debye):
    X=              3.3801    Y=             -0.5859    Z=              3.8651  Tot=              5.1680
 Quadrupole moment (field-independent basis, Debye-Ang):
   XX=           -114.1081   YY=            -90.4581   ZZ=            -94.4362
   XY=              0.5057   XZ=            -10.7020   YZ=              0.1549

 Normal termination of Gaussian 16 at Thu May  6 12:09:22 2021.
