 Gaussian 16, Revision A.03,
 Gaussian 16:  EM64L-G16RevA.03 25-Dec-2016

 -------------
 #p 6-31g* mp2
 -------------

 ------------------------------------------------------
 Input file generated by CHIRIPA (05-May-2021 14:57:27)
 ------------------------------------------------------
 Symbolic Z-matrix:
 Charge =  0 Multiplicity = 1

                         Standard orientation:
 ---------------------------------------------------------------------
 Center     Atomic      Atomic             Coordinates (Angstroms)
 Number     Number       Type             X           Y           Z
 ---------------------------------------------------------------------
      1          6           0       -1.191862    0.375024   -1.057663
      2          6           0       -1.566303   -0.924464   -0.700386
      3          6           0       -2.864880   -1.192727   -0.257350
      4          6           0       -3.767514   -0.132972   -0.183451
      5          6           0       -3.424675    1.172428   -0.532282
      6          6           0       -2.120606    1.417484   -0.972620
      7          1           0       -0.180963    0.574404   -1.400776
      8          1           0       -0.847128   -1.736006   -0.765429
      9          1           0       -3.181431   -2.189316    0.025535
     10          1           0       -4.163704    1.960825   -0.456889
     11          1           0       -1.832605    2.427672   -1.249427
     12          7           0       -5.145167   -0.404686    0.284144
     13          8           0       -5.921714    0.546342    0.340338
     14          8           0       -5.422338   -1.563539    0.585596
     15          6           0        1.543626    1.435669    1.010769
     16          6           0        1.528045    0.041243    1.119652
     17          6           0        2.628816   -0.715488    0.707089
     18          6           0        3.733507   -0.042079    0.187984
     19          6           0        3.779267    1.345904    0.066742
     20          6           0        2.667207    2.082408    0.485587
     21          1           0        0.684136    2.015659    1.333698
     22          1           0        0.656822   -0.463710    1.527131
     23          1           0        2.643433   -1.796168    0.780123
     24          1           0        4.662130    1.820959   -0.343494
     25          1           0        2.682104    3.165215    0.399847
     26          7           0        4.904819   -0.832490   -0.252103
     27          8           0        5.865908   -0.215317   -0.706024
     28          8           0        4.839627   -2.054221   -0.134790
 ---------------------------------------------------------------------

 SCF Done:  E(RHF) =  -868.336711567     A.U. after   16 cycles
 E2 =    -0.2602388258D+01 EUMP2 =    -0.87093909982442D+03

 The electronic state is 1-A.
 Alpha  occ. eigenvalues --  -20.61497 -20.61492 -20.61323 -20.61317 -15.86556
 Alpha  occ. eigenvalues --  -15.86386 -11.32075 -11.31856 -11.28637 -11.28630
 Alpha  occ. eigenvalues --  -11.28498 -11.28484 -11.28356 -11.28139 -11.27683
 Alpha  occ. eigenvalues --  -11.27618 -11.27479 -11.27449  -1.60571  -1.60399
 Alpha  occ. eigenvalues --   -1.40120  -1.39949  -1.20271  -1.20070  -1.09657
 Alpha  occ. eigenvalues --   -1.09397  -1.05682  -1.05492  -0.96447  -0.96212
 Alpha  occ. eigenvalues --   -0.87073  -0.86851  -0.83248  -0.83060  -0.78283
 Alpha  occ. eigenvalues --   -0.78098  -0.72765  -0.72596  -0.71903  -0.71730
 Alpha  occ. eigenvalues --   -0.71360  -0.71089  -0.65888  -0.65756  -0.65654
 Alpha  occ. eigenvalues --   -0.65429  -0.63020  -0.62800  -0.56125  -0.56014
 Alpha  occ. eigenvalues --   -0.54179  -0.53781  -0.53583  -0.53508  -0.49536
 Alpha  occ. eigenvalues --   -0.49515  -0.49365  -0.49346  -0.45492  -0.45331
 Alpha  occ. eigenvalues --   -0.38752  -0.37762  -0.37250  -0.36929
 Alpha virt. eigenvalues --    0.04067   0.04561   0.09970   0.10789   0.15526
 Alpha virt. eigenvalues --    0.16066   0.20154   0.21217   0.25625   0.26892
 Alpha virt. eigenvalues --    0.27765   0.27922   0.30294   0.30499   0.31720

 Mulliken charges:
               1
     1  C   -0.171287
     2  C   -0.226725
     3  C   -0.171251
     4  C    0.157593
     5  C   -0.169732
     6  C   -0.225935
     7  H    0.234428
     8  H    0.224665
     9  H    0.277751
    10  H    0.277185
    11  H    0.222655
    12  N    0.488147
    13  O   -0.459306
    14  O   -0.458827
    15  C   -0.177661
    16  C   -0.223147
    17  C   -0.176857
    18  C    0.159265
    19  C   -0.171048
    20  C   -0.220926
    21  H    0.229968
    22  H    0.230066
    23  H    0.276252
    24  H    0.278202
    25  H    0.225506
    26  N    0.487952
    27  O   -0.457952
    28  O   -0.458981
 Sum of Mulliken charges =  -0.00000

 Dipole moment (field-independent basis, Debye):
    X=              0.7795    Y=              3.7497    Z=             -0.0931  Tot=              3.8310
 Quadrupole moment (field-independent basis, Debye-Ang):
   XX=           -171.2897   YY=            -97.1604   ZZ=           -104.6600
   XY=              7.4933   XZ=              9.8760   YZ=             -1.3540

 Normal termination of Gaussian 16 at Wed May  5 22:53:37 2021.
