 Gaussian 16, Revision A.03,
 Gaussian 16:  EM64L-G16RevA.03 25-Dec-2016

 -------------
 #p 6-31g* mp2
 -------------

 ------------------------------------------------------
 Input file generated by CHIRIPA (05-May-2021 14:53:17)
 ------------------------------------------------------
 Symbolic Z-matrix:
 Charge =  0 Multiplicity = 1

                         Standard orientation:
 ---------------------------------------------------------------------
 Center     Atomic      Atomic             Coordinates (Angstroms)
 Number     Number       Type             X           Y           Z
 ---------------------------------------------------------------------
      1          6           0        3.070353    0.973318   -0.512619
      2          6           0        1.962487    1.855965    0.063186
      3          6           0        2.150604    3.335584   -0.273166
      4          1           0        4.040852    1.317370   -0.129598
      5          1           0        3.101728    1.101197   -1.603517
      6          1           0        1.932299    1.725410    1.152526
      7          1           0        0.994496    1.509651   -0.321100
      8          1           0        2.159020    3.486098   -1.357544
      9          1           0        3.102152    3.703083    0.124455
     10          1           0        1.347556    3.948322    0.148174
     11          6           0        2.896218   -0.508560   -0.184835
     12          6           0        4.004084   -1.391206   -0.760640
     13          6           0        3.815967   -2.870826   -0.424288
     14          1           0        2.864843   -0.636438    0.906063
     15          1           0        1.925720   -0.852612   -0.567856
     16          1           0        4.972076   -1.044893   -0.376354
     17          1           0        4.034272   -1.260651   -1.849980
     18          1           0        2.864420   -3.238324   -0.821909
     19          1           0        3.807552   -3.021340    0.660090
     20          1           0        4.619015   -3.483564   -0.845628
     21          6           0       -3.923655   -0.229086   -1.683607
     22          6           0       -3.342257    0.978567   -1.283516
     23          6           0       -2.458238    1.016744   -0.201111
     24          6           0       -2.176690   -0.176951    0.461546
     25          6           0       -2.739898   -1.395855    0.086902
     26          6           0       -3.621153   -1.410360   -0.998329
     27          1           0       -4.609309   -0.249548   -2.525543
     28          1           0       -3.575348    1.897510   -1.813853
     29          1           0       -1.993974    1.937823    0.129781
     30          1           0       -2.488204   -2.295567    0.635159
     31          1           0       -4.071190   -2.349690   -1.306827
     32          7           0       -1.242282   -0.149064    1.608937
     33          8           0       -1.010563   -1.214502    2.176199
     34          8           0       -0.759303    0.937702    1.919272
 ---------------------------------------------------------------------

 SCF Done:  E(RHF) =  -669.535596721     A.U. after   15 cycles
 E2 =    -0.2092619538D+01 EUMP2 =    -0.67162821625859D+03

 The electronic state is 1-A.
 Alpha  occ. eigenvalues --  -20.60887 -20.60855 -15.85892 -11.31272 -11.27830
 Alpha  occ. eigenvalues --  -11.27825 -11.27571 -11.26848 -11.26838 -11.21057
 Alpha  occ. eigenvalues --  -11.20700 -11.20646 -11.20589 -11.20565 -11.20454
 Alpha  occ. eigenvalues --   -1.59929  -1.39486  -1.19437  -1.08832  -1.07727
 Alpha  occ. eigenvalues --   -1.04837  -1.02857  -0.95670  -0.95349  -0.86368
 Alpha  occ. eigenvalues --   -0.86235  -0.82506  -0.78913  -0.77646  -0.77408
 Alpha  occ. eigenvalues --   -0.72125  -0.71234  -0.70541  -0.65090  -0.64842
 Alpha  occ. eigenvalues --   -0.64366  -0.62185  -0.60264  -0.58705  -0.56937
 Alpha  occ. eigenvalues --   -0.55338  -0.54656  -0.53167  -0.52927  -0.52060
 Alpha  occ. eigenvalues --   -0.51767  -0.49314  -0.48897  -0.48888  -0.47292
 Alpha  occ. eigenvalues --   -0.45926  -0.45350  -0.44959  -0.44462  -0.43109
 Alpha  occ. eigenvalues --   -0.37413  -0.36437
 Alpha virt. eigenvalues --    0.04964   0.11132   0.16441   0.21218   0.23419
 Alpha virt. eigenvalues --    0.24646   0.26842   0.27350   0.27750   0.28322
 Alpha virt. eigenvalues --    0.28898   0.30773   0.31642   0.32031   0.32504

 Mulliken charges:
               1
     1  C   -0.298905
     2  C   -0.297659
     3  C   -0.476662
     4  H    0.147943
     5  H    0.143653
     6  H    0.171870
     7  H    0.143166
     8  H    0.148665
     9  H    0.154425
    10  H    0.158246
    11  C   -0.297764
    12  C   -0.299170
    13  C   -0.474970
    14  H    0.159202
    15  H    0.144064
    16  H    0.151307
    17  H    0.148487
    18  H    0.152932
    19  H    0.158587
    20  H    0.157388
    21  C   -0.170759
    22  C   -0.218774
    23  C   -0.171869
    24  C    0.158352
    25  C   -0.171085
    26  C   -0.218455
    27  H    0.225926
    28  H    0.223973
    29  H    0.276723
    30  H    0.275936
    31  H    0.223792
    32  N    0.488740
    33  O   -0.459819
    34  O   -0.457485
 Sum of Mulliken charges =  -0.00000

 Dipole moment (field-independent basis, Debye):
    X=             -3.4272    Y=             -0.1378    Z=             -3.8008  Tot=              5.1197
 Quadrupole moment (field-independent basis, Debye-Ang):
   XX=            -81.0402   YY=            -91.5040   ZZ=            -98.4708
   XY=              1.5198   XZ=              8.5670   YZ=              0.4803

 Normal termination of Gaussian 16 at Wed May  5 15:43:45 2021.
