 Gaussian 16, Revision A.03,
 Gaussian 16:  EM64L-G16RevA.03 25-Dec-2016

 -------------
 #p 6-31g* mp2
 -------------

 ------------------------------------------------------
 Input file generated by CHIRIPA (05-May-2021 14:55:25)
 ------------------------------------------------------
 Symbolic Z-matrix:
 Charge =  0 Multiplicity = 1

                         Standard orientation:
 ---------------------------------------------------------------------
 Center     Atomic      Atomic             Coordinates (Angstroms)
 Number     Number       Type             X           Y           Z
 ---------------------------------------------------------------------
      1          6           0       -3.394757   -2.419417   -0.324522
      2          6           0       -4.003990   -1.573947   -1.257547
      3          6           0       -3.805367   -0.191325   -1.198786
      4          6           0       -2.987662    0.314128   -0.189249
      5          6           0       -2.366810   -0.502242    0.754877
      6          6           0       -2.579548   -1.881814    0.676947
      7          1           0       -3.554534   -3.492286   -0.377614
      8          1           0       -4.637600   -1.988666   -2.036387
      9          1           0       -4.264788    0.486144   -1.908283
     10          1           0       -1.740549   -0.059423    1.519812
     11          1           0       -2.105128   -2.536012    1.402891
     12          7           0       -2.769917    1.776233   -0.116895
     13          8           0       -2.044998    2.196710    0.782177
     14          8           0       -3.328290    2.474069   -0.960625
     15          6           0        4.491560    0.239891   -0.035808
     16          6           0        5.083800   -0.519400   -1.223544
     17          6           0        6.326481    0.160241   -1.799411
     18          1           0        4.239595    1.261761   -0.350828
     19          1           0        5.255702    0.333951    0.748179
     20          1           0        4.318340   -0.613208   -2.004496
     21          1           0        5.334207   -1.539643   -0.905709
     22          1           0        7.109450    0.240130   -1.038374
     23          1           0        6.087812    1.171827   -2.143405
     24          1           0        6.733468   -0.399282   -2.647442
     25          6           0        3.248725   -0.427167    0.550813
     26          6           0        2.656485    0.332124    1.738548
     27          6           0        1.413804   -0.347518    2.314416
     28          1           0        2.484583   -0.521228   -0.233174
     29          1           0        3.500690   -1.449038    0.865833
     30          1           0        2.406078    1.352366    1.420714
     31          1           0        3.421945    0.425932    2.519501
     32          1           0        1.652473   -1.359104    2.658410
     33          1           0        0.630835   -0.427407    1.553379
     34          1           0        1.006818    0.212005    3.162447
 ---------------------------------------------------------------------

 SCF Done:  E(RHF) =  -669.535577997     A.U. after   15 cycles
 E2 =    -0.2091267765D+01 EUMP2 =    -0.67162684576288D+03

 The electronic state is 1-A.
 Alpha  occ. eigenvalues --  -20.60772 -20.60767 -15.85824 -11.31180 -11.27758
 Alpha  occ. eigenvalues --  -11.27704 -11.27495 -11.26776 -11.26754 -11.21600
 Alpha  occ. eigenvalues --  -11.21575 -11.21402 -11.21335 -11.21313 -11.21020
 Alpha  occ. eigenvalues --   -1.59848  -1.39401  -1.19357  -1.08754  -1.08424
 Alpha  occ. eigenvalues --   -1.04759  -1.03557  -0.96039  -0.95587  -0.87069
 Alpha  occ. eigenvalues --   -0.86152  -0.82418  -0.79631  -0.78233  -0.77463
 Alpha  occ. eigenvalues --   -0.72043  -0.71172  -0.70470  -0.65063  -0.65005
 Alpha  occ. eigenvalues --   -0.64752  -0.62145  -0.60924  -0.59389  -0.57631
 Alpha  occ. eigenvalues --   -0.55422  -0.55181  -0.53100  -0.52900  -0.52697
 Alpha  occ. eigenvalues --   -0.52430  -0.49961  -0.48801  -0.48797  -0.47943
 Alpha  occ. eigenvalues --   -0.46632  -0.45782  -0.45686  -0.44806  -0.43807
 Alpha  occ. eigenvalues --   -0.37341  -0.36348
 Alpha virt. eigenvalues --    0.05023   0.11242   0.16520   0.21041   0.22935
 Alpha virt. eigenvalues --    0.24199   0.26155   0.26792   0.27582   0.27933
 Alpha virt. eigenvalues --    0.29272   0.30846   0.31382   0.31751   0.31967

 Mulliken charges:
               1
     1  C   -0.170751
     2  C   -0.218480
     3  C   -0.170974
     4  C    0.157900
     5  C   -0.175047
     6  C   -0.219955
     7  H    0.225640
     8  H    0.223435
     9  H    0.275501
    10  H    0.281890
    11  H    0.224717
    12  N    0.487796
    13  O   -0.460504
    14  O   -0.460520
    15  C   -0.298888
    16  C   -0.299619
    17  C   -0.475824
    18  H    0.152732
    19  H    0.149487
    20  H    0.151932
    21  H    0.150582
    22  H    0.155127
    23  H    0.156529
    24  H    0.159750
    25  C   -0.298837
    26  C   -0.299729
    27  C   -0.481392
    28  H    0.149971
    29  H    0.147104
    30  H    0.160882
    31  H    0.152414
    32  H    0.151559
    33  H    0.151549
    34  H    0.164024
 Sum of Mulliken charges =  -0.00000

 Dipole moment (field-independent basis, Debye):
    X=             -0.7261    Y=             -5.0754    Z=             -0.2609  Tot=              5.1337
 Quadrupole moment (field-independent basis, Debye-Ang):
   XX=            -89.3413   YY=            -98.3918   ZZ=            -91.6907
   XY=             14.5921   XZ=              4.5686   YZ=              0.2959

 Normal termination of Gaussian 16 at Thu May  6 17:44:22 2021.
