 Gaussian 16, Revision A.03,
 Gaussian 16:  EM64L-G16RevA.03 25-Dec-2016

 -------------
 #p 6-31g* mp2
 -------------

 ------------------------------------------------------
 Input file generated by CHIRIPA (05-May-2021 14:51:11)
 ------------------------------------------------------
 Symbolic Z-matrix:
 Charge =  0 Multiplicity = 1

                         Standard orientation:
 ---------------------------------------------------------------------
 Center     Atomic      Atomic             Coordinates (Angstroms)
 Number     Number       Type             X           Y           Z
 ---------------------------------------------------------------------
      1          6           0       -2.395392   -0.464580    0.651721
      2          6           0       -1.719651   -1.805393    0.362617
      3          6           0       -0.539476   -2.085467    1.293497
      4          1           0       -1.653615    0.340368    0.558069
      5          1           0       -2.739424   -0.452739    1.695223
      6          1           0       -1.378224   -1.815232   -0.680430
      7          1           0       -2.463167   -2.607224    0.456781
      8          1           0       -0.868079   -2.102669    2.337684
      9          1           0        0.223028   -1.306178    1.194011
     10          1           0       -0.071160   -3.048937    1.069296
     11          6           0       -3.577038   -0.170351   -0.270705
     12          6           0       -4.252779    1.170462    0.018399
     13          6           0       -5.432954    1.450537   -0.912481
     14          1           0       -3.233006   -0.182191   -1.314206
     15          1           0       -4.318815   -0.975298   -0.177052
     16          1           0       -3.509262    1.972293   -0.075765
     17          1           0       -4.594206    1.180302    1.061446
     18          1           0       -6.195458    0.671248   -0.812995
     19          1           0       -5.104351    1.467739   -1.956667
     20          1           0       -5.901270    2.414007   -0.688280
     21          6           0        2.618585   -0.349432   -0.131109
     22          6           0        3.347524   -1.506656   -0.814822
     23          6           0        2.599664   -2.834152   -0.687331
     24          1           0        2.475706   -0.590888    0.931072
     25          1           0        1.614763   -0.249127   -0.566625
     26          1           0        4.350178   -1.603865   -0.379103
     27          1           0        3.488855   -1.262335   -1.875458
     28          1           0        1.605086   -2.760936   -1.139058
     29          1           0        2.471303   -3.104405    0.365800
     30          1           0        3.138405   -3.647673   -1.183117
     31          6           0        3.353844    0.984362   -0.249908
     32          6           0        2.624906    2.141587    0.433806
     33          6           0        3.372767    3.469083    0.306315
     34          1           0        4.357667    0.884057    0.185608
     35          1           0        3.496724    1.225818   -1.312090
     36          1           0        2.483575    1.897266    1.494442
     37          1           0        1.622252    2.238795   -0.001915
     38          1           0        3.501127    3.739336   -0.746817
     39          1           0        4.367344    3.395866    0.758041
     40          1           0        2.834026    4.282603    0.802101
 ---------------------------------------------------------------------

 SCF Done:  E(RHF) =  -470.731736261     A.U. after   11 cycles
 E2 =    -0.1584421554D+01 EUMP2 =    -0.47231615781469D+03

 The electronic state is 1-A.
 Alpha  occ. eigenvalues --  -11.21660 -11.21631 -11.21585 -11.21527 -11.21452
 Alpha  occ. eigenvalues --  -11.21392 -11.21370 -11.21307 -11.21111 -11.21060
 Alpha  occ. eigenvalues --  -11.21028 -11.20782  -1.08497  -1.08373  -1.03593
 Alpha  occ. eigenvalues --   -1.03435  -0.96020  -0.95901  -0.87039  -0.86928
 Alpha  occ. eigenvalues --   -0.79714  -0.79480  -0.78358  -0.78149  -0.65132
 Alpha  occ. eigenvalues --   -0.65002  -0.60980  -0.60878  -0.59441  -0.59254
 Alpha  occ. eigenvalues --   -0.57804  -0.57348  -0.55306  -0.55205  -0.52822
 Alpha  occ. eigenvalues --   -0.52704  -0.52481  -0.52061  -0.49956  -0.49916
 Alpha  occ. eigenvalues --   -0.47894  -0.47851  -0.46754  -0.46609  -0.45919
 Alpha  occ. eigenvalues --   -0.45770  -0.45693  -0.45328  -0.43824  -0.43694
 Alpha virt. eigenvalues --    0.20873   0.23278   0.23400   0.24627   0.25807
 Alpha virt. eigenvalues --    0.25985   0.26652   0.27788   0.28431   0.29697
 Alpha virt. eigenvalues --    0.29930   0.30747   0.31577   0.31999   0.32330

 Mulliken charges:
               1
     1  C   -0.298754
     2  C   -0.300521
     3  C   -0.484343
     4  H    0.149516
     5  H    0.149706
     6  H    0.150448
     7  H    0.151619
     8  H    0.152544
     9  H    0.165537
    10  H    0.162389
    11  C   -0.298162
    12  C   -0.299569
    13  C   -0.475661
    14  H    0.148978
    15  H    0.149701
    16  H    0.151725
    17  H    0.151981
    18  H    0.155198
    19  H    0.155020
    20  H    0.160185
    21  C   -0.303402
    22  C   -0.299371
    23  C   -0.477763
    24  H    0.152796
    25  H    0.150805
    26  H    0.151955
    27  H    0.151679
    28  H    0.157253
    29  H    0.157854
    30  H    0.159420
    31  C   -0.296918
    32  C   -0.300119
    33  C   -0.475665
    34  H    0.149791
    35  H    0.149625
    36  H    0.152202
    37  H    0.151145
    38  H    0.155262
    39  H    0.155435
    40  H    0.160481
 Sum of Mulliken charges =  -0.00000

 Dipole moment (field-independent basis, Debye):
    X=              0.0727    Y=              0.0059    Z=              0.0064  Tot=              0.0733
 Quadrupole moment (field-independent basis, Debye-Ang):
   XX=            -85.0769   YY=            -85.7634   ZZ=            -83.9976
   XY=              0.0058   XZ=             -0.4323   YZ=             -0.2528

 Normal termination of Gaussian 16 at Wed May  5 18:17:19 2021.
