 Gaussian 16, Revision A.03,
 Gaussian 16:  EM64L-G16RevA.03 25-Dec-2016

 -------------
 #p 6-31g* mp2
 -------------

 ------------------------------------------------------
 Input file generated by CHIRIPA (05-May-2021 14:51:07)
 ------------------------------------------------------
 Symbolic Z-matrix:
 Charge =  0 Multiplicity = 1

                         Standard orientation:
 ---------------------------------------------------------------------
 Center     Atomic      Atomic             Coordinates (Angstroms)
 Number     Number       Type             X           Y           Z
 ---------------------------------------------------------------------
      1          6           0        4.125802    0.146994   -0.287321
      2          6           0        4.735705    1.490295    0.114606
      3          6           0        5.865803    1.928897   -0.817221
      4          1           0        4.913853   -0.618413   -0.295838
      5          1           0        3.747251    0.217335   -1.316469
      6          1           0        5.111752    1.417859    1.143177
      7          1           0        3.946074    2.252554    0.122354
      8          1           0        5.501014    2.029061   -1.844595
      9          1           0        6.673315    1.189624   -0.817972
     10          1           0        6.287414    2.891531   -0.511542
     11          6           0        2.994730   -0.304927    0.634727
     12          6           0        2.384826   -1.648228    0.232801
     13          6           0        1.254729   -2.086830    1.164628
     14          1           0        3.373281   -0.375268    1.663875
     15          1           0        2.206679    0.460480    0.643245
     16          1           0        3.174458   -2.410487    0.225053
     17          1           0        2.008780   -1.575792   -0.795770
     18          1           0        0.447217   -1.347557    1.165378
     19          1           0        1.619517   -2.186994    2.192002
     20          1           0        0.833118   -3.049464    0.858948
     21          6           0       -3.954803    0.691412   -0.403233
     22          6           0       -4.080428    1.770127    0.673139
     23          6           0       -4.872349    2.989043    0.198908
     24          1           0       -3.470957    1.122303   -1.290459
     25          1           0       -4.960003    0.377413   -0.716874
     26          1           0       -3.075287    2.081009    0.985646
     27          1           0       -4.563858    1.336567    1.557977
     28          1           0       -5.886555    2.699253   -0.094365
     29          1           0       -4.389526    3.447925   -0.669948
     30          1           0       -4.949906    3.747679    0.983965
     31          6           0       -3.165729   -0.533478    0.055826
     32          6           0       -3.040104   -1.612193   -1.020547
     33          6           0       -2.248183   -2.831110   -0.546313
     34          1           0       -2.160528   -0.219479    0.369468
     35          1           0       -3.649575   -0.964369    0.943052
     36          1           0       -2.556673   -1.178634   -1.905383
     37          1           0       -4.045245   -1.923077   -1.333053
     38          1           0       -2.731005   -3.289992    0.322542
     39          1           0       -1.233977   -2.541319   -0.253040
     40          1           0       -2.170626   -3.589747   -1.331372
 ---------------------------------------------------------------------

 SCF Done:  E(RHF) =  -470.732628511     A.U. after   11 cycles
 E2 =    -0.1583039590D+01 EUMP2 =    -0.47231566810129D+03

 The electronic state is 1-A.
 Alpha  occ. eigenvalues --  -11.21650 -11.21629 -11.21605 -11.21554 -11.21444
 Alpha  occ. eigenvalues --  -11.21402 -11.21384 -11.21343 -11.21098 -11.21093
 Alpha  occ. eigenvalues --  -11.21075 -11.20899  -1.08472  -1.08413  -1.03587
 Alpha  occ. eigenvalues --   -1.03483  -0.96060  -0.95912  -0.87100  -0.86909
 Alpha  occ. eigenvalues --   -0.79688  -0.79513  -0.78288  -0.78221  -0.65147
 Alpha  occ. eigenvalues --   -0.65013  -0.61117  -0.60790  -0.59419  -0.59307
 Alpha  occ. eigenvalues --   -0.57684  -0.57513  -0.55467  -0.55095  -0.52839
 Alpha  occ. eigenvalues --   -0.52632  -0.52454  -0.52238  -0.50096  -0.49750
 Alpha  occ. eigenvalues --   -0.47948  -0.47858  -0.46768  -0.46491  -0.45860
 Alpha  occ. eigenvalues --   -0.45774  -0.45741  -0.45597  -0.43794  -0.43758
 Alpha virt. eigenvalues --    0.21163   0.23143   0.23573   0.24974   0.25773
 Alpha virt. eigenvalues --    0.26869   0.27102   0.27159   0.27938   0.29236
 Alpha virt. eigenvalues --    0.30353   0.31271   0.31632   0.31746   0.32097

 Mulliken charges:
               1
     1  C   -0.298319
     2  C   -0.299676
     3  C   -0.475728
     4  H    0.149847
     5  H    0.149496
     6  H    0.152037
     7  H    0.151855
     8  H    0.155186
     9  H    0.155263
    10  H    0.160344
    11  C   -0.298387
    12  C   -0.301057
    13  C   -0.482175
    14  H    0.149894
    15  H    0.149298
    16  H    0.152601
    17  H    0.152305
    18  H    0.157323
    19  H    0.156492
    20  H    0.164057
    21  C   -0.298230
    22  C   -0.299596
    23  C   -0.475691
    24  H    0.149382
    25  H    0.149783
    26  H    0.151591
    27  H    0.152104
    28  H    0.155254
    29  H    0.155070
    30  H    0.160268
    31  C   -0.300158
    32  C   -0.299091
    33  C   -0.485106
    34  H    0.150082
    35  H    0.150035
    36  H    0.151038
    37  H    0.151572
    38  H    0.154430
    39  H    0.167712
    40  H    0.158896
 Sum of Mulliken charges =  -0.00000

 Dipole moment (field-independent basis, Debye):
    X=              0.0454    Y=             -0.0119    Z=              0.0263  Tot=              0.0538
 Quadrupole moment (field-independent basis, Debye-Ang):
   XX=            -84.6110   YY=            -85.4795   ZZ=            -84.7250
   XY=              0.0808   XZ=              0.4494   YZ=             -0.0689

 Normal termination of Gaussian 16 at Thu May  6 00:29:22 2021.
