 Gaussian 16, Revision A.03,
 Gaussian 16:  EM64L-G16RevA.03 25-Dec-2016

 -------------
 #p 6-31g* mp2
 -------------

 ------------------------------------------------------
 Input file generated by CHIRIPA (05-May-2021 14:51:13)
 ------------------------------------------------------
 Symbolic Z-matrix:
 Charge =  0 Multiplicity = 1

                         Standard orientation:
 ---------------------------------------------------------------------
 Center     Atomic      Atomic             Coordinates (Angstroms)
 Number     Number       Type             X           Y           Z
 ---------------------------------------------------------------------
      1          6           0       -2.024021   -0.158791   -0.196915
      2          6           0       -3.152436   -1.011866   -0.777369
      3          6           0       -2.710390   -2.440986   -1.093609
      4          1           0       -1.186938   -0.136317   -0.908063
      5          1           0       -1.645072   -0.637065    0.716894
      6          1           0       -3.530074   -0.531410   -1.689053
      7          1           0       -3.987005   -1.032155   -0.064840
      8          1           0       -2.352690   -2.942745   -0.188684
      9          1           0       -1.893162   -2.439154   -1.822125
     10          1           0       -3.532491   -3.033211   -1.507469
     11          6           0       -2.450459    1.272516    0.124390
     12          6           0       -1.322044    2.125592    0.704845
     13          6           0       -1.764090    3.554711    1.021084
     14          1           0       -2.829408    1.750790   -0.789419
     15          1           0       -3.287542    1.250042    0.835538
     16          1           0       -0.487475    2.145881   -0.007685
     17          1           0       -0.944406    1.645135    1.616528
     18          1           0       -2.581318    3.552880    1.749601
     19          1           0       -2.121790    4.056470    0.116159
     20          1           0       -0.941989    4.146936    1.434945
     21          6           0        2.185774   -1.076625    0.593604
     22          6           0        1.294094   -2.265446    0.233613
     23          6           0        1.201083   -3.296689    1.358639
     24          1           0        3.191522   -1.442615    0.841531
     25          1           0        1.795436   -0.596074    1.501405
     26          1           0        1.685201   -2.742776   -0.674025
     27          1           0        0.290404   -1.896566   -0.013671
     28          1           0        0.789832   -2.841507    2.265438
     29          1           0        2.192554   -3.692525    1.601331
     30          1           0        0.558799   -4.137943    1.080031
     31          6           0        2.288706   -0.037100   -0.521080
     32          6           0        3.180386    1.151722   -0.161089
     33          6           0        3.273397    2.182963   -1.286115
     34          1           0        2.679044   -0.517651   -1.428880
     35          1           0        1.282958    0.328890   -0.769006
     36          1           0        4.184076    0.782841    0.086195
     37          1           0        2.789279    1.629051    0.746550
     38          1           0        2.281925    2.578799   -1.528806
     39          1           0        3.684648    1.727783   -2.192913
     40          1           0        3.915681    3.024217   -1.007507
 ---------------------------------------------------------------------

 SCF Done:  E(RHF) =  -470.731851862     A.U. after   11 cycles
 E2 =    -0.1586053563D+01 EUMP2 =    -0.47231790542472D+03

 The electronic state is 1-A.
 Alpha  occ. eigenvalues --  -11.21722 -11.21686 -11.21551 -11.21509 -11.21450
 Alpha  occ. eigenvalues --  -11.21360 -11.21304 -11.21243 -11.21154 -11.21121
 Alpha  occ. eigenvalues --  -11.21066 -11.20991  -1.08577  -1.08314  -1.03644
 Alpha  occ. eigenvalues --   -1.03432  -0.96076  -0.95908  -0.87095  -0.86924
 Alpha  occ. eigenvalues --   -0.79761  -0.79472  -0.78598  -0.77960  -0.65225
 Alpha  occ. eigenvalues --   -0.64939  -0.61026  -0.60893  -0.59481  -0.59221
 Alpha  occ. eigenvalues --   -0.57744  -0.57467  -0.55379  -0.55187  -0.52763
 Alpha  occ. eigenvalues --   -0.52609  -0.52523  -0.52323  -0.50018  -0.49867
 Alpha  occ. eigenvalues --   -0.48201  -0.47714  -0.46778  -0.46717  -0.46523
 Alpha  occ. eigenvalues --   -0.45722  -0.45633  -0.44736  -0.43878  -0.43688
 Alpha virt. eigenvalues --    0.20137   0.21817   0.23656   0.24036   0.25413
 Alpha virt. eigenvalues --    0.26221   0.26621   0.28105   0.28351   0.30241
 Alpha virt. eigenvalues --    0.30685   0.31316   0.31697   0.31851   0.32294

 Mulliken charges:
               1
     1  C   -0.307466
     2  C   -0.298674
     3  C   -0.478588
     4  H    0.155290
     5  H    0.151509
     6  H    0.152152
     7  H    0.152162
     8  H    0.156729
     9  H    0.156847
    10  H    0.160692
    11  C   -0.297088
    12  C   -0.304212
    13  C   -0.475677
    14  H    0.149771
    15  H    0.150126
    16  H    0.155329
    17  H    0.151811
    18  H    0.155583
    19  H    0.155523
    20  H    0.160711
    21  C   -0.297289
    22  C   -0.311826
    23  C   -0.475989
    24  H    0.149023
    25  H    0.148785
    26  H    0.150179
    27  H    0.167952
    28  H    0.153548
    29  H    0.154931
    30  H    0.159984
    31  C   -0.306039
    32  C   -0.299465
    33  C   -0.476505
    34  H    0.148712
    35  H    0.156926
    36  H    0.151925
    37  H    0.152538
    38  H    0.154615
    39  H    0.155149
    40  H    0.160316
 Sum of Mulliken charges =  -0.00000

 Dipole moment (field-independent basis, Debye):
    X=             -0.0969    Y=              0.0270    Z=             -0.0209  Tot=              0.1027
 Quadrupole moment (field-independent basis, Debye-Ang):
   XX=            -84.1624   YY=            -86.3801   ZZ=            -84.3650
   XY=             -0.1977   XZ=             -0.3846   YZ=              0.3023

 Normal termination of Gaussian 16 at Thu May  6 03:59:46 2021.
