 Gaussian 16, Revision A.03,
 Gaussian 16:  EM64L-G16RevA.03 25-Dec-2016

 -------------
 #p 6-31g* mp2
 -------------

 ------------------------------------------------------
 Input file generated by CHIRIPA (05-May-2021 14:51:08)
 ------------------------------------------------------
 Symbolic Z-matrix:
 Charge =  0 Multiplicity = 1

                         Standard orientation:
 ---------------------------------------------------------------------
 Center     Atomic      Atomic             Coordinates (Angstroms)
 Number     Number       Type             X           Y           Z
 ---------------------------------------------------------------------
      1          6           0       -3.679163    0.298321    0.528913
      2          6           0       -2.225460   -0.096269    0.266171
      3          6           0       -1.227785    0.797921    1.002962
      4          1           0       -3.828982    1.343875    0.226726
      5          1           0       -3.874217    0.254219    1.609378
      6          1           0       -2.033592   -0.052773   -0.813602
      7          1           0       -2.079133   -1.141063    0.568841
      8          1           0       -1.390624    0.747243    2.084404
      9          1           0       -1.344825    1.841717    0.694106
     10          1           0       -0.194719    0.498164    0.801018
     11          6           0       -4.688402   -0.586380   -0.200789
     12          6           0       -6.142105   -0.191790    0.061953
     13          6           0       -7.139781   -1.085980   -0.674838
     14          1           0       -4.493348   -0.542278   -1.281254
     15          1           0       -4.538583   -1.631934    0.101398
     16          1           0       -6.288433    0.853004   -0.240717
     17          1           0       -6.333973   -0.235286    1.141726
     18          1           0       -7.022740   -2.129776   -0.365982
     19          1           0       -6.976941   -1.035302   -1.756280
     20          1           0       -8.172846   -0.786223   -0.472894
     21          6           0        3.541932    0.473708   -0.414606
     22          6           0        3.441798    1.956595   -0.055431
     23          6           0        2.152240    2.602126   -0.563489
     24          1           0        3.479600    0.362247   -1.505769
     25          1           0        2.675554   -0.057061    0.003804
     26          1           0        4.308823    2.484171   -0.473218
     27          1           0        3.504568    2.064553    1.034991
     28          1           0        1.276913    2.101879   -0.136690
     29          1           0        2.085738    2.523880   -1.653469
     30          1           0        2.101350    3.662111   -0.295714
     31          6           0        4.825633   -0.185649    0.086482
     32          6           0        4.925767   -1.668535   -0.272692
     33          6           0        6.215326   -2.314068    0.235365
     34          1           0        5.692011    0.345120   -0.331929
     35          1           0        4.887965   -0.074189    1.177645
     36          1           0        4.862997   -1.776494   -1.363115
     37          1           0        4.058742   -2.196111    0.145094
     38          1           0        6.281827   -2.235821    1.325344
     39          1           0        7.090652   -1.813821   -0.191434
     40          1           0        6.266214   -3.374053   -0.032410
 ---------------------------------------------------------------------

 SCF Done:  E(RHF) =  -470.733009678     A.U. after   11 cycles
 E2 =    -0.1582652458D+01 EUMP2 =    -0.47231566213597D+03

 The electronic state is 1-A.
 Alpha  occ. eigenvalues --  -11.21637 -11.21612 -11.21591 -11.21544 -11.21424
 Alpha  occ. eigenvalues --  -11.21392 -11.21364 -11.21333 -11.21130 -11.21078
 Alpha  occ. eigenvalues --  -11.21062 -11.20919  -1.08454  -1.08404  -1.03568
 Alpha  occ. eigenvalues --   -1.03481  -0.96037  -0.95917  -0.87074  -0.86918
 Alpha  occ. eigenvalues --   -0.79661  -0.79517  -0.78264  -0.78218  -0.65090
 Alpha  occ. eigenvalues --   -0.65035  -0.61015  -0.60868  -0.59443  -0.59258
 Alpha  occ. eigenvalues --   -0.57660  -0.57513  -0.55404  -0.55138  -0.52795
 Alpha  occ. eigenvalues --   -0.52628  -0.52437  -0.52295  -0.50054  -0.49755
 Alpha  occ. eigenvalues --   -0.47967  -0.47837  -0.46699  -0.46522  -0.45805
 Alpha  occ. eigenvalues --   -0.45762  -0.45726  -0.45679  -0.43777  -0.43737
 Alpha virt. eigenvalues --    0.21364   0.22992   0.23593   0.24907   0.26121
 Alpha virt. eigenvalues --    0.26588   0.27224   0.27335   0.27800   0.28972
 Alpha virt. eigenvalues --    0.30629   0.31174   0.31723   0.31812   0.32000

 Mulliken charges:
               1
     1  C   -0.298763
     2  C   -0.299473
     3  C   -0.481525
     4  H    0.150011
     5  H    0.149541
     6  H    0.152820
     7  H    0.151896
     8  H    0.155554
     9  H    0.157288
    10  H    0.163715
    11  C   -0.298334
    12  C   -0.299676
    13  C   -0.475721
    14  H    0.149697
    15  H    0.149657
    16  H    0.152031
    17  H    0.151921
    18  H    0.155177
    19  H    0.155240
    20  H    0.160297
    21  C   -0.300081
    22  C   -0.299075
    23  C   -0.484247
    24  H    0.149736
    25  H    0.149859
    26  H    0.151606
    27  H    0.151767
    28  H    0.165414
    29  H    0.154049
    30  H    0.159476
    31  C   -0.298234
    32  C   -0.299644
    33  C   -0.475699
    34  H    0.149691
    35  H    0.149711
    36  H    0.151921
    37  H    0.151829
    38  H    0.155180
    39  H    0.155187
    40  H    0.160201
 Sum of Mulliken charges =  -0.00000

 Dipole moment (field-independent basis, Debye):
    X=             -0.0477    Y=             -0.0083    Z=              0.0111  Tot=              0.0497
 Quadrupole moment (field-independent basis, Debye-Ang):
   XX=            -86.1211   YY=            -85.0828   ZZ=            -83.6700
   XY=              0.1141   XZ=             -1.0668   YZ=             -0.7799

 Normal termination of Gaussian 16 at Thu May  6 02:05:33 2021.
