 Gaussian 16, Revision A.03,
 Gaussian 16:  EM64L-G16RevA.03 25-Dec-2016

 -------------
 #p 6-31g* mp2
 -------------

 ------------------------------------------------------
 Input file generated by CHIRIPA (05-May-2021 14:53:12)
 ------------------------------------------------------
 Symbolic Z-matrix:
 Charge =  0 Multiplicity = 1

                         Standard orientation:
 ---------------------------------------------------------------------
 Center     Atomic      Atomic             Coordinates (Angstroms)
 Number     Number       Type             X           Y           Z
 ---------------------------------------------------------------------
      1          6           0        3.283158    0.777597   -0.604026
      2          6           0        2.162681    1.803606   -0.776719
      3          6           0        2.558914    2.963453   -1.690802
      4          1           0        4.171865    1.279547   -0.197589
      5          1           0        3.568545    0.387104   -1.590669
      6          1           0        1.878542    2.191031    0.210086
      7          1           0        1.276476    1.299118   -1.182613
      8          1           0        2.822693    2.595569   -2.687638
      9          1           0        3.428180    3.492550   -1.287027
     10          1           0        1.743305    3.685014   -1.800315
     11          6           0        2.902189   -0.387928    0.307095
     12          6           0        4.022666   -1.413936    0.479788
     13          6           0        3.626433   -2.573784    1.393871
     14          1           0        2.616802    0.002565    1.293738
     15          1           0        2.013482   -0.889878   -0.099342
     16          1           0        4.908870   -0.909449    0.885682
     17          1           0        4.306805   -1.801362   -0.507016
     18          1           0        2.757167   -3.102881    0.990096
     19          1           0        3.362654   -2.205900    2.390707
     20          1           0        4.442041   -3.295345    1.503385
     21          6           0       -2.250773    1.709652    1.810694
     22          6           0       -3.470810    1.442809    1.180755
     23          6           0       -3.574080    0.413651    0.240161
     24          6           0       -2.432139   -0.332213   -0.047849
     25          6           0       -1.202498   -0.090720    0.562851
     26          6           0       -1.122500    0.943386    1.500279
     27          1           0       -2.179590    2.511049    2.540141
     28          1           0       -4.348690    2.036275    1.419860
     29          1           0       -4.506162    0.185568   -0.262450
     30          1           0       -0.344745   -0.699455    0.303775
     31          1           0       -0.173700    1.148366    1.987933
     32          7           0       -2.529147   -1.424356   -1.041939
     33          8           0       -1.508441   -2.066994   -1.278179
     34          8           0       -3.624053   -1.617060   -1.566041
 ---------------------------------------------------------------------

 SCF Done:  E(RHF) =  -669.535517579     A.U. after   15 cycles
 E2 =    -0.2092795722D+01 EUMP2 =    -0.67162831330004D+03

 The electronic state is 1-A.
 Alpha  occ. eigenvalues --  -20.60757 -20.60749 -15.85805 -11.31124 -11.27700
 Alpha  occ. eigenvalues --  -11.27645 -11.27435 -11.26716 -11.26678 -11.22059
 Alpha  occ. eigenvalues --  -11.22008 -11.21907 -11.21786 -11.21398 -11.21273
 Alpha  occ. eigenvalues --   -1.59830  -1.39385  -1.19299  -1.08881  -1.08705
 Alpha  occ. eigenvalues --   -1.04691  -1.03884  -0.96337  -0.95545  -0.87350
 Alpha  occ. eigenvalues --   -0.86097  -0.82380  -0.79964  -0.78783  -0.77397
 Alpha  occ. eigenvalues --   -0.72026  -0.71151  -0.70416  -0.65541  -0.64950
 Alpha  occ. eigenvalues --   -0.64661  -0.62055  -0.61266  -0.59709  -0.57958
 Alpha  occ. eigenvalues --   -0.55619  -0.55205  -0.53083  -0.52959  -0.52871
 Alpha  occ. eigenvalues --   -0.52678  -0.50267  -0.48785  -0.48780  -0.48274
 Alpha  occ. eigenvalues --   -0.46990  -0.46238  -0.46155  -0.44799  -0.44176
 Alpha  occ. eigenvalues --   -0.37286  -0.36262
 Alpha virt. eigenvalues --    0.05077   0.11289   0.16541   0.19723   0.22991
 Alpha virt. eigenvalues --    0.23707   0.24443   0.25003   0.27624   0.28449
 Alpha virt. eigenvalues --    0.30447   0.30675   0.31328   0.31624   0.31957

 Mulliken charges:
               1
     1  C   -0.297496
     2  C   -0.302821
     3  C   -0.476007
     4  H    0.150435
     5  H    0.155053
     6  H    0.143728
     7  H    0.156857
     8  H    0.158892
     9  H    0.155007
    10  H    0.160856
    11  C   -0.308420
    12  C   -0.298611
    13  C   -0.477999
    14  H    0.141135
    15  H    0.155857
    16  H    0.152419
    17  H    0.156842
    18  H    0.160521
    19  H    0.152097
    20  H    0.162727
    21  C   -0.171263
    22  C   -0.218837
    23  C   -0.170381
    24  C    0.157612
    25  C   -0.177491
    26  C   -0.221703
    27  H    0.225281
    28  H    0.223130
    29  H    0.275296
    30  H    0.286420
    31  H    0.225665
    32  N    0.487336
    33  O   -0.461860
    34  O   -0.460279
 Sum of Mulliken charges =  -0.00000

 Dipole moment (field-independent basis, Debye):
    X=              0.4811    Y=              3.7921    Z=              3.3858  Tot=              5.1064
 Quadrupole moment (field-independent basis, Debye-Ang):
   XX=            -91.1795   YY=            -98.1820   ZZ=            -95.4506
   XY=            -10.9605   XZ=             -7.8772   YZ=             -0.5390

 Normal termination of Gaussian 16 at Thu May  6 00:56:38 2021.
