 Gaussian 16, Revision A.03,
 Gaussian 16:  EM64L-G16RevA.03 25-Dec-2016

 -------------
 #p 6-31g* mp2
 -------------

 ------------------------------------------------------
 Input file generated by CHIRIPA (05-May-2021 14:55:25)
 ------------------------------------------------------
 Symbolic Z-matrix:
 Charge =  0 Multiplicity = 1

                         Standard orientation:
 ---------------------------------------------------------------------
 Center     Atomic      Atomic             Coordinates (Angstroms)
 Number     Number       Type             X           Y           Z
 ---------------------------------------------------------------------
      1          6           0       -1.651876    1.654662   -0.412672
      2          6           0       -1.461097    0.270005   -0.466062
      3          6           0       -2.547148   -0.601639   -0.342461
      4          6           0       -3.815929   -0.051855   -0.165762
      5          6           0       -4.038269    1.323125   -0.108457
      6          6           0       -2.937587    2.175883   -0.234354
      7          1           0       -0.802523    2.324440   -0.509580
      8          1           0       -0.463726   -0.137602   -0.604457
      9          1           0       -2.427920   -1.677641   -0.380167
     10          1           0       -5.044392    1.699745    0.030440
     11          1           0       -3.088733    3.250802   -0.192511
     12          7           0       -4.973428   -0.964629   -0.033695
     13          8           0       -6.081184   -0.455192    0.121185
     14          8           0       -4.751001   -2.172214   -0.087563
     15          6           0        4.085030    0.262989    0.591830
     16          6           0        2.772053   -0.513739    0.695606
     17          6           0        1.671060    0.278005    1.401829
     18          1           0        4.420338    0.540299    1.600598
     19          1           0        3.905016    1.203399    0.052740
     20          1           0        2.954774   -1.453045    1.233130
     21          1           0        2.439931   -0.789398   -0.313515
     22          1           0        1.459885    1.207967    0.864077
     23          1           0        1.977653    0.540549    2.419509
     24          1           0        0.741319   -0.295970    1.465032
     25          6           0        5.195378   -0.515355   -0.111759
     26          6           0        6.508355    0.261372   -0.215534
     27          6           0        7.609349   -0.530371   -0.921758
     28          1           0        5.375392   -1.455766    0.427331
     29          1           0        4.860071   -0.792666   -1.120526
     30          1           0        6.840477    0.537030    0.793585
     31          1           0        6.325634    1.200678   -0.753058
     32          1           0        7.302756   -0.792915   -1.939438
     33          1           0        7.820523   -1.460333   -0.384006
     34          1           0        8.539090    0.043603   -0.984962
 ---------------------------------------------------------------------

 SCF Done:  E(RHF) =  -669.534540967     A.U. after   15 cycles
 E2 =    -0.2092017061D+01 EUMP2 =    -0.67162655802831D+03

 The electronic state is 1-A.
 Alpha  occ. eigenvalues --  -20.60727 -20.60722 -15.85779 -11.31139 -11.27701
 Alpha  occ. eigenvalues --  -11.27687 -11.27431 -11.26724 -11.26651 -11.22571
 Alpha  occ. eigenvalues --  -11.22166 -11.22120 -11.22105 -11.21986 -11.21496
 Alpha  occ. eigenvalues --   -1.59803  -1.39356  -1.19307  -1.09164  -1.08702
 Alpha  occ. eigenvalues --   -1.04720  -1.04272  -0.96730  -0.95538  -0.87756
 Alpha  occ. eigenvalues --   -0.86095  -0.82374  -0.80349  -0.78939  -0.77425
 Alpha  occ. eigenvalues --   -0.71999  -0.71126  -0.70420  -0.65828  -0.64957
 Alpha  occ. eigenvalues --   -0.64755  -0.62180  -0.61595  -0.60068  -0.58323
 Alpha  occ. eigenvalues --   -0.56012  -0.55213  -0.53557  -0.53181  -0.52971
 Alpha  occ. eigenvalues --   -0.52625  -0.50656  -0.48760  -0.48753  -0.48647
 Alpha  occ. eigenvalues --   -0.47393  -0.46485  -0.46393  -0.44764  -0.44508
 Alpha  occ. eigenvalues --   -0.37264  -0.36288
 Alpha virt. eigenvalues --    0.05095   0.11292   0.16522   0.19572   0.22586
 Alpha virt. eigenvalues --    0.23915   0.25447   0.25763   0.26767   0.27689
 Alpha virt. eigenvalues --    0.29117   0.29717   0.30877   0.31267   0.31775

 Mulliken charges:
               1
     1  C   -0.172540
     2  C   -0.218801
     3  C   -0.173949
     4  C    0.158934
     5  C   -0.171154
     6  C   -0.218541
     7  H    0.225359
     8  H    0.231124
     9  H    0.275379
    10  H    0.275368
    11  H    0.223201
    12  N    0.488072
    13  O   -0.460581
    14  O   -0.460577
    15  C   -0.297999
    16  C   -0.303452
    17  C   -0.481726
    18  H    0.152533
    19  H    0.147754
    20  H    0.157432
    21  H    0.147195
    22  H    0.146580
    23  H    0.162520
    24  H    0.163522
    25  C   -0.298849
    26  C   -0.300109
    27  C   -0.476100
    28  H    0.151511
    29  H    0.149630
    30  H    0.153004
    31  H    0.151687
    32  H    0.155598
    33  H    0.156297
    34  H    0.161677
 Sum of Mulliken charges =  -0.00000

 Dipole moment (field-independent basis, Debye):
    X=              4.2770    Y=              3.1942    Z=             -0.3923  Tot=              5.3525
 Quadrupole moment (field-independent basis, Debye-Ang):
   XX=           -124.4593   YY=            -92.3093   ZZ=            -94.7144
   XY=            -15.2064   XZ=              1.6450   YZ=             -0.6823

 Normal termination of Gaussian 16 at Wed May  5 22:25:18 2021.
