 Gaussian 16, Revision A.03,
 Gaussian 16:  EM64L-G16RevA.03 25-Dec-2016

 -------------
 #p 6-31g* mp2
 -------------

 ------------------------------------------------------
 Input file generated by CHIRIPA (05-May-2021 14:55:26)
 ------------------------------------------------------
 Symbolic Z-matrix:
 Charge =  0 Multiplicity = 1

                         Standard orientation:
 ---------------------------------------------------------------------
 Center     Atomic      Atomic             Coordinates (Angstroms)
 Number     Number       Type             X           Y           Z
 ---------------------------------------------------------------------
      1          6           0        3.517979    2.654943   -0.249094
      2          6           0        4.210542    1.678358   -0.972391
      3          6           0        3.950468    0.320959   -0.761736
      4          6           0        2.987007   -0.025846    0.184181
      5          6           0        2.280301    0.923662    0.920586
      6          6           0        2.556763    2.275148    0.693424
      7          1           0        3.726376    3.707107   -0.419148
      8          1           0        4.957569    1.970390   -1.704998
      9          1           0        4.471902   -0.455806   -1.307777
     10          1           0        1.541259    0.601758    1.644196
     11          1           0        2.017366    3.031404    1.256604
     12          7           0        2.703004   -1.459734    0.415930
     13          8           0        1.849440   -1.739273    1.254931
     14          8           0        3.339343   -2.276925   -0.245816
     15          6           0       -3.182228   -0.435207   -0.440762
     16          6           0       -2.749024   -1.868862   -0.132615
     17          6           0       -1.344325   -2.185415   -0.646821
     18          1           0       -3.142271   -0.272190   -1.526475
     19          1           0       -2.461017    0.262582    0.006833
     20          1           0       -3.471593   -2.563714   -0.579483
     21          1           0       -2.790200   -2.028544    0.952476
     22          1           0       -0.607495   -1.515608   -0.191803
     23          1           0       -1.292760   -2.053819   -1.732466
     24          1           0       -1.054858   -3.215315   -0.415789
     25          6           0       -4.584338   -0.103612    0.067036
     26          6           0       -5.017541    1.330043   -0.241110
     27          6           0       -6.422241    1.646597    0.273096
     28          1           0       -5.305548   -0.801401   -0.380558
     29          1           0       -4.624294   -0.266629    1.152750
     30          1           0       -4.976365    1.489725   -1.326201
     31          1           0       -4.294972    2.024895    0.205758
     32          1           0       -6.473805    1.515000    1.358740
     33          1           0       -7.159069    0.976789   -0.181922
     34          1           0       -6.711706    2.676496    0.042064
 ---------------------------------------------------------------------

 SCF Done:  E(RHF) =  -669.535943949     A.U. after   15 cycles
 E2 =    -0.2091190532D+01 EUMP2 =    -0.67162713448119D+03

 The electronic state is 1-A.
 Alpha  occ. eigenvalues --  -20.60886 -20.60878 -15.85903 -11.31253 -11.27823
 Alpha  occ. eigenvalues --  -11.27811 -11.27556 -11.26833 -11.26822 -11.21495
 Alpha  occ. eigenvalues --  -11.21146 -11.21038 -11.20996 -11.20950 -11.20079
 Alpha  occ. eigenvalues --   -1.59936  -1.39495  -1.19422  -1.08821  -1.08098
 Alpha  occ. eigenvalues --   -1.04823  -1.03112  -0.95665  -0.95537  -0.86557
 Alpha  occ. eigenvalues --   -0.86223  -0.82495  -0.79201  -0.77901  -0.77544
 Alpha  occ. eigenvalues --   -0.72132  -0.71250  -0.70532  -0.65079  -0.64828
 Alpha  occ. eigenvalues --   -0.64734  -0.62173  -0.60507  -0.58949  -0.57150
 Alpha  occ. eigenvalues --   -0.55326  -0.54831  -0.53151  -0.52917  -0.52196
 Alpha  occ. eigenvalues --   -0.51980  -0.49516  -0.48897  -0.48881  -0.47515
 Alpha  occ. eigenvalues --   -0.46288  -0.45473  -0.45391  -0.44725  -0.43366
 Alpha  occ. eigenvalues --   -0.37399  -0.36424
 Alpha virt. eigenvalues --    0.04970   0.11203   0.16434   0.21296   0.23142
 Alpha virt. eigenvalues --    0.24685   0.26711   0.27313   0.27712   0.28119
 Alpha virt. eigenvalues --    0.28660   0.30667   0.31683   0.32092   0.32449

 Mulliken charges:
               1
     1  C   -0.170660
     2  C   -0.218451
     3  C   -0.170779
     4  C    0.158905
     5  C   -0.171736
     6  C   -0.218295
     7  H    0.225873
     8  H    0.223727
     9  H    0.275841
    10  H    0.275327
    11  H    0.223650
    12  N    0.488238
    13  O   -0.458488
    14  O   -0.458604
    15  C   -0.296692
    16  C   -0.300345
    17  C   -0.476428
    18  H    0.148155
    19  H    0.144587
    20  H    0.149664
    21  H    0.153110
    22  H    0.160110
    23  H    0.148299
    24  H    0.168148
    25  C   -0.297935
    26  C   -0.298779
    27  C   -0.475438
    28  H    0.149864
    29  H    0.149460
    30  H    0.151353
    31  H    0.148850
    32  H    0.154980
    33  H    0.155699
    34  H    0.158789
 Sum of Mulliken charges =  -0.00000

 Dipole moment (field-independent basis, Debye):
    X=              1.1895    Y=              4.9684    Z=             -0.7802  Tot=              5.1681
 Quadrupole moment (field-independent basis, Debye-Ang):
   XX=            -88.0658   YY=            -95.1181   ZZ=            -92.5532
   XY=             14.9107   XZ=             -4.5305   YZ=              1.9918

 Normal termination of Gaussian 16 at Thu May  6 09:35:53 2021.
