 Gaussian 16, Revision A.03,
 Gaussian 16:  EM64L-G16RevA.03 25-Dec-2016

 -------------
 #p 6-31g* mp2
 -------------

 ------------------------------------------------------
 Input file generated by CHIRIPA (05-May-2021 14:53:15)
 ------------------------------------------------------
 Symbolic Z-matrix:
 Charge =  0 Multiplicity = 1

                         Standard orientation:
 ---------------------------------------------------------------------
 Center     Atomic      Atomic             Coordinates (Angstroms)
 Number     Number       Type             X           Y           Z
 ---------------------------------------------------------------------
      1          6           0       -4.134252    0.494555   -0.015832
      2          6           0       -4.592987   -0.935243   -0.304322
      3          6           0       -6.056490   -1.173195    0.068947
      4          1           0       -4.282135    0.712126    1.050816
      5          1           0       -4.773563    1.196076   -0.569496
      6          1           0       -3.952124   -1.633919    0.248635
      7          1           0       -4.443816   -1.149499   -1.370370
      8          1           0       -6.711722   -0.499380   -0.492520
      9          1           0       -6.217236   -0.986552    1.135684
     10          1           0       -6.363415   -2.201615   -0.145552
     11          6           0       -2.673360    0.747932   -0.383693
     12          6           0       -2.214625    2.177730   -0.095204
     13          6           0       -0.751121    2.415682   -0.468473
     14          1           0       -2.034048    0.046411    0.169971
     15          1           0       -2.525477    0.530362   -1.450342
     16          1           0       -2.363796    2.391987    0.970844
     17          1           0       -2.855488    2.876407   -0.648160
     18          1           0       -0.590375    2.229039   -1.535209
     19          1           0       -0.095889    1.741867    0.092994
     20          1           0       -0.444197    3.444102   -0.253974
     21          6           0        4.891892    0.559217   -0.382453
     22          6           0        4.433956   -0.534974   -1.123778
     23          6           0        3.198467   -1.121722   -0.834219
     24          6           0        2.443377   -0.586331    0.208126
     25          6           0        2.872280    0.502996    0.964895
     26          6           0        4.110969    1.073803    0.657683
     27          1           0        5.852891    1.008825   -0.614244
     28          1           0        5.038307   -0.936707   -1.932118
     29          1           0        2.819817   -1.969550   -1.392097
     30          1           0        2.247456    0.881345    1.764809
     31          1           0        4.464079    1.923488    1.235086
     32          7           0        1.133727   -1.199057    0.524013
     33          8           0        0.487384   -0.708703    1.447284
     34          8           0        0.778365   -2.158063   -0.157648
 ---------------------------------------------------------------------

 SCF Done:  E(RHF) =  -669.536737942     A.U. after   15 cycles
 E2 =    -0.2092775461D+01 EUMP2 =    -0.67162951340307D+03

 The electronic state is 1-A.
 Alpha  occ. eigenvalues --  -20.61098 -20.61093 -15.86078 -11.31329 -11.27881
 Alpha  occ. eigenvalues --  -11.27877 -11.27607 -11.26873 -11.26862 -11.20739
 Alpha  occ. eigenvalues --  -11.20564 -11.20415 -11.20361 -11.20241 -11.20102
 Alpha  occ. eigenvalues --   -1.60128  -1.39691  -1.19488  -1.08909  -1.07400
 Alpha  occ. eigenvalues --   -1.04873  -1.02635  -0.95763  -0.95098  -0.86287
 Alpha  occ. eigenvalues --   -0.86123  -0.82603  -0.78699  -0.77667  -0.77190
 Alpha  occ. eigenvalues --   -0.72311  -0.71432  -0.70601  -0.65150  -0.64879
 Alpha  occ. eigenvalues --   -0.64009  -0.62226  -0.60026  -0.58472  -0.56714
 Alpha  occ. eigenvalues --   -0.55385  -0.54396  -0.53205  -0.52966  -0.51847
 Alpha  occ. eigenvalues --   -0.51547  -0.49262  -0.49075  -0.48860  -0.47044
 Alpha  occ. eigenvalues --   -0.45822  -0.45157  -0.44759  -0.44330  -0.42846
 Alpha  occ. eigenvalues --   -0.37455  -0.36459
 Alpha virt. eigenvalues --    0.04812   0.11114   0.16294   0.21256   0.23935
 Alpha virt. eigenvalues --    0.25019   0.27060   0.27580   0.28012   0.28742
 Alpha virt. eigenvalues --    0.28897   0.30731   0.31714   0.32351   0.32702

 Mulliken charges:
               1
     1  C   -0.297287
     2  C   -0.300437
     3  C   -0.475257
     4  H    0.148769
     5  H    0.144046
     6  H    0.160651
     7  H    0.149888
     8  H    0.151905
     9  H    0.154107
    10  H    0.158459
    11  C   -0.310129
    12  C   -0.295428
    13  C   -0.482591
    14  H    0.176185
    15  H    0.144523
    16  H    0.151498
    17  H    0.146960
    18  H    0.151555
    19  H    0.159460
    20  H    0.153259
    21  C   -0.170239
    22  C   -0.218535
    23  C   -0.170512
    24  C    0.159963
    25  C   -0.170897
    26  C   -0.218518
    27  H    0.226199
    28  H    0.223953
    29  H    0.275852
    30  H    0.275945
    31  H    0.224194
    32  N    0.488969
    33  O   -0.459733
    34  O   -0.456775
 Sum of Mulliken charges =  -0.00000

 Dipole moment (field-independent basis, Debye):
    X=              4.9033    Y=              1.9096    Z=             -1.0101  Tot=              5.3582
 Quadrupole moment (field-independent basis, Debye-Ang):
   XX=            -74.4533   YY=            -96.0703   ZZ=            -92.1564
   XY=              2.1262   XZ=             -2.2375   YZ=              3.9545

 Normal termination of Gaussian 16 at Thu May  6 01:05:45 2021.
