 Gaussian 16, Revision A.03,
 Gaussian 16:  EM64L-G16RevA.03 25-Dec-2016

 -------------
 #p 6-31g* mp2
 -------------

 ------------------------------------------------------
 Input file generated by CHIRIPA (05-May-2021 14:53:15)
 ------------------------------------------------------
 Symbolic Z-matrix:
 Charge =  0 Multiplicity = 1

                         Standard orientation:
 ---------------------------------------------------------------------
 Center     Atomic      Atomic             Coordinates (Angstroms)
 Number     Number       Type             X           Y           Z
 ---------------------------------------------------------------------
      1          6           0        3.861772   -0.091947   -0.082432
      2          6           0        4.053955   -1.053254    1.090999
      3          6           0        5.152296   -2.085810    0.835520
      4          1           0        3.621281   -0.669353   -0.985600
      5          1           0        4.810982    0.423402   -0.284444
      6          1           0        3.104300   -1.565622    1.291626
      7          1           0        4.293827   -0.473479    1.991520
      8          1           0        6.112357   -1.590845    0.656934
      9          1           0        4.916071   -2.689192   -0.046936
     10          1           0        5.272823   -2.762767    1.687026
     11          6           0        2.767169    0.946224    0.157930
     12          6           0        2.574986    1.907530   -1.015501
     13          6           0        1.476645    2.940086   -0.760022
     14          1           0        1.817958    0.430875    0.359942
     15          1           0        3.007660    1.523629    1.061098
     16          1           0        2.335113    1.327756   -1.916022
     17          1           0        3.524640    2.419898   -1.216129
     18          1           0        1.712869    3.543469    0.122434
     19          1           0        0.516584    2.445121   -0.581436
     20          1           0        1.356118    3.617043   -1.611528
     21          6           0       -3.144791    1.840903    1.123156
     22          6           0       -3.699317    0.642528    1.584590
     23          6           0       -3.398621   -0.568283    0.953667
     24          6           0       -2.535740   -0.543934   -0.140926
     25          6           0       -1.967368    0.633617   -0.624263
     26          6           0       -2.282108    1.832636    0.022143
     27          1           0       -3.383833    2.776910    1.619285
     28          1           0       -4.369600    0.645934    2.439432
     29          1           0       -3.813902   -1.510511    1.290071
     30          1           0       -1.302480    0.598466   -1.478726
     31          1           0       -1.849986    2.761791   -0.338396
     32          7           0       -2.209973   -1.819525   -0.817050
     33          8           0       -1.447001   -1.771263   -1.779434
     34          8           0       -2.723778   -2.843441   -0.371811
 ---------------------------------------------------------------------

 SCF Done:  E(RHF) =  -669.535199361     A.U. after   15 cycles
 E2 =    -0.2092208779D+01 EUMP2 =    -0.67162740813968D+03

 The electronic state is 1-A.
 Alpha  occ. eigenvalues --  -20.60823 -20.60817 -15.85876 -11.31241 -11.27804
 Alpha  occ. eigenvalues --  -11.27799 -11.27528 -11.26819 -11.26778 -11.21879
 Alpha  occ. eigenvalues --  -11.21666 -11.21478 -11.21460 -11.21290 -11.20877
 Alpha  occ. eigenvalues --   -1.59898  -1.39451  -1.19411  -1.08801  -1.08487
 Alpha  occ. eigenvalues --   -1.04820  -1.03642  -0.96118  -0.95637  -0.87149
 Alpha  occ. eigenvalues --   -0.86203  -0.82479  -0.79723  -0.78263  -0.77520
 Alpha  occ. eigenvalues --   -0.72093  -0.71222  -0.70513  -0.65155  -0.65034
 Alpha  occ. eigenvalues --   -0.64814  -0.62236  -0.60992  -0.59499  -0.57701
 Alpha  occ. eigenvalues --   -0.55469  -0.55252  -0.53166  -0.52978  -0.52787
 Alpha  occ. eigenvalues --   -0.52470  -0.50050  -0.48851  -0.48847  -0.48025
 Alpha  occ. eigenvalues --   -0.46731  -0.45815  -0.45701  -0.44856  -0.43873
 Alpha  occ. eigenvalues --   -0.37382  -0.36377
 Alpha virt. eigenvalues --    0.04969   0.11206   0.16337   0.20639   0.22810
 Alpha virt. eigenvalues --    0.24137   0.26148   0.26703   0.27570   0.28189
 Alpha virt. eigenvalues --    0.29016   0.30302   0.31459   0.31482   0.32374

 Mulliken charges:
               1
     1  C   -0.299290
     2  C   -0.300092
     3  C   -0.476106
     4  H    0.154627
     5  H    0.148535
     6  H    0.154772
     7  H    0.149936
     8  H    0.153957
     9  H    0.158107
    10  H    0.160355
    11  C   -0.298797
    12  C   -0.300180
    13  C   -0.483545
    14  H    0.151345
    15  H    0.148157
    16  H    0.155606
    17  H    0.153741
    18  H    0.156537
    19  H    0.149948
    20  H    0.159749
    21  C   -0.171847
    22  C   -0.218395
    23  C   -0.171041
    24  C    0.157640
    25  C   -0.171774
    26  C   -0.218951
    27  H    0.226185
    28  H    0.223729
    29  H    0.275767
    30  H    0.276402
    31  H    0.227724
    32  N    0.488164
    33  O   -0.460840
    34  O   -0.460123
 Sum of Mulliken charges =  -0.00000

 Dipole moment (field-independent basis, Debye):
    X=             -1.1277    Y=              4.4159    Z=              2.3950  Tot=              5.1486
 Quadrupole moment (field-independent basis, Debye-Ang):
   XX=            -87.5260   YY=            -99.3131   ZZ=            -93.6598
   XY=             -8.3946   XZ=             -8.0848   YZ=             -3.4002

 Normal termination of Gaussian 16 at Wed May  5 23:31:59 2021.
