 Gaussian 16, Revision A.03,
 Gaussian 16:  EM64L-G16RevA.03 25-Dec-2016

 -------------
 #p 6-31g* mp2
 -------------

 ------------------------------------------------------
 Input file generated by CHIRIPA (05-May-2021 14:53:13)
 ------------------------------------------------------
 Symbolic Z-matrix:
 Charge =  0 Multiplicity = 1

                         Standard orientation:
 ---------------------------------------------------------------------
 Center     Atomic      Atomic             Coordinates (Angstroms)
 Number     Number       Type             X           Y           Z
 ---------------------------------------------------------------------
      1          6           0        3.920438    1.029612    0.143766
      2          6           0        2.497983    1.475642   -0.196326
      3          6           0        2.277437    2.971578    0.030229
      4          1           0        4.135282    1.278762    1.191960
      5          1           0        4.632597    1.602666   -0.466016
      6          1           0        1.788651    0.900938    0.412920
      7          1           0        2.286433    1.225228   -1.243778
      8          1           0        2.962132    3.560055   -0.589035
      9          1           0        2.461522    3.233923    1.077076
     10          1           0        1.254029    3.268790   -0.219093
     11          6           0        4.156418   -0.463388   -0.077577
     12          6           0        5.578874   -0.909418    0.262515
     13          6           0        5.799420   -2.405354    0.035959
     14          1           0        3.444260   -1.036442    0.532205
     15          1           0        3.941575   -0.712538   -1.125772
     16          1           0        5.790424   -0.659004    1.309967
     17          1           0        6.288205   -0.334714   -0.346732
     18          1           0        5.615334   -2.667699   -1.010888
     19          1           0        5.114724   -2.993831    0.655224
     20          1           0        6.822828   -2.702567    0.285281
     21          6           0       -5.653270   -0.503199    0.186630
     22          6           0       -5.090349    0.777273    0.192624
     23          6           0       -3.707398    0.945447    0.075533
     24          6           0       -2.913501   -0.193917   -0.046397
     25          6           0       -3.444436   -1.482836   -0.055645
     26          6           0       -4.829967   -1.627185    0.062734
     27          1           0       -6.728582   -0.624586    0.278090
     28          1           0       -5.727297    1.651979    0.288705
     29          1           0       -3.245207    1.925138    0.077282
     30          1           0       -2.783787   -2.335774   -0.152896
     31          1           0       -5.264371   -2.622831    0.057777
     32          7           0       -1.448066   -0.028490   -0.171038
     33          8           0       -0.770346   -1.048323   -0.277215
     34          8           0       -1.004927    1.117873   -0.160195
 ---------------------------------------------------------------------

 SCF Done:  E(RHF) =  -669.536220698     A.U. after   15 cycles
 E2 =    -0.2091830780D+01 EUMP2 =    -0.67162805147833D+03

 The electronic state is 1-A.
 Alpha  occ. eigenvalues --  -20.61051 -20.61045 -15.86065 -11.31362 -11.27918
 Alpha  occ. eigenvalues --  -11.27914 -11.27649 -11.26916 -11.26907 -11.20566
 Alpha  occ. eigenvalues --  -11.20205 -11.20026 -11.19849 -11.19485 -11.19331
 Alpha  occ. eigenvalues --   -1.60096  -1.39653  -1.19523  -1.08933  -1.06990
 Alpha  occ. eigenvalues --   -1.04914  -1.02069  -0.95780  -0.94587  -0.86316
 Alpha  occ. eigenvalues --   -0.85628  -0.82614  -0.78173  -0.77670  -0.76689
 Alpha  occ. eigenvalues --   -0.72274  -0.71408  -0.70631  -0.65179  -0.64917
 Alpha  occ. eigenvalues --   -0.63644  -0.62261  -0.59491  -0.57991  -0.56141
 Alpha  occ. eigenvalues --   -0.55410  -0.53924  -0.53248  -0.53004  -0.51308
 Alpha  occ. eigenvalues --   -0.51003  -0.49078  -0.49030  -0.48582  -0.46445
 Alpha  occ. eigenvalues --   -0.45230  -0.45059  -0.44260  -0.44062  -0.42329
 Alpha  occ. eigenvalues --   -0.37501  -0.36514
 Alpha virt. eigenvalues --    0.04848   0.11142   0.16355   0.21273   0.24172
 Alpha virt. eigenvalues --    0.25700   0.27203   0.28037   0.28131   0.28993
 Alpha virt. eigenvalues --    0.29290   0.30851   0.32339   0.32717   0.33050

 Mulliken charges:
               1
     1  C   -0.299202
     2  C   -0.294409
     3  C   -0.477417
     4  H    0.143700
     5  H    0.142573
     6  H    0.170992
     7  H    0.150250
     8  H    0.145113
     9  H    0.146728
    10  H    0.168517
    11  C   -0.296753
    12  C   -0.298462
    13  C   -0.474634
    14  H    0.153654
    15  H    0.149256
    16  H    0.149138
    17  H    0.149002
    18  H    0.154165
    19  H    0.154630
    20  H    0.156179
    21  C   -0.170464
    22  C   -0.218559
    23  C   -0.170689
    24  C    0.158353
    25  C   -0.170620
    26  C   -0.218607
    27  H    0.226240
    28  H    0.224079
    29  H    0.275818
    30  H    0.276005
    31  H    0.224056
    32  N    0.490005
    33  O   -0.458677
    34  O   -0.459961
 Sum of Mulliken charges =  -0.00000

 Dipole moment (field-independent basis, Debye):
    X=             -5.6920    Y=             -0.6897    Z=              0.4168  Tot=              5.7488
 Quadrupole moment (field-independent basis, Debye-Ang):
   XX=            -67.1722   YY=            -91.3626   ZZ=            -94.8973
   XY=              2.1689   XZ=             -1.4526   YZ=             -0.0774

 Normal termination of Gaussian 16 at Wed May  5 21:46:06 2021.
