 Gaussian 16, Revision A.03,
 Gaussian 16:  EM64L-G16RevA.03 25-Dec-2016

 -------------
 #p 6-31g* mp2
 -------------

 ------------------------------------------------------
 Input file generated by CHIRIPA (05-May-2021 14:51:13)
 ------------------------------------------------------
 Symbolic Z-matrix:
 Charge =  0 Multiplicity = 1

                         Standard orientation:
 ---------------------------------------------------------------------
 Center     Atomic      Atomic             Coordinates (Angstroms)
 Number     Number       Type             X           Y           Z
 ---------------------------------------------------------------------
      1          6           0        5.147701   -0.036471    0.222631
      2          6           0        6.066392   -1.142633   -0.297366
      3          6           0        7.315320   -1.327904    0.564985
      4          1           0        5.708583    0.907193    0.265694
      5          1           0        4.850651   -0.270881    1.254236
      6          1           0        6.360509   -0.906902   -1.328163
      7          1           0        5.503203   -2.083733   -0.339377
      8          1           0        7.039225   -1.587280    1.592163
      9          1           0        7.901401   -0.403763    0.597759
     10          1           0        7.957914   -2.123521    0.175207
     11          6           0        3.894836    0.160727   -0.628938
     12          6           0        2.976144    1.266889   -0.108940
     13          6           0        1.727217    1.452160   -0.971291
     14          1           0        4.191886    0.395138   -1.660542
     15          1           0        3.333953   -0.782937   -0.672001
     16          1           0        3.539333    2.207989   -0.066929
     17          1           0        2.682028    1.031159    0.921857
     18          1           0        1.141135    0.528020   -1.004066
     19          1           0        2.003312    1.711537   -1.998470
     20          1           0        1.084622    2.247777   -0.581514
     21          6           0       -4.006746    0.182428    0.711967
     22          6           0       -2.641697    0.488504    0.094760
     23          6           0       -1.623066    0.976697    1.125221
     24          1           0       -4.388605    1.085331    1.207847
     25          1           0       -3.884633   -0.577136    1.496533
     26          1           0       -2.766552    1.246257   -0.689356
     27          1           0       -2.263130   -0.415179   -0.399873
     28          1           0       -1.469132    0.221277    1.902554
     29          1           0       -1.975415    1.892152    1.611426
     30          1           0       -0.654359    1.189590    0.662464
     31          6           0       -5.035791   -0.306684   -0.305660
     32          6           0       -6.400840   -0.612760    0.311546
     33          6           0       -7.419471   -1.100954   -0.718915
     34          1           0       -5.157903    0.452880   -1.090227
     35          1           0       -4.653932   -1.209586   -0.801540
     36          1           0       -6.779407    0.290922    0.806178
     37          1           0       -6.275984   -1.370513    1.095662
     38          1           0       -7.067122   -2.016408   -1.205119
     39          1           0       -7.573405   -0.345533   -1.496247
     40          1           0       -8.388178   -1.313846   -0.256158
 ---------------------------------------------------------------------

 SCF Done:  E(RHF) =  -470.732771959     A.U. after   11 cycles
 E2 =    -0.1582622708D+01 EUMP2 =    -0.47231539466685D+03

 The electronic state is 1-A.
 Alpha  occ. eigenvalues --  -11.21631 -11.21610 -11.21576 -11.21540 -11.21421
 Alpha  occ. eigenvalues --  -11.21365 -11.21361 -11.21304 -11.21111 -11.21077
 Alpha  occ. eigenvalues --  -11.21051 -11.20905  -1.08450  -1.08384  -1.03570
 Alpha  occ. eigenvalues --   -1.03465  -0.96055  -0.95885  -0.87093  -0.86884
 Alpha  occ. eigenvalues --   -0.79634  -0.79528  -0.78259  -0.78199  -0.65085
 Alpha  occ. eigenvalues --   -0.65016  -0.61007  -0.60872  -0.59612  -0.59116
 Alpha  occ. eigenvalues --   -0.57684  -0.57476  -0.55304  -0.55203  -0.52964
 Alpha  occ. eigenvalues --   -0.52489  -0.52412  -0.52200  -0.49919  -0.49865
 Alpha  occ. eigenvalues --   -0.47946  -0.47834  -0.46638  -0.46578  -0.45801
 Alpha  occ. eigenvalues --   -0.45740  -0.45723  -0.45668  -0.43911  -0.43595
 Alpha virt. eigenvalues --    0.21893   0.23042   0.23523   0.25115   0.26524
 Alpha virt. eigenvalues --    0.26714   0.27204   0.27331   0.27700   0.29066
 Alpha virt. eigenvalues --    0.30523   0.31322   0.31493   0.31764   0.32096

 Mulliken charges:
               1
     1  C   -0.298359
     2  C   -0.299679
     3  C   -0.475722
     4  H    0.149717
     5  H    0.149700
     6  H    0.151937
     7  H    0.151941
     8  H    0.155230
     9  H    0.155206
    10  H    0.160273
    11  C   -0.298530
    12  C   -0.301081
    13  C   -0.480608
    14  H    0.149652
    15  H    0.149879
    16  H    0.152341
    17  H    0.153311
    18  H    0.156967
    19  H    0.156538
    20  H    0.162280
    21  C   -0.298159
    22  C   -0.298565
    23  C   -0.486430
    24  H    0.149549
    25  H    0.149269
    26  H    0.151888
    27  H    0.151027
    28  H    0.153743
    29  H    0.153969
    30  H    0.173078
    31  C   -0.298192
    32  C   -0.299603
    33  C   -0.475672
    34  H    0.149493
    35  H    0.149471
    36  H    0.151890
    37  H    0.151822
    38  H    0.155112
    39  H    0.155164
    40  H    0.160151
 Sum of Mulliken charges =  -0.00000

 Dipole moment (field-independent basis, Debye):
    X=              0.0567    Y=              0.0139    Z=             -0.0226  Tot=              0.0626
 Quadrupole moment (field-independent basis, Debye-Ang):
   XX=            -86.1950   YY=            -83.5426   ZZ=            -85.1510
   XY=              0.0064   XZ=             -1.2114   YZ=             -0.6894

 Normal termination of Gaussian 16 at Thu May  6 07:07:10 2021.
