 Gaussian 16, Revision A.03,
 Gaussian 16:  EM64L-G16RevA.03 25-Dec-2016

 -------------
 #p 6-31g* mp2
 -------------

 ------------------------------------------------------
 Input file generated by CHIRIPA (05-May-2021 14:55:23)
 ------------------------------------------------------
 Symbolic Z-matrix:
 Charge =  0 Multiplicity = 1

                         Standard orientation:
 ---------------------------------------------------------------------
 Center     Atomic      Atomic             Coordinates (Angstroms)
 Number     Number       Type             X           Y           Z
 ---------------------------------------------------------------------
      1          6           0        2.048900    1.971378    1.114057
      2          6           0        1.860736    1.658723   -0.236263
      3          6           0        2.467811    0.530092   -0.795011
      4          6           0        3.260157   -0.267448    0.029251
      5          6           0        3.466791    0.017610    1.378078
      6          6           0        2.849914    1.151269    1.915504
      7          1           0        1.573502    2.850078    1.539824
      8          1           0        1.239187    2.293821   -0.861060
      9          1           0        2.339050    0.264708   -1.837321
     10          1           0        4.091962   -0.634545    1.975802
     11          1           0        2.997817    1.391635    2.964501
     12          7           0        3.908028   -1.464941   -0.550985
     13          8           0        4.601375   -2.151486    0.196387
     14          8           0        3.710216   -1.694317   -1.742158
     15          6           0       -3.326160    0.368559   -0.123227
     16          6           0       -3.090926    1.553531   -1.060506
     17          6           0       -1.665578    2.100347   -0.975841
     18          1           0       -3.111066    0.677311    0.908932
     19          1           0       -2.611178   -0.429684   -0.366135
     20          1           0       -3.807053    2.348761   -0.816811
     21          1           0       -3.306790    1.241976   -2.090531
     22          1           0       -0.939163    1.324866   -1.239564
     23          1           0       -1.442267    2.437940    0.041393
     24          1           0       -1.519395    2.946865   -1.654000
     25          6           0       -4.746492   -0.189136   -0.196468
     26          6           0       -4.981726   -1.374107    0.740811
     27          6           0       -6.407074   -1.920924    0.656146
     28          1           0       -5.461473    0.609107    0.046441
     29          1           0       -4.961586   -0.497889   -1.228626
     30          1           0       -4.765861   -1.062553    1.770836
     31          1           0       -4.265599   -2.169339    0.497116
     32          1           0       -6.630383   -2.258518   -0.361088
     33          1           0       -7.133489   -1.145443    0.919869
     34          1           0       -6.553256   -2.767443    1.334304
 ---------------------------------------------------------------------

 SCF Done:  E(RHF) =  -669.534801009     A.U. after   15 cycles
 E2 =    -0.2091815499D+01 EUMP2 =    -0.67162661650749D+03

 The electronic state is 1-A.
 Alpha  occ. eigenvalues --  -20.60732 -20.60727 -15.85783 -11.31138 -11.27689
 Alpha  occ. eigenvalues --  -11.27672 -11.27411 -11.26722 -11.26624 -11.22236
 Alpha  occ. eigenvalues --  -11.22015 -11.21857 -11.21841 -11.21707 -11.21267
 Alpha  occ. eigenvalues --   -1.59807  -1.39361  -1.19298  -1.08873  -1.08693
 Alpha  occ. eigenvalues --   -1.04703  -1.04017  -0.96504  -0.95534  -0.87559
 Alpha  occ. eigenvalues --   -0.86078  -0.82370  -0.80110  -0.78648  -0.77409
 Alpha  occ. eigenvalues --   -0.72002  -0.71130  -0.70405  -0.65501  -0.64946
 Alpha  occ. eigenvalues --   -0.64707  -0.62077  -0.61401  -0.59883  -0.58079
 Alpha  occ. eigenvalues --   -0.55803  -0.55191  -0.53385  -0.53153  -0.52891
 Alpha  occ. eigenvalues --   -0.52508  -0.50431  -0.48766  -0.48759  -0.48376
 Alpha  occ. eigenvalues --   -0.47103  -0.46197  -0.46094  -0.44770  -0.44260
 Alpha  occ. eigenvalues --   -0.37265  -0.36266
 Alpha virt. eigenvalues --    0.05085   0.11327   0.16515   0.20927   0.22482
 Alpha virt. eigenvalues --    0.23930   0.25993   0.26187   0.27137   0.27760
 Alpha virt. eigenvalues --    0.28759   0.29810   0.30841   0.31723   0.32091

 Mulliken charges:
               1
     1  C   -0.173849
     2  C   -0.216898
     3  C   -0.174707
     4  C    0.159116
     5  C   -0.171520
     6  C   -0.218269
     7  H    0.225150
     8  H    0.232527
     9  H    0.275013
    10  H    0.275254
    11  H    0.223053
    12  N    0.488035
    13  O   -0.460558
    14  O   -0.460706
    15  C   -0.298865
    16  C   -0.300145
    17  C   -0.481713
    18  H    0.148733
    19  H    0.152486
    20  H    0.153225
    21  H    0.154915
    22  H    0.156640
    23  H    0.151551
    24  H    0.158190
    25  C   -0.298852
    26  C   -0.300112
    27  C   -0.475994
    28  H    0.149482
    29  H    0.151012
    30  H    0.151516
    31  H    0.153842
    32  H    0.156060
    33  H    0.154969
    34  H    0.161420
 Sum of Mulliken charges =  -0.00000

 Dipole moment (field-independent basis, Debye):
    X=             -2.4265    Y=              4.1809    Z=              2.0446  Tot=              5.2486
 Quadrupole moment (field-independent basis, Debye-Ang):
   XX=           -110.1207   YY=            -97.4362   ZZ=            -90.2979
   XY=             13.4470   XZ=              8.6545   YZ=             -0.9270

 Normal termination of Gaussian 16 at Thu May  6 06:17:58 2021.
