 Gaussian 16, Revision A.03,
 Gaussian 16:  EM64L-G16RevA.03 25-Dec-2016

 -------------
 #p 6-31g* mp2
 -------------

 ------------------------------------------------------
 Input file generated by CHIRIPA (05-May-2021 14:51:12)
 ------------------------------------------------------
 Symbolic Z-matrix:
 Charge =  0 Multiplicity = 1

                         Standard orientation:
 ---------------------------------------------------------------------
 Center     Atomic      Atomic             Coordinates (Angstroms)
 Number     Number       Type             X           Y           Z
 ---------------------------------------------------------------------
      1          6           0        2.900131    0.495816   -0.112638
      2          6           0        2.734268    1.573770   -1.184314
      3          6           0        1.583117    2.534103   -0.883635
      4          1           0        1.962741   -0.069986   -0.022564
      5          1           0        3.068594    0.978471    0.860017
      6          1           0        2.567546    1.089207   -2.154890
      7          1           0        3.672224    2.136947   -1.271982
      8          1           0        1.746245    3.043988    0.071356
      9          1           0        0.635291    1.990295   -0.816569
     10          1           0        1.482471    3.296484   -1.662420
     11          6           0        4.046948   -0.471890   -0.399145
     12          6           0        4.212811   -1.549845    0.672531
     13          6           0        5.363962   -2.510178    0.371852
     14          1           0        3.878485   -0.954545   -1.371801
     15          1           0        4.984338    0.093911   -0.489219
     16          1           0        3.274855   -2.113021    0.760199
     17          1           0        4.379533   -1.065281    1.643107
     18          1           0        6.311788   -1.966369    0.304786
     19          1           0        5.200834   -3.020063   -0.583139
     20          1           0        5.464608   -3.272558    1.150637
     21          6           0       -3.703508   -0.665421   -0.065881
     22          6           0       -5.222673   -0.772179   -0.202735
     23          6           0       -5.667267   -2.085004   -0.848198
     24          1           0       -3.244609   -0.761019   -1.059470
     25          1           0       -3.335755   -1.511533    0.530984
     26          1           0       -5.587608    0.074638   -0.797999
     27          1           0       -5.678019   -0.676125    0.791271
     28          1           0       -5.331094   -2.940163   -0.252975
     29          1           0       -5.240170   -2.185135   -1.851274
     30          1           0       -6.756781   -2.140289   -0.936294
     31          6           0       -3.243570    0.641496    0.577664
     32          6           0       -1.724406    0.748254    0.714518
     33          6           0       -1.279813    2.061078    1.359981
     34          1           0       -3.611324    1.487607   -0.019201
     35          1           0       -3.702469    0.737093    1.571253
     36          1           0       -1.269061    0.652200   -0.279489
     37          1           0       -1.359471   -0.098563    1.309783
     38          1           0       -1.706909    2.161210    2.363058
     39          1           0       -1.615984    2.916238    0.764758
     40          1           0       -0.190298    2.116363    1.448077
 ---------------------------------------------------------------------

 SCF Done:  E(RHF) =  -470.731748332     A.U. after   11 cycles
 E2 =    -0.1583929526D+01 EUMP2 =    -0.47231567785795D+03

 The electronic state is 1-A.
 Alpha  occ. eigenvalues --  -11.21613 -11.21608 -11.21597 -11.21570 -11.21412
 Alpha  occ. eigenvalues --  -11.21400 -11.21352 -11.21341 -11.21079 -11.21068
 Alpha  occ. eigenvalues --  -11.20960 -11.20915  -1.08454  -1.08403  -1.03596
 Alpha  occ. eigenvalues --   -1.03447  -0.96076  -0.95855  -0.87097  -0.86865
 Alpha  occ. eigenvalues --   -0.79618  -0.79558  -0.78287  -0.78206  -0.65138
 Alpha  occ. eigenvalues --   -0.64998  -0.61128  -0.60762  -0.59567  -0.59191
 Alpha  occ. eigenvalues --   -0.57839  -0.57299  -0.55412  -0.55086  -0.52861
 Alpha  occ. eigenvalues --   -0.52652  -0.52456  -0.52053  -0.49906  -0.49898
 Alpha  occ. eigenvalues --   -0.47968  -0.47767  -0.46753  -0.46501  -0.45872
 Alpha  occ. eigenvalues --   -0.45742  -0.45725  -0.45567  -0.43771  -0.43740
 Alpha virt. eigenvalues --    0.21436   0.23081   0.23495   0.25092   0.25905
 Alpha virt. eigenvalues --    0.26572   0.26848   0.27564   0.28028   0.29065
 Alpha virt. eigenvalues --    0.29855   0.31323   0.31539   0.31887   0.32470

 Mulliken charges:
               1
     1  C   -0.300360
     2  C   -0.299181
     3  C   -0.483505
     4  H    0.151343
     5  H    0.148948
     6  H    0.151305
     7  H    0.151581
     8  H    0.155147
     9  H    0.166157
    10  H    0.159461
    11  C   -0.298084
    12  C   -0.299678
    13  C   -0.475708
    14  H    0.149564
    15  H    0.149725
    16  H    0.152021
    17  H    0.151861
    18  H    0.155173
    19  H    0.155192
    20  H    0.160219
    21  C   -0.298403
    22  C   -0.299648
    23  C   -0.475711
    24  H    0.149365
    25  H    0.149433
    26  H    0.152007
    27  H    0.152038
    28  H    0.155155
    29  H    0.155106
    30  H    0.160312
    31  C   -0.297681
    32  C   -0.304601
    33  C   -0.480290
    34  H    0.149721
    35  H    0.150028
    36  H    0.152889
    37  H    0.152191
    38  H    0.154719
    39  H    0.155253
    40  H    0.166936
 Sum of Mulliken charges =  -0.00000

 Dipole moment (field-independent basis, Debye):
    X=             -0.0063    Y=              0.0072    Z=              0.0054  Tot=              0.0109
 Quadrupole moment (field-independent basis, Debye-Ang):
   XX=            -85.3435   YY=            -85.6450   ZZ=            -83.9187
   XY=              0.5823   XZ=              0.1850   YZ=             -0.5419

 Normal termination of Gaussian 16 at Wed May  5 16:47:41 2021.
