 Gaussian 16, Revision A.03,
 Gaussian 16:  EM64L-G16RevA.03 25-Dec-2016

 -------------
 #p 6-31g* mp2
 -------------

 ------------------------------------------------------
 Input file generated by CHIRIPA (05-May-2021 14:57:25)
 ------------------------------------------------------
 Symbolic Z-matrix:
 Charge =  0 Multiplicity = 1

                         Standard orientation:
 ---------------------------------------------------------------------
 Center     Atomic      Atomic             Coordinates (Angstroms)
 Number     Number       Type             X           Y           Z
 ---------------------------------------------------------------------
      1          6           0       -3.188290    2.731013   -0.162090
      2          6           0       -4.064776    1.994737    0.641770
      3          6           0       -3.950092    0.604103    0.728553
      4          6           0       -2.942892   -0.020621   -0.005312
      5          6           0       -2.054356    0.685224   -0.814989
      6          6           0       -2.187642    2.075063   -0.886627
      7          1           0       -3.284605    3.810982   -0.223623
      8          1           0       -4.842839    2.501491    1.205564
      9          1           0       -4.615163    0.009640    1.343136
     10          1           0       -1.288713    0.151985   -1.365320
     11          1           0       -1.505539    2.644300   -1.511727
     12          7           0       -2.811634   -1.492402    0.078544
     13          8           0       -1.915874   -2.019076   -0.577859
     14          8           0       -3.607000   -2.091442    0.799086
     15          6           0        4.760341    1.461298    0.573799
     16          6           0        4.170322    0.705847    1.592470
     17          6           0        3.174377   -0.229672    1.296757
     18          6           0        2.790912   -0.384676   -0.034490
     19          6           0        3.359777    0.352952   -1.071595
     20          6           0        4.353903    1.282755   -0.752644
     21          1           0        5.533309    2.185811    0.812542
     22          1           0        4.483980    0.842390    2.623498
     23          1           0        2.700850   -0.827793    2.065810
     24          1           0        3.026172    0.194537   -2.089942
     25          1           0        4.810365    1.868056   -1.545809
     26          7           0        1.737513   -1.372042   -0.359848
     27          8           0        1.417353   -1.489772   -1.540643
     28          8           0        1.251963   -2.009513    0.572090
 ---------------------------------------------------------------------

 SCF Done:  E(RHF) =  -868.335717570     A.U. after   16 cycles
 E2 =    -0.2601520055D+01 EUMP2 =    -0.87093723762526D+03

 The electronic state is 1-A.
 Alpha  occ. eigenvalues --  -20.60509 -20.60448 -20.59605 -20.59438 -15.85528
 Alpha  occ. eigenvalues --  -15.84570 -11.31167 -11.30374 -11.27785 -11.27732
 Alpha  occ. eigenvalues --  -11.27536 -11.27032 -11.26922 -11.26872 -11.26840
 Alpha  occ. eigenvalues --  -11.26802 -11.26146 -11.26128  -1.59526  -1.58597
 Alpha  occ. eigenvalues --   -1.39083  -1.38131  -1.19358  -1.18602  -1.08697
 Alpha  occ. eigenvalues --   -1.07928  -1.04796  -1.04068  -0.95484  -0.94678
 Alpha  occ. eigenvalues --   -0.86181  -0.85445  -0.82315  -0.81504  -0.77326
 Alpha  occ. eigenvalues --   -0.76466  -0.71715  -0.70991  -0.70697  -0.70452
 Alpha  occ. eigenvalues --   -0.69921  -0.69703  -0.65000  -0.64790  -0.64239
 Alpha  occ. eigenvalues --   -0.64082  -0.62138  -0.61391  -0.55275  -0.54578
 Alpha  occ. eigenvalues --   -0.53118  -0.52885  -0.52387  -0.52162  -0.48498
 Alpha  occ. eigenvalues --   -0.48453  -0.47601  -0.47486  -0.44445  -0.43386
 Alpha  occ. eigenvalues --   -0.37354  -0.36626  -0.36417  -0.35700
 Alpha virt. eigenvalues --    0.05168   0.06070   0.11231   0.11942   0.16600
 Alpha virt. eigenvalues --    0.17471   0.21356   0.22043   0.27261   0.27833
 Alpha virt. eigenvalues --    0.28274   0.29004   0.30859   0.31577   0.32483

 Mulliken charges:
               1
     1  C   -0.172304
     2  C   -0.219108
     3  C   -0.171756
     4  C    0.159105
     5  C   -0.178767
     6  C   -0.219725
     7  H    0.221378
     8  H    0.220202
     9  H    0.274271
    10  H    0.287011
    11  H    0.219043
    12  N    0.486074
    13  O   -0.440645
    14  O   -0.468438
    15  C   -0.171779
    16  C   -0.218478
    17  C   -0.171319
    18  C    0.158101
    19  C   -0.174132
    20  C   -0.218716
    21  H    0.224945
    22  H    0.223593
    23  H    0.277512
    24  H    0.273796
    25  H    0.222235
    26  N    0.485967
    27  O   -0.460651
    28  O   -0.447414
 Sum of Mulliken charges =  -0.00000

 Dipole moment (field-independent basis, Debye):
    X=              3.4373    Y=              8.2599    Z=              0.8483  Tot=              8.9867
 Quadrupole moment (field-independent basis, Debye-Ang):
   XX=            -80.7193   YY=           -108.8682   ZZ=            -98.8288
   XY=             -6.4255   XZ=              1.1371   YZ=             -1.9039

 Normal termination of Gaussian 16 at Thu May  6 05:08:41 2021.
