 Gaussian 16, Revision A.03,
 Gaussian 16:  EM64L-G16RevA.03 25-Dec-2016

 -------------
 #p 6-31g* mp2
 -------------

 ------------------------------------------------------
 Input file generated by CHIRIPA (05-May-2021 14:53:12)
 ------------------------------------------------------
 Symbolic Z-matrix:
 Charge =  0 Multiplicity = 1

                         Standard orientation:
 ---------------------------------------------------------------------
 Center     Atomic      Atomic             Coordinates (Angstroms)
 Number     Number       Type             X           Y           Z
 ---------------------------------------------------------------------
      1          6           0        2.971127    0.922091    0.153047
      2          6           0        1.860179    1.903367   -0.222287
      3          6           0        2.152435    3.331657    0.238546
      4          1           0        3.111180    0.935930    1.242606
      5          1           0        3.917528    1.264283   -0.288115
      6          1           0        0.915887    1.558679    0.218301
      7          1           0        1.722624    1.887048   -1.311061
      8          1           0        3.080199    3.699438   -0.211558
      9          1           0        2.268878    3.369203    1.326494
     10          1           0        1.345434    4.016462   -0.040113
     11          6           0        2.693457   -0.509892   -0.300884
     12          6           0        3.804405   -1.491168    0.074451
     13          6           0        3.512149   -2.919458   -0.386382
     14          1           0        1.747056   -0.852085    0.140279
     15          1           0        2.553404   -0.523732   -1.390443
     16          1           0        3.941960   -1.474849    1.163224
     17          1           0        4.748697   -1.146480   -0.366138
     18          1           0        3.395706   -2.957004   -1.474331
     19          1           0        2.584385   -3.287239    0.063721
     20          1           0        4.319151   -3.604263   -0.107724
     21          6           0       -2.330203   -2.667800    0.318811
     22          6           0       -2.644002   -2.076447   -0.909339
     23          6           0       -2.582343   -0.688507   -1.065442
     24          6           0       -2.201371    0.081332    0.032510
     25          6           0       -1.882696   -0.478190    1.268905
     26          6           0       -1.951219   -1.868193    1.402103
     27          1           0       -2.380766   -3.746787    0.431180
     28          1           0       -2.938638   -2.694950   -1.752363
     29          1           0       -2.819956   -0.204532   -2.004977
     30          1           0       -1.592283    0.164512    2.091105
     31          1           0       -1.706960   -2.324702    2.357081
     32          7           0       -2.132463    1.551774   -0.120625
     33          8           0       -1.794043    2.207928    0.862010
     34          8           0       -2.418177    2.020310   -1.220388
 ---------------------------------------------------------------------

 SCF Done:  E(RHF) =  -669.536237905     A.U. after   15 cycles
 E2 =    -0.2092525185D+01 EUMP2 =    -0.67162876308912D+03

 The electronic state is 1-A.
 Alpha  occ. eigenvalues --  -20.60926 -20.60917 -15.85937 -11.31283 -11.27861
 Alpha  occ. eigenvalues --  -11.27832 -11.27579 -11.26866 -11.26841 -11.21578
 Alpha  occ. eigenvalues --  -11.21215 -11.21195 -11.20993 -11.20880 -11.20176
 Alpha  occ. eigenvalues --   -1.59975  -1.39534  -1.19450  -1.08850  -1.08132
 Alpha  occ. eigenvalues --   -1.04849  -1.03161  -0.95691  -0.95617  -0.86643
 Alpha  occ. eigenvalues --   -0.86248  -0.82525  -0.79275  -0.77919  -0.77573
 Alpha  occ. eigenvalues --   -0.72170  -0.71293  -0.70556  -0.65108  -0.64852
 Alpha  occ. eigenvalues --   -0.64768  -0.62197  -0.60562  -0.59026  -0.57192
 Alpha  occ. eigenvalues --   -0.55350  -0.54930  -0.53174  -0.52940  -0.52284
 Alpha  occ. eigenvalues --   -0.52048  -0.49598  -0.48936  -0.48927  -0.47575
 Alpha  occ. eigenvalues --   -0.46361  -0.45572  -0.45426  -0.44668  -0.43413
 Alpha  occ. eigenvalues --   -0.37417  -0.36443
 Alpha virt. eigenvalues --    0.04942   0.11158   0.16410   0.21311   0.23041
 Alpha virt. eigenvalues --    0.24671   0.26618   0.27290   0.27548   0.28303
 Alpha virt. eigenvalues --    0.28349   0.30683   0.31621   0.31925   0.32629

 Mulliken charges:
               1
     1  C   -0.297906
     2  C   -0.303205
     3  C   -0.474547
     4  H    0.147415
     5  H    0.148584
     6  H    0.154318
     7  H    0.151570
     8  H    0.149754
     9  H    0.152928
    10  H    0.172284
    11  C   -0.298609
    12  C   -0.299010
    13  C   -0.474778
    14  H    0.146715
    15  H    0.149189
    16  H    0.150569
    17  H    0.152860
    18  H    0.155018
    19  H    0.151049
    20  H    0.159546
    21  C   -0.170473
    22  C   -0.218165
    23  C   -0.170288
    24  C    0.158538
    25  C   -0.172647
    26  C   -0.218901
    27  H    0.226150
    28  H    0.223953
    29  H    0.275878
    30  H    0.275862
    31  H    0.223881
    32  N    0.489191
    33  O   -0.458730
    34  O   -0.457993
 Sum of Mulliken charges =  -0.00000

 Dipole moment (field-independent basis, Debye):
    X=             -0.4352    Y=             -5.0719    Z=              0.5062  Tot=              5.1156
 Quadrupole moment (field-independent basis, Debye-Ang):
   XX=            -94.2228   YY=            -97.0540   ZZ=            -89.4877
   XY=             11.7560   XZ=             -0.0364   YZ=             -0.1416

 Normal termination of Gaussian 16 at Thu May  6 00:58:54 2021.
