 Gaussian 16, Revision A.03,
 Gaussian 16:  EM64L-G16RevA.03 25-Dec-2016

 -------------
 #p 6-31g* mp2
 -------------

 ------------------------------------------------------
 Input file generated by CHIRIPA (05-May-2021 14:55:19)
 ------------------------------------------------------
 Symbolic Z-matrix:
 Charge =  0 Multiplicity = 1

                         Standard orientation:
 ---------------------------------------------------------------------
 Center     Atomic      Atomic             Coordinates (Angstroms)
 Number     Number       Type             X           Y           Z
 ---------------------------------------------------------------------
      1          6           0       -0.386106   -0.202049    1.264023
      2          6           0       -1.083765   -1.361951    0.911290
      3          6           0       -2.349875   -1.278141    0.324358
      4          6           0       -2.890806   -0.012478    0.103493
      5          6           0       -2.220574    1.161517    0.443810
      6          6           0       -0.955733    1.053769    1.029570
      7          1           0        0.596946   -0.276452    1.719511
      8          1           0       -0.643846   -2.338573    1.092192
      9          1           0       -2.911917   -2.159902    0.041472
     10          1           0       -2.685032    2.120969    0.251075
     11          1           0       -0.416221    1.956262    1.302479
     12          7           0       -4.230508    0.088919   -0.517246
     13          8           0       -4.685181    1.215867   -0.701357
     14          8           0       -4.800526   -0.960475   -0.807916
     15          6           0        3.429233    0.698311    0.119257
     16          6           0        3.375258    1.926451   -0.789998
     17          6           0        3.399269    3.241151   -0.009753
     18          1           0        2.580458    0.728322    0.816126
     19          1           0        4.339421    0.744901    0.733083
     20          1           0        2.466142    1.876859   -1.402912
     21          1           0        4.224153    1.893415   -1.484910
     22          1           0        4.312497    3.316974    0.589301
     23          1           0        2.544498    3.300325    0.671764
     24          1           0        3.359898    4.106089   -0.679227
     25          6           0        3.405984   -0.623587   -0.646101
     26          6           0        3.459959   -1.851726    0.263154
     27          6           0        3.435949   -3.166427   -0.517091
     28          1           0        2.495796   -0.670176   -1.259926
     29          1           0        4.254759   -0.653598   -1.342969
     30          1           0        2.611064   -1.818689    0.958066
     31          1           0        4.369075   -1.802134    0.876069
     32          1           0        4.290720   -3.225599   -1.198607
     33          1           0        2.522720   -3.242249   -1.116145
     34          1           0        3.475319   -4.031363    0.152384
 ---------------------------------------------------------------------

 SCF Done:  E(RHF) =  -669.535233064     A.U. after   15 cycles
 E2 =    -0.2092660342D+01 EUMP2 =    -0.67162789340675D+03

 The electronic state is 1-A.
 Alpha  occ. eigenvalues --  -20.60787 -20.60782 -15.85841 -11.31221 -11.27791
 Alpha  occ. eigenvalues --  -11.27788 -11.27507 -11.26810 -11.26797 -11.22639
 Alpha  occ. eigenvalues --  -11.22431 -11.22372 -11.22241 -11.21910 -11.21907
 Alpha  occ. eigenvalues --   -1.59862  -1.39415  -1.19395  -1.09367  -1.08782
 Alpha  occ. eigenvalues --   -1.04799  -1.04422  -0.96861  -0.95620  -0.87872
 Alpha  occ. eigenvalues --   -0.86194  -0.82454  -0.80487  -0.79193  -0.77494
 Alpha  occ. eigenvalues --   -0.72059  -0.71186  -0.70548  -0.66011  -0.65047
 Alpha  occ. eigenvalues --   -0.64768  -0.62174  -0.61797  -0.60223  -0.58475
 Alpha  occ. eigenvalues --   -0.56208  -0.55267  -0.53533  -0.53280  -0.53117
 Alpha  occ. eigenvalues --   -0.52886  -0.50808  -0.48822  -0.48817  -0.48795
 Alpha  occ. eigenvalues --   -0.47537  -0.46718  -0.46604  -0.44818  -0.44679
 Alpha  occ. eigenvalues --   -0.37356  -0.36403
 Alpha virt. eigenvalues --    0.05010   0.11176   0.16379   0.18608   0.21925
 Alpha virt. eigenvalues --    0.23169   0.25066   0.26095   0.26445   0.27187
 Alpha virt. eigenvalues --    0.29889   0.30482   0.30923   0.31247   0.31687

 Mulliken charges:
               1
     1  C   -0.173442
     2  C   -0.220538
     3  C   -0.170902
     4  C    0.158479
     5  C   -0.170927
     6  C   -0.220871
     7  H    0.231290
     8  H    0.224161
     9  H    0.275768
    10  H    0.275877
    11  H    0.224434
    12  N    0.488048
    13  O   -0.460295
    14  O   -0.460311
    15  C   -0.299095
    16  C   -0.301370
    17  C   -0.475115
    18  H    0.138530
    19  H    0.152214
    20  H    0.155319
    21  H    0.155858
    22  H    0.157560
    23  H    0.147692
    24  H    0.164508
    25  C   -0.300487
    26  C   -0.300005
    27  C   -0.476989
    28  H    0.154153
    29  H    0.154114
    30  H    0.140163
    31  H    0.155218
    32  H    0.159511
    33  H    0.156299
    34  H    0.161151
 Sum of Mulliken charges =  -0.00000

 Dipole moment (field-independent basis, Debye):
    X=              4.8901    Y=             -0.3604    Z=              2.0305  Tot=              5.3071
 Quadrupole moment (field-independent basis, Debye-Ang):
   XX=           -120.8744   YY=            -90.5369   ZZ=            -95.2777
   XY=              1.2898   XZ=             -6.3616   YZ=             -0.2349

 Normal termination of Gaussian 16 at Thu May  6 14:04:39 2021.
