 Gaussian 16, Revision A.03,
 Gaussian 16:  EM64L-G16RevA.03 25-Dec-2016

 -------------
 #p 6-31g* mp2
 -------------

 ------------------------------------------------------
 Input file generated by CHIRIPA (05-May-2021 14:55:23)
 ------------------------------------------------------
 Symbolic Z-matrix:
 Charge =  0 Multiplicity = 1

                         Standard orientation:
 ---------------------------------------------------------------------
 Center     Atomic      Atomic             Coordinates (Angstroms)
 Number     Number       Type             X           Y           Z
 ---------------------------------------------------------------------
      1          6           0        1.849504   -2.453579    0.601785
      2          6           0        3.167339   -2.017253    0.773395
      3          6           0        3.533604   -0.712397    0.430251
      4          6           0        2.552074    0.133344   -0.084154
      5          6           0        1.230812   -0.271838   -0.266869
      6          6           0        0.887143   -1.581018    0.083115
      7          1           0        1.573757   -3.468902    0.871004
      8          1           0        3.916821   -2.692712    1.175983
      9          1           0        4.546531   -0.348542    0.552751
     10          1           0        0.505820    0.424506   -0.670488
     11          1           0       -0.137070   -1.917142   -0.051246
     12          7           0        2.927862    1.517025   -0.451046
     13          8           0        2.044451    2.242694   -0.902297
     14          8           0        4.098699    1.849686   -0.280418
     15          6           0       -2.822867   -0.549188   -0.003082
     16          6           0       -3.698007   -1.689949   -0.523449
     17          6           0       -2.954697   -3.024699   -0.584497
     18          1           0       -1.939536   -0.449399   -0.648615
     19          1           0       -2.450901   -0.808900    0.997711
     20          1           0       -4.069335   -1.427561   -1.522390
     21          1           0       -4.579454   -1.786909    0.123285
     22          1           0       -2.597959   -3.312800    0.409654
     23          1           0       -2.084941   -2.951411   -1.245372
     24          1           0       -3.598925   -3.826212   -0.959209
     25          6           0       -3.551891    0.791629    0.063719
     26          6           0       -2.676751    1.932390    0.584086
     27          6           0       -3.420060    3.267141    0.645134
     28          1           0       -3.923856    1.051341   -0.937075
     29          1           0       -4.435222    0.691839    0.709251
     30          1           0       -1.795304    2.029349   -0.062649
     31          1           0       -2.305423    1.670001    1.583027
     32          1           0       -4.289816    3.193852    1.306008
     33          1           0       -3.776798    3.555242   -0.349018
     34          1           0       -2.775833    4.068652    1.019845
 ---------------------------------------------------------------------

 SCF Done:  E(RHF) =  -669.534741179     A.U. after   15 cycles
 E2 =    -0.2093494411D+01 EUMP2 =    -0.67162823558977D+03

 The electronic state is 1-A.
 Alpha  occ. eigenvalues --  -20.60694 -20.60689 -15.85742 -11.31062 -11.27628
 Alpha  occ. eigenvalues --  -11.27590 -11.27338 -11.26643 -11.26496 -11.22490
 Alpha  occ. eigenvalues --  -11.22350 -11.22199 -11.21927 -11.21857 -11.21144
 Alpha  occ. eigenvalues --   -1.59768  -1.39323  -1.19221  -1.09149  -1.08623
 Alpha  occ. eigenvalues --   -1.04618  -1.04143  -0.96632  -0.95471  -0.87646
 Alpha  occ. eigenvalues --   -0.86020  -0.82331  -0.80271  -0.78973  -0.77312
 Alpha  occ. eigenvalues --   -0.71963  -0.71088  -0.70343  -0.65782  -0.64867
 Alpha  occ. eigenvalues --   -0.64645  -0.62000  -0.61513  -0.60011  -0.58224
 Alpha  occ. eigenvalues --   -0.55939  -0.55126  -0.53270  -0.53091  -0.52936
 Alpha  occ. eigenvalues --   -0.52720  -0.50575  -0.48747  -0.48720  -0.48474
 Alpha  occ. eigenvalues --   -0.47299  -0.46402  -0.46315  -0.44737  -0.44409
 Alpha  occ. eigenvalues --   -0.37205  -0.36206
 Alpha virt. eigenvalues --    0.05155   0.11390   0.16629   0.19793   0.22384
 Alpha virt. eigenvalues --    0.23090   0.24610   0.26248   0.26613   0.28936
 Alpha virt. eigenvalues --    0.29761   0.30322   0.31241   0.31376   0.32228

 Mulliken charges:
               1
     1  C   -0.173790
     2  C   -0.218590
     3  C   -0.171258
     4  C    0.159054
     5  C   -0.179253
     6  C   -0.228721
     7  H    0.225481
     8  H    0.222727
     9  H    0.274940
    10  H    0.279450
    11  H    0.240782
    12  N    0.488378
    13  O   -0.461774
    14  O   -0.460744
    15  C   -0.307084
    16  C   -0.297972
    17  C   -0.484002
    18  H    0.142961
    19  H    0.150737
    20  H    0.156631
    21  H    0.156572
    22  H    0.152622
    23  H    0.152102
    24  H    0.167773
    25  C   -0.298088
    26  C   -0.304639
    27  C   -0.476170
    28  H    0.152567
    29  H    0.152020
    30  H    0.157654
    31  H    0.152611
    32  H    0.154279
    33  H    0.156729
    34  H    0.166012
 Sum of Mulliken charges =  -0.00000

 Dipole moment (field-independent basis, Debye):
    X=             -1.6086    Y=             -4.7801    Z=              1.3052  Tot=              5.2097
 Quadrupole moment (field-independent basis, Debye-Ang):
   XX=            -96.4210   YY=            -97.1111   ZZ=            -94.4578
   XY=            -13.2477   XZ=              4.8479   YZ=              0.0448

 Normal termination of Gaussian 16 at Thu May  6 07:55:08 2021.
