 Gaussian 16, Revision A.03,
 Gaussian 16:  EM64L-G16RevA.03 25-Dec-2016

 -------------
 #p 6-31g* mp2
 -------------

 ------------------------------------------------------
 Input file generated by CHIRIPA (05-May-2021 14:57:26)
 ------------------------------------------------------
 Symbolic Z-matrix:
 Charge =  0 Multiplicity = 1

                         Standard orientation:
 ---------------------------------------------------------------------
 Center     Atomic      Atomic             Coordinates (Angstroms)
 Number     Number       Type             X           Y           Z
 ---------------------------------------------------------------------
      1          6           0        3.573919    2.498880    0.316453
      2          6           0        4.849150    1.940047    0.182244
      3          6           0        5.003564    0.568036   -0.037510
      4          6           0        3.855933   -0.219206   -0.118021
      5          6           0        2.571932    0.307900    0.011561
      6          6           0        2.441376    1.682462    0.230834
      7          1           0        3.463233    3.565682    0.486977
      8          1           0        5.730478    2.571666    0.248294
      9          1           0        5.978931    0.109222   -0.145057
     10          1           0        1.712142   -0.347240   -0.058953
     11          1           0        1.449771    2.113715    0.334680
     12          7           0        4.006775   -1.673042   -0.350411
     13          8           0        2.979870   -2.345067   -0.417397
     14          8           0        5.149053   -2.113007   -0.461171
     15          6           0       -6.278387    0.053944   -0.529416
     16          6           0       -5.422074    1.078791   -0.945273
     17          6           0       -4.064297    1.047956   -0.613556
     18          6           0       -3.594475   -0.027592    0.138610
     19          6           0       -4.422475   -1.063713    0.567747
     20          6           0       -5.776738   -1.012158    0.224439
     21          1           0       -7.331776    0.085945   -0.791603
     22          1           0       -5.808889    1.907977   -1.530827
     23          1           0       -3.379165    1.828088   -0.922433
     24          1           0       -4.007659   -1.877261    1.150401
     25          1           0       -6.439433   -1.809460    0.548770
     26          7           0       -2.158916   -0.071204    0.495920
     27          8           0       -1.769672   -1.029759    1.159469
     28          8           0       -1.450153    0.853995    0.105664
 ---------------------------------------------------------------------

 SCF Done:  E(RHF) =  -868.340714388     A.U. after   16 cycles
 E2 =    -0.2598673445D+01 EUMP2 =    -0.87093938783336D+03

 The electronic state is 1-A.
 Alpha  occ. eigenvalues --  -20.61588 -20.61535 -20.59690 -20.59662 -15.86564
 Alpha  occ. eigenvalues --  -15.84721 -11.31655 -11.29915 -11.28213 -11.28162
 Alpha  occ. eigenvalues --  -11.27886 -11.27156 -11.27123 -11.26572 -11.26267
 Alpha  occ. eigenvalues --  -11.26252 -11.25599 -11.25267  -1.60605  -1.58759
 Alpha  occ. eigenvalues --   -1.40166  -1.38314  -1.19800  -1.18085  -1.09249
 Alpha  occ. eigenvalues --   -1.07537  -1.05162  -1.03421  -0.96130  -0.94387
 Alpha  occ. eigenvalues --   -0.86573  -0.84853  -0.82974  -0.81191  -0.78049
 Alpha  occ. eigenvalues --   -0.76242  -0.72799  -0.71891  -0.70947  -0.70908
 Alpha  occ. eigenvalues --   -0.70081  -0.69218  -0.65459  -0.65164  -0.63726
 Alpha  occ. eigenvalues --   -0.63408  -0.62512  -0.60731  -0.55677  -0.54015
 Alpha  occ. eigenvalues --   -0.53504  -0.53251  -0.51827  -0.51480  -0.49579
 Alpha  occ. eigenvalues --   -0.49521  -0.47710  -0.47687  -0.45624  -0.43755
 Alpha  occ. eigenvalues --   -0.37763  -0.36750  -0.36128  -0.35030
 Alpha virt. eigenvalues --    0.04467   0.06230   0.10909   0.12598   0.16016
 Alpha virt. eigenvalues --    0.17742   0.21050   0.22761   0.26995   0.27846
 Alpha virt. eigenvalues --    0.28817   0.29578   0.30694   0.32019   0.32327

 Mulliken charges:
               1
     1  C   -0.172387
     2  C   -0.219415
     3  C   -0.173189
     4  C    0.157221
     5  C   -0.173633
     6  C   -0.224771
     7  H    0.220611
     8  H    0.217958
     9  H    0.271099
    10  H    0.289416
    11  H    0.239550
    12  N    0.487746
    13  O   -0.458379
    14  O   -0.466082
    15  C   -0.169728
    16  C   -0.218516
    17  C   -0.170328
    18  C    0.158045
    19  C   -0.169598
    20  C   -0.218583
    21  H    0.227427
    22  H    0.224406
    23  H    0.273616
    24  H    0.278168
    25  H    0.225755
    26  N    0.491724
    27  O   -0.453285
    28  O   -0.474846
 Sum of Mulliken charges =  -0.00000

 Dipole moment (field-independent basis, Debye):
    X=             -6.2904    Y=              5.1339    Z=             -0.3804  Tot=              8.1284
 Quadrupole moment (field-independent basis, Debye-Ang):
   XX=            -69.1102   YY=           -104.4257   ZZ=           -105.7129
   XY=             20.9566   XZ=              6.6952   YZ=             -3.3308

 Normal termination of Gaussian 16 at Fri May  7 02:01:07 2021.
