 Gaussian 16, Revision A.03,
 Gaussian 16:  EM64L-G16RevA.03 25-Dec-2016

 -------------
 #p 6-31g* mp2
 -------------

 ------------------------------------------------------
 Input file generated by CHIRIPA (05-May-2021 14:51:11)
 ------------------------------------------------------
 Symbolic Z-matrix:
 Charge =  0 Multiplicity = 1

                         Standard orientation:
 ---------------------------------------------------------------------
 Center     Atomic      Atomic             Coordinates (Angstroms)
 Number     Number       Type             X           Y           Z
 ---------------------------------------------------------------------
      1          6           0       -2.832635   -0.317678   -0.358861
      2          6           0       -3.550933   -1.647143   -0.125285
      3          6           0       -2.753092   -2.847683   -0.635135
      4          1           0       -2.634812   -0.198849   -1.432961
      5          1           0       -1.853047   -0.345897    0.138135
      6          1           0       -4.529452   -1.615907   -0.621410
      7          1           0       -3.747240   -1.762732    0.948363
      8          1           0       -1.782521   -2.906947   -0.132065
      9          1           0       -2.569177   -2.759288   -1.710757
     10          1           0       -3.284979   -3.787675   -0.458018
     11          6           0       -3.617727    0.891867    0.145479
     12          6           0       -2.899429    2.221331   -0.088098
     13          6           0       -3.697270    3.421872    0.421752
     14          1           0       -4.597315    0.920086   -0.351518
     15          1           0       -3.815551    0.773038    1.219578
     16          1           0       -2.703122    2.336921   -1.161746
     17          1           0       -1.920910    2.190096    0.408027
     18          1           0       -3.881185    3.333477    1.497374
     19          1           0       -4.667842    3.481136   -0.081318
     20          1           0       -3.165383    4.361864    0.244635
     21          6           0        2.657070   -0.635862    0.479576
     22          6           0        2.435612   -2.081195    0.032415
     23          6           0        1.295768   -2.765556    0.787529
     24          1           0        2.868268   -0.620541    1.557586
     25          1           0        1.727426   -0.068162    0.335098
     26          1           0        3.365806   -2.645661    0.176401
     27          1           0        2.225105   -2.093094   -1.044693
     28          1           0        0.354647   -2.227500    0.634592
     29          1           0        1.501831   -2.783207    1.862624
     30          1           0        1.154792   -3.797781    0.452123
     31          6           0        3.793292    0.061673   -0.266193
     32          6           0        4.014750    1.507006    0.180968
     33          6           0        5.154595    2.191367   -0.574146
     34          1           0        4.722936   -0.506027   -0.121714
     35          1           0        3.582094    0.046353   -1.344203
     36          1           0        4.225257    1.518906    1.258076
     37          1           0        3.084555    2.071473    0.036983
     38          1           0        4.948532    2.209018   -1.649241
     39          1           0        6.095714    1.653311   -0.421209
     40          1           0        5.295570    3.223593   -0.238740
 ---------------------------------------------------------------------

 SCF Done:  E(RHF) =  -470.733228605     A.U. after   11 cycles
 E2 =    -0.1582830821D+01 EUMP2 =    -0.47231605942580D+03

 The electronic state is 1-A.
 Alpha  occ. eigenvalues --  -11.21626 -11.21619 -11.21609 -11.21589 -11.21433
 Alpha  occ. eigenvalues --  -11.21421 -11.21372 -11.21361 -11.21102 -11.21086
 Alpha  occ. eigenvalues --  -11.21075 -11.20990  -1.08453  -1.08437  -1.03561
 Alpha  occ. eigenvalues --   -1.03516  -0.96024  -0.95955  -0.87056  -0.86959
 Alpha  occ. eigenvalues --   -0.79660  -0.79547  -0.78290  -0.78229  -0.65138
 Alpha  occ. eigenvalues --   -0.65019  -0.61075  -0.60817  -0.59368  -0.59346
 Alpha  occ. eigenvalues --   -0.57633  -0.57572  -0.55450  -0.55125  -0.52719
 Alpha  occ. eigenvalues --   -0.52662  -0.52469  -0.52343  -0.50115  -0.49762
 Alpha  occ. eigenvalues --   -0.48015  -0.47832  -0.46791  -0.46480  -0.45911
 Alpha  occ. eigenvalues --   -0.45775  -0.45760  -0.45509  -0.43799  -0.43788
 Alpha virt. eigenvalues --    0.20674   0.23206   0.23496   0.24780   0.25560
 Alpha virt. eigenvalues --    0.26828   0.27097   0.27201   0.28417   0.29115
 Alpha virt. eigenvalues --    0.30593   0.31532   0.31669   0.31851   0.31980

 Mulliken charges:
               1
     1  C   -0.300894
     2  C   -0.299273
     3  C   -0.482913
     4  H    0.149597
     5  H    0.150390
     6  H    0.151883
     7  H    0.151989
     8  H    0.163424
     9  H    0.154462
    10  H    0.160124
    11  C   -0.298213
    12  C   -0.299697
    13  C   -0.475709
    14  H    0.149838
    15  H    0.149943
    16  H    0.151795
    17  H    0.151692
    18  H    0.155346
    19  H    0.155255
    20  H    0.160274
    21  C   -0.299019
    22  C   -0.299246
    23  C   -0.482734
    24  H    0.149524
    25  H    0.149746
    26  H    0.152096
    27  H    0.152654
    28  H    0.160784
    29  H    0.155283
    30  H    0.161233
    31  C   -0.298313
    32  C   -0.299729
    33  C   -0.475718
    34  H    0.149594
    35  H    0.149905
    36  H    0.151850
    37  H    0.152064
    38  H    0.155261
    39  H    0.155179
    40  H    0.160275
 Sum of Mulliken charges =  -0.00000

 Dipole moment (field-independent basis, Debye):
    X=              0.0172    Y=             -0.0066    Z=              0.0038  Tot=              0.0188
 Quadrupole moment (field-independent basis, Debye-Ang):
   XX=            -84.9824   YY=            -85.9837   ZZ=            -83.7475
   XY=             -0.3771   XZ=              1.3623   YZ=             -0.3468

 Normal termination of Gaussian 16 at Wed May  5 19:49:20 2021.
