 Gaussian 16, Revision A.03,
 Gaussian 16:  EM64L-G16RevA.03 25-Dec-2016

 -------------
 #p 6-31g* mp2
 -------------

 ------------------------------------------------------
 Input file generated by CHIRIPA (05-May-2021 14:53:13)
 ------------------------------------------------------
 Symbolic Z-matrix:
 Charge =  0 Multiplicity = 1

                         Standard orientation:
 ---------------------------------------------------------------------
 Center     Atomic      Atomic             Coordinates (Angstroms)
 Number     Number       Type             X           Y           Z
 ---------------------------------------------------------------------
      1          6           0        3.637078   -0.092323   -0.383041
      2          6           0        4.032771    0.735036    0.840434
      3          6           0        5.360957    1.469005    0.653335
      4          1           0        4.432069   -0.819177   -0.598952
      5          1           0        3.571687    0.568619   -1.258412
      6          1           0        4.096047    0.072962    1.713515
      7          1           0        3.236659    1.459876    1.053573
      8          1           0        5.306645    2.152159   -0.200452
      9          1           0        6.170916    0.757364    0.463240
     10          1           0        5.624610    2.054204    1.539839
     11          6           0        2.311504   -0.831968   -0.211271
     12          6           0        1.915811   -1.659327   -1.434745
     13          6           0        0.587625   -2.393296   -1.247647
     14          1           0        2.376895   -1.492910    0.664101
     15          1           0        1.516513   -0.105114    0.004641
     16          1           0        2.711923   -2.384167   -1.647885
     17          1           0        1.852535   -0.997253   -2.307826
     18          1           0       -0.222333   -1.681655   -1.057551
     19          1           0        0.641937   -3.076450   -0.393860
     20          1           0        0.323972   -2.978495   -2.134151
     21          6           0       -2.323852   -1.726984    1.648497
     22          6           0       -2.739440   -1.786164    0.314215
     23          6           0       -2.743454   -0.635541   -0.479887
     24          6           0       -2.323647    0.562915    0.095226
     25          6           0       -1.903939    0.654075    1.421433
     26          6           0       -1.908162   -0.509201    2.196880
     27          1           0       -2.323933   -2.625731    2.258128
     28          1           0       -3.062792   -2.730537   -0.114325
     29          1           0       -3.060204   -0.652944   -1.515640
     30          1           0       -1.587105    1.609948    1.820609
     31          1           0       -1.584888   -0.460263    3.232808
     32          7           0       -2.323536    1.787725   -0.735580
     33          8           0       -1.949042    2.831346   -0.205253
     34          8           0       -2.697947    1.680919   -1.901362
 ---------------------------------------------------------------------

 SCF Done:  E(RHF) =  -669.534455198     A.U. after   15 cycles
 E2 =    -0.2093567232D+01 EUMP2 =    -0.67162802242947D+03

 The electronic state is 1-A.
 Alpha  occ. eigenvalues --  -20.60848 -20.60843 -15.85902 -11.31286 -11.27841
 Alpha  occ. eigenvalues --  -11.27790 -11.27541 -11.26853 -11.26810 -11.21598
 Alpha  occ. eigenvalues --  -11.21587 -11.21404 -11.21322 -11.21070 -11.21017
 Alpha  occ. eigenvalues --   -1.59925  -1.39477  -1.19453  -1.08831  -1.08419
 Alpha  occ. eigenvalues --   -1.04854  -1.03524  -0.95986  -0.95667  -0.87011
 Alpha  occ. eigenvalues --   -0.86234  -0.82496  -0.79603  -0.78239  -0.77546
 Alpha  occ. eigenvalues --   -0.72116  -0.71254  -0.70533  -0.65095  -0.65046
 Alpha  occ. eigenvalues --   -0.64830  -0.62184  -0.60942  -0.59360  -0.57629
 Alpha  occ. eigenvalues --   -0.55353  -0.55326  -0.53395  -0.52922  -0.52684
 Alpha  occ. eigenvalues --   -0.52227  -0.49897  -0.48877  -0.48872  -0.47879
 Alpha  occ. eigenvalues --   -0.46609  -0.45760  -0.45686  -0.44877  -0.43789
 Alpha  occ. eigenvalues --   -0.37414  -0.36334
 Alpha virt. eigenvalues --    0.04972   0.11137   0.16456   0.21319   0.22833
 Alpha virt. eigenvalues --    0.24286   0.26547   0.27091   0.27426   0.28242
 Alpha virt. eigenvalues --    0.28273   0.30867   0.31411   0.31844   0.31963

 Mulliken charges:
               1
     1  C   -0.298544
     2  C   -0.299829
     3  C   -0.475764
     4  H    0.148894
     5  H    0.152761
     6  H    0.149035
     7  H    0.153220
     8  H    0.157398
     9  H    0.154527
    10  H    0.159826
    11  C   -0.298020
    12  C   -0.299581
    13  C   -0.481994
    14  H    0.145590
    15  H    0.150252
    16  H    0.150675
    17  H    0.155286
    18  H    0.165142
    19  H    0.148583
    20  H    0.156503
    21  C   -0.169963
    22  C   -0.211999
    23  C   -0.179731
    24  C    0.162034
    25  C   -0.172093
    26  C   -0.216848
    27  H    0.225997
    28  H    0.224956
    29  H    0.276330
    30  H    0.275912
    31  H    0.224096
    32  N    0.487866
    33  O   -0.460339
    34  O   -0.460178
 Sum of Mulliken charges =  -0.00000

 Dipole moment (field-independent basis, Debye):
    X=             -0.1005    Y=             -4.2547    Z=              2.9473  Tot=              5.1768
 Quadrupole moment (field-independent basis, Debye-Ang):
   XX=            -95.4907   YY=            -98.6578   ZZ=            -91.2708
   XY=             10.5833   XZ=             -5.2884   YZ=              3.0755

 Normal termination of Gaussian 16 at Thu May  6 07:20:40 2021.
