 Gaussian 16, Revision A.03,
 Gaussian 16:  EM64L-G16RevA.03 25-Dec-2016

 -------------
 #p 6-31g* mp2
 -------------

 ------------------------------------------------------
 Input file generated by CHIRIPA (05-May-2021 14:57:22)
 ------------------------------------------------------
 Symbolic Z-matrix:
 Charge =  0 Multiplicity = 1

                         Standard orientation:
 ---------------------------------------------------------------------
 Center     Atomic      Atomic             Coordinates (Angstroms)
 Number     Number       Type             X           Y           Z
 ---------------------------------------------------------------------
      1          6           0        4.735951    1.732607   -0.131706
      2          6           0        3.709939    1.606985   -1.074064
      3          6           0        2.784943    0.562769   -0.981634
      4          6           0        2.916242   -0.341994    0.070724
      5          6           0        3.927472   -0.243570    1.025195
      6          6           0        4.841258    0.808558    0.913074
      7          1           0        5.450156    2.546852   -0.211156
      8          1           0        3.625716    2.323144   -1.886510
      9          1           0        1.980923    0.441924   -1.697431
     10          1           0        3.985721   -0.972959    1.823954
     11          1           0        5.637054    0.903645    1.646362
     12          7           0        1.942924   -1.451646    0.178998
     13          8           0        2.080303   -2.235668    1.115520
     14          8           0        1.061088   -1.516359   -0.674709
     15          6           0       -3.592533    2.536471    0.616410
     16          6           0       -3.997511    1.475713    1.433297
     17          6           0       -3.717103    0.154476    1.072390
     18          6           0       -3.026783   -0.070725   -0.117583
     19          6           0       -2.610036    0.964799   -0.952628
     20          6           0       -2.901306    2.278084   -0.571851
     21          1           0       -3.814580    3.559751    0.904489
     22          1           0       -4.534478    1.673398    2.356678
     23          1           0       -4.018925   -0.685553    1.686125
     24          1           0       -2.076351    0.736321   -1.867176
     25          1           0       -2.585569    3.099910   -1.208213
     26          7           0       -2.724177   -1.465250   -0.510177
     27          8           0       -2.114661   -1.637129   -1.563546
     28          8           0       -3.102241   -2.359993    0.242909
 ---------------------------------------------------------------------

 SCF Done:  E(RHF) =  -868.335490113     A.U. after   16 cycles
 E2 =    -0.2600830055D+01 EUMP2 =    -0.87093632016804D+03

 The electronic state is 1-A.
 Alpha  occ. eigenvalues --  -20.60289 -20.60253 -20.59709 -20.59616 -15.85328
 Alpha  occ. eigenvalues --  -15.84725 -11.30985 -11.30523 -11.27601 -11.27578
 Alpha  occ. eigenvalues --  -11.27384 -11.27165 -11.27133 -11.26994 -11.26680
 Alpha  occ. eigenvalues --  -11.26651 -11.26300 -11.26255  -1.59355  -1.58705
 Alpha  occ. eigenvalues --   -1.38899  -1.38256  -1.19187  -1.18741  -1.08528
 Alpha  occ. eigenvalues --   -1.08056  -1.04633  -1.04219  -0.95311  -0.94819
 Alpha  occ. eigenvalues --   -0.86016  -0.85593  -0.82139  -0.81660  -0.77146
 Alpha  occ. eigenvalues --   -0.76623  -0.71559  -0.70941  -0.70716  -0.70295
 Alpha  occ. eigenvalues --   -0.69969  -0.69858  -0.64828  -0.64639  -0.64390
 Alpha  occ. eigenvalues --   -0.64238  -0.61978  -0.61565  -0.55123  -0.54717
 Alpha  occ. eigenvalues --   -0.52947  -0.52730  -0.52515  -0.52325  -0.48321
 Alpha  occ. eigenvalues --   -0.48284  -0.47728  -0.47678  -0.44288  -0.43494
 Alpha  occ. eigenvalues --   -0.37183  -0.36743  -0.36252  -0.35844
 Alpha virt. eigenvalues --    0.05387   0.05946   0.11398   0.11808   0.16828
 Alpha virt. eigenvalues --    0.17348   0.21421   0.21884   0.27175   0.27705
 Alpha virt. eigenvalues --    0.28270   0.28944   0.30821   0.31467   0.32401

 Mulliken charges:
               1
     1  C   -0.171727
     2  C   -0.218696
     3  C   -0.172016
     4  C    0.158914
     5  C   -0.171293
     6  C   -0.218519
     7  H    0.224175
     8  H    0.221014
     9  H    0.274886
    10  H    0.276036
    11  H    0.222679
    12  N    0.486792
    13  O   -0.460559
    14  O   -0.452122
    15  C   -0.172387
    16  C   -0.218679
    17  C   -0.170990
    18  C    0.161943
    19  C   -0.170505
    20  C   -0.219244
    21  H    0.222120
    22  H    0.221312
    23  H    0.276122
    24  H    0.273931
    25  H    0.218326
    26  N    0.490824
    27  O   -0.450520
    28  O   -0.461817
 Sum of Mulliken charges =  -0.00000

 Dipole moment (field-independent basis, Debye):
    X=              2.3894    Y=              8.5004    Z=              0.9280  Tot=              8.8785
 Quadrupole moment (field-independent basis, Debye-Ang):
   XX=            -78.4532   YY=           -108.6242   ZZ=            -98.9548
   XY=             -4.1869   XZ=             -4.8314   YZ=             -3.2408

 Normal termination of Gaussian 16 at Fri May  7 01:44:28 2021.
