 Gaussian 16, Revision A.03,
 Gaussian 16:  EM64L-G16RevA.03 25-Dec-2016

 -------------
 #p 6-31g* mp2
 -------------

 ------------------------------------------------------
 Input file generated by CHIRIPA (05-May-2021 14:57:25)
 ------------------------------------------------------
 Symbolic Z-matrix:
 Charge =  0 Multiplicity = 1

                         Standard orientation:
 ---------------------------------------------------------------------
 Center     Atomic      Atomic             Coordinates (Angstroms)
 Number     Number       Type             X           Y           Z
 ---------------------------------------------------------------------
      1          6           0       -1.572719    1.925520   -1.005593
      2          6           0       -1.020108    0.642029   -0.944015
      3          6           0       -1.797185   -0.446824   -0.537693
      4          6           0       -3.129316   -0.215047   -0.198581
      5          6           0       -3.708745    1.051814   -0.249705
      6          6           0       -2.912911    2.125963   -0.658853
      7          1           0       -0.961782    2.765656   -1.322331
      8          1           0        0.020413    0.483396   -1.212710
      9          1           0       -1.394826   -1.450971   -0.480996
     10          1           0       -4.749043    1.178692    0.024336
     11          1           0       -3.344745    3.121637   -0.705729
     12          7           0       -3.961901   -1.359984    0.233070
     13          8           0       -5.132929   -1.129401    0.526600
     14          8           0       -3.427687   -2.466289    0.269695
     15          6           0        1.719299    1.412686    1.950191
     16          6           0        1.877383    1.873298    0.638945
     17          6           0        2.580687    1.113524   -0.300551
     18          6           0        3.115145   -0.107679    0.107260
     19          6           0        2.974632   -0.593698    1.406233
     20          6           0        2.267462    0.182827    2.328983
     21          1           0        1.171454    2.009403    2.673511
     22          1           0        1.452754    2.828040    0.341957
     23          1           0        2.718062    1.446200   -1.322253
     24          1           0        3.409318   -1.549466    1.672645
     25          1           0        2.146265   -0.177396    3.346625
     26          7           0        3.861748   -0.920884   -0.878477
     27          8           0        4.322986   -1.993360   -0.494171
     28          8           0        3.971561   -0.470400   -2.016741
 ---------------------------------------------------------------------

 SCF Done:  E(RHF) =  -868.335572154     A.U. after   16 cycles
 E2 =    -0.2603007221D+01 EUMP2 =    -0.87093857937508D+03

 The electronic state is 1-A.
 Alpha  occ. eigenvalues --  -20.61515 -20.61492 -20.61001 -20.60992 -15.86566
 Alpha  occ. eigenvalues --  -15.86049 -11.32087 -11.31475 -11.28661 -11.28546
 Alpha  occ. eigenvalues --  -11.28296 -11.28023 -11.27947 -11.27837 -11.27717
 Alpha  occ. eigenvalues --  -11.27567 -11.27130 -11.26945  -1.60584  -1.60073
 Alpha  occ. eigenvalues --   -1.40132  -1.39624  -1.20251  -1.19637  -1.09585
 Alpha  occ. eigenvalues --   -1.09051  -1.05686  -1.05017  -0.96403  -0.95876
 Alpha  occ. eigenvalues --   -0.87035  -0.86448  -0.83236  -0.82688  -0.78290
 Alpha  occ. eigenvalues --   -0.77711  -0.72768  -0.72267  -0.71924  -0.71398
 Alpha  occ. eigenvalues --   -0.71282  -0.70811  -0.65879  -0.65647  -0.65283
 Alpha  occ. eigenvalues --   -0.65071  -0.62999  -0.62386  -0.56079  -0.55640
 Alpha  occ. eigenvalues --   -0.54219  -0.53739  -0.53314  -0.52887  -0.49544
 Alpha  occ. eigenvalues --   -0.49522  -0.49029  -0.49019  -0.45502  -0.45016
 Alpha  occ. eigenvalues --   -0.38354  -0.37776  -0.37177  -0.36369
 Alpha virt. eigenvalues --    0.04228   0.04770   0.10021   0.11256   0.15698
 Alpha virt. eigenvalues --    0.16205   0.19501   0.21839   0.25351   0.26855
 Alpha virt. eigenvalues --    0.27782   0.28789   0.29792   0.31388   0.32472

 Mulliken charges:
               1
     1  C   -0.178805
     2  C   -0.213234
     3  C   -0.175281
     4  C    0.159095
     5  C   -0.172674
     6  C   -0.218333
     7  H    0.217893
     8  H    0.231562
     9  H    0.277918
    10  H    0.275749
    11  H    0.222690
    12  N    0.487717
    13  O   -0.460325
    14  O   -0.458832
    15  C   -0.168171
    16  C   -0.212618
    17  C   -0.191242
    18  C    0.160861
    19  C   -0.171109
    20  C   -0.216887
    21  H    0.229584
    22  H    0.220005
    23  H    0.274550
    24  H    0.279669
    25  H    0.228966
    26  N    0.487805
    27  O   -0.455703
    28  O   -0.460852
 Sum of Mulliken charges =  -0.00000

 Dipole moment (field-independent basis, Debye):
    X=              0.4651    Y=              6.7065    Z=              2.1958  Tot=              7.0721
 Quadrupole moment (field-independent basis, Debye-Ang):
   XX=           -137.1570   YY=           -103.7906   ZZ=           -101.6740
   XY=             -7.6108   XZ=             15.3030   YZ=             -2.7395

 Normal termination of Gaussian 16 at Thu May  6 22:53:18 2021.
