 Gaussian 16, Revision A.03,
 Gaussian 16:  EM64L-G16RevA.03 25-Dec-2016

 -------------
 #p 6-31g* mp2
 -------------

 ------------------------------------------------------
 Input file generated by CHIRIPA (05-May-2021 14:53:14)
 ------------------------------------------------------
 Symbolic Z-matrix:
 Charge =  0 Multiplicity = 1

                         Standard orientation:
 ---------------------------------------------------------------------
 Center     Atomic      Atomic             Coordinates (Angstroms)
 Number     Number       Type             X           Y           Z
 ---------------------------------------------------------------------
      1          6           0       -2.870453   -0.185843    0.033526
      2          6           0       -3.908510   -1.158504   -0.527145
      3          6           0       -3.655703   -2.604394   -0.099027
      4          1           0       -1.869766   -0.497598   -0.295684
      5          1           0       -2.872777   -0.250172    1.130454
      6          1           0       -3.905198   -1.091355   -1.622634
      7          1           0       -4.906860   -0.844287   -0.196720
      8          1           0       -3.679513   -2.692905    0.991936
      9          1           0       -2.672160   -2.941377   -0.442080
     10          1           0       -4.409420   -3.282686   -0.510962
     11          6           0       -3.109742    1.263542   -0.385702
     12          6           0       -2.071684    2.236203    0.174969
     13          6           0       -2.324491    3.682093   -0.253150
     14          1           0       -3.107417    1.327871   -1.482631
     15          1           0       -4.110429    1.575297   -0.056492
     16          1           0       -1.073334    1.921986   -0.155456
     17          1           0       -2.074996    2.169054    1.270458
     18          1           0       -3.308035    4.019076    0.089903
     19          1           0       -2.300682    3.770604   -1.344113
     20          1           0       -1.570775    4.360385    0.158785
     21          6           0        4.415184    0.831631   -0.550870
     22          6           0        3.947114   -0.230458   -1.331510
     23          6           0        2.796155   -0.931590   -0.959684
     24          6           0        2.135007   -0.542073    0.204125
     25          6           0        2.576453    0.511706    1.002851
     26          6           0        3.729568    1.198677    0.611769
     27          1           0        5.310114    1.370787   -0.847193
     28          1           0        4.477542   -0.517714   -2.234933
     29          1           0        2.411817   -1.757712   -1.545538
     30          1           0        2.026305    0.774842    1.898125
     31          1           0        4.090774    2.023101    1.219963
     32          7           0        0.915397   -1.276835    0.607953
     33          8           0        0.350983   -0.914072    1.637747
     34          8           0        0.546973   -2.201590   -0.112968
 ---------------------------------------------------------------------

 SCF Done:  E(RHF) =  -669.536268240     A.U. after   15 cycles
 E2 =    -0.2092753262D+01 EUMP2 =    -0.67162902150198D+03

 The electronic state is 1-A.
 Alpha  occ. eigenvalues --  -20.61016 -20.61004 -15.86006 -11.31334 -11.27890
 Alpha  occ. eigenvalues --  -11.27884 -11.27622 -11.26890 -11.26879 -11.20955
 Alpha  occ. eigenvalues --  -11.20647 -11.20478 -11.20344 -11.19938 -11.19538
 Alpha  occ. eigenvalues --   -1.60053  -1.39607  -1.19495  -1.08900  -1.07384
 Alpha  occ. eigenvalues --   -1.04886  -1.02527  -0.95742  -0.94961  -0.86287
 Alpha  occ. eigenvalues --   -0.85974  -0.82579  -0.78645  -0.77634  -0.77103
 Alpha  occ. eigenvalues --   -0.72232  -0.71368  -0.70600  -0.65148  -0.64887
 Alpha  occ. eigenvalues --   -0.64028  -0.62232  -0.59936  -0.58397  -0.56551
 Alpha  occ. eigenvalues --   -0.55390  -0.54245  -0.53221  -0.52976  -0.51722
 Alpha  occ. eigenvalues --   -0.51355  -0.49042  -0.49000  -0.48877  -0.46927
 Alpha  occ. eigenvalues --   -0.45711  -0.45084  -0.44531  -0.44483  -0.42757
 Alpha  occ. eigenvalues --   -0.37468  -0.36484
 Alpha virt. eigenvalues --    0.04860   0.11151   0.16347   0.21295   0.23742
 Alpha virt. eigenvalues --    0.25355   0.27203   0.27459   0.27950   0.28625
 Alpha virt. eigenvalues --    0.28984   0.31007   0.32172   0.32405   0.32529

 Mulliken charges:
               1
     1  C   -0.298292
     2  C   -0.299124
     3  C   -0.478320
     4  H    0.158177
     5  H    0.156676
     6  H    0.145999
     7  H    0.145721
     8  H    0.155766
     9  H    0.171589
    10  H    0.151390
    11  C   -0.298775
    12  C   -0.296384
    13  C   -0.474705
    14  H    0.144976
    15  H    0.146432
    16  H    0.145224
    17  H    0.154627
    18  H    0.154884
    19  H    0.153122
    20  H    0.155108
    21  C   -0.170428
    22  C   -0.218578
    23  C   -0.171029
    24  C    0.158694
    25  C   -0.170587
    26  C   -0.218594
    27  H    0.226200
    28  H    0.223962
    29  H    0.275753
    30  H    0.276448
    31  H    0.224102
    32  N    0.486272
    33  O   -0.455698
    34  O   -0.460607
 Sum of Mulliken charges =  -0.00000

 Dipole moment (field-independent basis, Debye):
    X=              4.5859    Y=              2.4204    Z=             -1.2776  Tot=              5.3405
 Quadrupole moment (field-independent basis, Debye-Ang):
   XX=            -77.6081   YY=            -98.0486   ZZ=            -91.7600
   XY=              3.1590   XZ=             -3.6050   YZ=              4.4711

 Normal termination of Gaussian 16 at Wed May  5 18:36:34 2021.
