 Gaussian 16, Revision A.03,
 Gaussian 16:  EM64L-G16RevA.03 25-Dec-2016

 -------------
 #p 6-31g* mp2
 -------------

 ------------------------------------------------------
 Input file generated by CHIRIPA (05-May-2021 14:51:09)
 ------------------------------------------------------
 Symbolic Z-matrix:
 Charge =  0 Multiplicity = 1

                         Standard orientation:
 ---------------------------------------------------------------------
 Center     Atomic      Atomic             Coordinates (Angstroms)
 Number     Number       Type             X           Y           Z
 ---------------------------------------------------------------------
      1          6           0        3.382298   -0.696230    0.669126
      2          6           0        2.089531    0.063554    0.968238
      3          6           0        1.143294   -0.716346    1.881576
      4          1           0        3.134314   -1.660589    0.204948
      5          1           0        3.891365   -0.926476    1.615293
      6          1           0        1.583748    0.293508    0.021708
      7          1           0        2.340630    1.026298    1.431583
      8          1           0        1.625104   -0.933251    2.840435
      9          1           0        0.863922   -1.670205    1.422549
     10          1           0        0.225576   -0.154802    2.082381
     11          6           0        4.338497    0.070532   -0.242732
     12          6           0        5.631264   -0.689252   -0.541844
     13          6           0        6.577501    0.090648   -1.455181
     14          1           0        3.829430    0.300778   -1.188899
     15          1           0        4.586481    1.034891    0.221446
     16          1           0        5.380165   -1.651996   -1.005189
     17          1           0        6.137048   -0.919206    0.404687
     18          1           0        6.856873    1.044507   -0.996155
     19          1           0        6.095691    0.307553   -2.414041
     20          1           0        7.495219   -0.470896   -1.655987
     21          6           0       -3.507663    0.977782   -0.083294
     22          6           0       -1.983806    0.858244   -0.043836
     23          6           0       -1.292390    2.196802    0.216931
     24          1           0       -3.792586    1.697317   -0.863058
     25          1           0       -3.860635    1.394213    0.870327
     26          1           0       -1.633929    0.440870   -0.996727
     27          1           0       -1.702486    0.138765    0.735795
     28          1           0       -1.613062    2.615584    1.176303
     29          1           0       -1.544114    2.919405   -0.566064
     30          1           0       -0.203585    2.088265    0.241090
     31          6           0       -4.213132   -0.352083   -0.343101
     32          6           0       -5.736989   -0.232546   -0.382558
     33          6           0       -6.428405   -1.571104   -0.643325
     34          1           0       -3.860159   -0.768514   -1.296721
     35          1           0       -3.928209   -1.071619    0.436663
     36          1           0       -6.018309    0.486933   -1.162190
     37          1           0       -6.086867    0.184829    0.570333
     38          1           0       -6.176681   -2.293707    0.139669
     39          1           0       -6.107734   -1.989886   -1.602697
     40          1           0       -7.517209   -1.462567   -0.667485
 ---------------------------------------------------------------------

 SCF Done:  E(RHF) =  -470.732639835     A.U. after   11 cycles
 E2 =    -0.1583528452D+01 EUMP2 =    -0.47231616828791D+03

 The electronic state is 1-A.
 Alpha  occ. eigenvalues --  -11.21618 -11.21607 -11.21587 -11.21542 -11.21414
 Alpha  occ. eigenvalues --  -11.21381 -11.21355 -11.21321 -11.21075 -11.21061
 Alpha  occ. eigenvalues --  -11.21050 -11.20997  -1.08454  -1.08395  -1.03596
 Alpha  occ. eigenvalues --   -1.03453  -0.96044  -0.95898  -0.87015  -0.86962
 Alpha  occ. eigenvalues --   -0.79668  -0.79514  -0.78260  -0.78221  -0.65081
 Alpha  occ. eigenvalues --   -0.65044  -0.61008  -0.60915  -0.59683  -0.59071
 Alpha  occ. eigenvalues --   -0.57844  -0.57225  -0.55277  -0.55227  -0.52722
 Alpha  occ. eigenvalues --   -0.52603  -0.52421  -0.52357  -0.49949  -0.49875
 Alpha  occ. eigenvalues --   -0.48074  -0.47754  -0.46665  -0.46554  -0.45801
 Alpha  occ. eigenvalues --   -0.45748  -0.45725  -0.45666  -0.43834  -0.43663
 Alpha virt. eigenvalues --    0.21229   0.23066   0.23395   0.25301   0.26221
 Alpha virt. eigenvalues --    0.26610   0.26783   0.27360   0.27949   0.29187
 Alpha virt. eigenvalues --    0.30152   0.31219   0.31277   0.31704   0.32191

 Mulliken charges:
               1
     1  C   -0.298116
     2  C   -0.302691
     3  C   -0.479616
     4  H    0.149790
     5  H    0.149627
     6  H    0.154540
     7  H    0.151897
     8  H    0.154894
     9  H    0.155079
    10  H    0.165421
    11  C   -0.298400
    12  C   -0.299648
    13  C   -0.475713
    14  H    0.149459
    15  H    0.149682
    16  H    0.151964
    17  H    0.151970
    18  H    0.155215
    19  H    0.155184
    20  H    0.160276
    21  C   -0.297682
    22  C   -0.304205
    23  C   -0.482571
    24  H    0.149455
    25  H    0.149295
    26  H    0.150987
    27  H    0.156990
    28  H    0.154325
    29  H    0.154987
    30  H    0.167833
    31  C   -0.298317
    32  C   -0.299612
    33  C   -0.475699
    34  H    0.149316
    35  H    0.149775
    36  H    0.151900
    37  H    0.151914
    38  H    0.155200
    39  H    0.155093
    40  H    0.160207
 Sum of Mulliken charges =  -0.00000

 Dipole moment (field-independent basis, Debye):
    X=              0.0248    Y=             -0.0103    Z=              0.0081  Tot=              0.0280
 Quadrupole moment (field-independent basis, Debye-Ang):
   XX=            -85.7474   YY=            -85.6134   ZZ=            -83.5391
   XY=             -0.6648   XZ=              0.6927   YZ=              0.3061

 Normal termination of Gaussian 16 at Wed May  5 19:44:21 2021.
