 Gaussian 16, Revision A.03,
 Gaussian 16:  EM64L-G16RevA.03 25-Dec-2016

 -------------
 #p 6-31g* mp2
 -------------

 ------------------------------------------------------
 Input file generated by CHIRIPA (05-May-2021 14:51:10)
 ------------------------------------------------------
 Symbolic Z-matrix:
 Charge =  0 Multiplicity = 1

                         Standard orientation:
 ---------------------------------------------------------------------
 Center     Atomic      Atomic             Coordinates (Angstroms)
 Number     Number       Type             X           Y           Z
 ---------------------------------------------------------------------
      1          6           0       -4.808795   -0.009410   -0.182152
      2          6           0       -5.639455   -1.232058    0.209157
      3          6           0       -7.117265   -1.083536   -0.153903
      4          1           0       -5.221809    0.880213    0.312757
      5          1           0       -4.906399    0.160745   -1.263316
      6          1           0       -5.539206   -1.400679    1.289034
      7          1           0       -5.224299   -2.118905   -0.286588
      8          1           0       -7.236259   -0.938236   -1.232480
      9          1           0       -7.552956   -0.215930    0.352094
     10          1           0       -7.692496   -1.968803    0.134666
     11          6           0       -3.329324   -0.142823    0.174353
     12          6           0       -2.498665    1.079824   -0.216956
     13          6           0       -1.020855    0.931302    0.146104
     14          1           0       -3.231720   -0.312978    1.255517
     15          1           0       -2.916310   -1.032447   -0.320555
     16          1           0       -2.913821    1.966671    0.278790
     17          1           0       -2.598913    1.248446   -1.296832
     18          1           0       -0.585163    0.063696   -0.359893
     19          1           0       -0.901860    0.786002    1.224682
     20          1           0       -0.445623    1.816569   -0.142465
     21          6           0        4.249287   -0.612167    0.281776
     22          6           0        5.393609   -1.289997   -0.472583
     23          6           0        5.742580   -2.666138    0.095087
     24          1           0        4.523910   -0.514550    1.341020
     25          1           0        3.362259   -1.259767    0.247246
     26          1           0        6.277804   -0.640685   -0.437822
     27          1           0        5.116306   -1.385839   -1.530191
     28          1           0        4.876605   -3.334153    0.045654
     29          1           0        6.044701   -2.584765    1.144231
     30          1           0        6.563033   -3.132708   -0.459016
     31          6           0        3.888833    0.764401   -0.273978
     32          6           0        2.744511    1.442231    0.480381
     33          6           0        2.395539    2.818371   -0.087288
     34          1           0        4.775860    1.412001   -0.239448
     35          1           0        3.614208    0.666784   -1.333222
     36          1           0        3.021813    1.538072    1.537990
     37          1           0        1.860315    0.792919    0.445620
     38          1           0        2.093417    2.737000   -1.136433
     39          1           0        3.261513    3.486387   -0.037856
     40          1           0        1.575086    3.284943    0.466814
 ---------------------------------------------------------------------

 SCF Done:  E(RHF) =  -470.732577346     A.U. after   11 cycles
 E2 =    -0.1583191794D+01 EUMP2 =    -0.47231576914029D+03

 The electronic state is 1-A.
 Alpha  occ. eigenvalues --  -11.21607 -11.21598 -11.21565 -11.21437 -11.21410
 Alpha  occ. eigenvalues --  -11.21351 -11.21343 -11.21277 -11.21076 -11.21052
 Alpha  occ. eigenvalues --  -11.21045 -11.21020  -1.08441  -1.08360  -1.03573
 Alpha  occ. eigenvalues --   -1.03438  -0.96052  -0.95877  -0.87030  -0.86938
 Alpha  occ. eigenvalues --   -0.79671  -0.79479  -0.78267  -0.78151  -0.65072
 Alpha  occ. eigenvalues --   -0.65000  -0.60976  -0.60894  -0.59555  -0.59109
 Alpha  occ. eigenvalues --   -0.57672  -0.57459  -0.55294  -0.55224  -0.52797
 Alpha  occ. eigenvalues --   -0.52507  -0.52465  -0.52254  -0.49940  -0.49869
 Alpha  occ. eigenvalues --   -0.48026  -0.47757  -0.46651  -0.46537  -0.45852
 Alpha  occ. eigenvalues --   -0.45718  -0.45702  -0.45559  -0.43765  -0.43701
 Alpha virt. eigenvalues --    0.21943   0.23007   0.23601   0.25010   0.26083
 Alpha virt. eigenvalues --    0.26644   0.27056   0.27301   0.27807   0.29060
 Alpha virt. eigenvalues --    0.30852   0.31347   0.31609   0.31681   0.32298

 Mulliken charges:
               1
     1  C   -0.298238
     2  C   -0.299595
     3  C   -0.475701
     4  H    0.149675
     5  H    0.149489
     6  H    0.151938
     7  H    0.151875
     8  H    0.155173
     9  H    0.155199
    10  H    0.160263
    11  C   -0.298533
    12  C   -0.300354
    13  C   -0.481766
    14  H    0.149511
    15  H    0.149393
    16  H    0.151877
    17  H    0.151779
    18  H    0.153466
    19  H    0.155485
    20  H    0.169160
    21  C   -0.298185
    22  C   -0.299567
    23  C   -0.475657
    24  H    0.149554
    25  H    0.149297
    26  H    0.151875
    27  H    0.151744
    28  H    0.155059
    29  H    0.155136
    30  H    0.160098
    31  C   -0.297634
    32  C   -0.307621
    33  C   -0.477922
    34  H    0.148939
    35  H    0.149071
    36  H    0.150930
    37  H    0.164543
    38  H    0.154522
    39  H    0.155588
    40  H    0.160131
 Sum of Mulliken charges =  -0.00000

 Dipole moment (field-independent basis, Debye):
    X=             -0.0258    Y=              0.0062    Z=              0.0074  Tot=              0.0275
 Quadrupole moment (field-independent basis, Debye-Ang):
   XX=            -85.8953   YY=            -85.5047   ZZ=            -83.6714
   XY=              0.4945   XZ=             -0.0547   YZ=              0.9700

 Normal termination of Gaussian 16 at Wed May  5 15:12:02 2021.
