 Gaussian 16, Revision A.03,
 Gaussian 16:  EM64L-G16RevA.03 25-Dec-2016

 -------------
 #p 6-31g* mp2
 -------------

 ------------------------------------------------------
 Input file generated by CHIRIPA (05-May-2021 14:53:11)
 ------------------------------------------------------
 Symbolic Z-matrix:
 Charge =  0 Multiplicity = 1

                         Standard orientation:
 ---------------------------------------------------------------------
 Center     Atomic      Atomic             Coordinates (Angstroms)
 Number     Number       Type             X           Y           Z
 ---------------------------------------------------------------------
      1          6           0       -5.093283   -0.052906   -0.238815
      2          6           0       -5.671537   -1.370816    0.277634
      3          6           0       -7.142498   -1.557484   -0.095494
      4          1           0       -5.683780    0.781763    0.163163
      5          1           0       -5.202926   -0.015640   -1.331511
      6          1           0       -5.559585   -1.406190    1.368886
      7          1           0       -5.079478   -2.202436   -0.125467
      8          1           0       -7.268211   -1.548450   -1.183022
      9          1           0       -7.751046   -0.747680    0.319822
     10          1           0       -7.535597   -2.505968    0.283598
     11          6           0       -3.623577    0.148158    0.126239
     12          6           0       -3.045322    1.466068   -0.390210
     13          6           0       -1.574362    1.652735   -0.017081
     14          1           0       -3.513934    0.110892    1.218935
     15          1           0       -3.033080   -0.686511   -0.275739
     16          1           0       -3.637382    2.297687    0.012891
     17          1           0       -3.157275    1.501441   -1.481462
     18          1           0       -0.965814    0.842931   -0.432398
     19          1           0       -1.448648    1.643701    1.070446
     20          1           0       -1.181263    2.601220   -0.396174
     21          6           0        2.015462    2.046309    0.350567
     22          6           0        2.306432    1.231012    1.449270
     23          6           0        3.075430    0.074214    1.291121
     24          6           0        3.539361   -0.238634    0.014335
     25          6           0        3.266401    0.553415   -1.099864
     26          6           0        2.495528    1.705510   -0.918256
     27          1           0        1.417358    2.943110    0.482533
     28          1           0        1.934935    1.493211    2.435822
     29          1           0        3.315637   -0.574832    2.124463
     30          1           0        3.650734    0.266023   -2.071004
     31          1           0        2.271124    2.336808   -1.773329
     32          7           0        4.354457   -1.460794   -0.165508
     33          8           0        4.751356   -1.714448   -1.300748
     34          8           0        4.580997   -2.141928    0.832176
 ---------------------------------------------------------------------

 SCF Done:  E(RHF) =  -669.535469895     A.U. after   15 cycles
 E2 =    -0.2091407794D+01 EUMP2 =    -0.67162687768859D+03

 The electronic state is 1-A.
 Alpha  occ. eigenvalues --  -20.60731 -20.60726 -15.85786 -11.31132 -11.27719
 Alpha  occ. eigenvalues --  -11.27713 -11.27436 -11.26714 -11.26703 -11.22153
 Alpha  occ. eigenvalues --  -11.21857 -11.21829 -11.21808 -11.21698 -11.21280
 Alpha  occ. eigenvalues --   -1.59808  -1.39362  -1.19315  -1.08836  -1.08704
 Alpha  occ. eigenvalues --   -1.04717  -1.03962  -0.96434  -0.95538  -0.87453
 Alpha  occ. eigenvalues --   -0.86113  -0.82377  -0.80032  -0.78621  -0.77428
 Alpha  occ. eigenvalues --   -0.72004  -0.71132  -0.70417  -0.65459  -0.64966
 Alpha  occ. eigenvalues --   -0.64720  -0.62068  -0.61353  -0.59831  -0.58027
 Alpha  occ. eigenvalues --   -0.55711  -0.55228  -0.53342  -0.52979  -0.52809
 Alpha  occ. eigenvalues --   -0.52698  -0.50354  -0.48761  -0.48759  -0.48341
 Alpha  occ. eigenvalues --   -0.47046  -0.46170  -0.46078  -0.44772  -0.44223
 Alpha  occ. eigenvalues --   -0.37230  -0.36326
 Alpha virt. eigenvalues --    0.05101   0.11307   0.16567   0.20744   0.22565
 Alpha virt. eigenvalues --    0.23969   0.26219   0.26582   0.26943   0.27386
 Alpha virt. eigenvalues --    0.28617   0.30261   0.31020   0.31546   0.32301

 Mulliken charges:
               1
     1  C   -0.298581
     2  C   -0.300046
     3  C   -0.475936
     4  H    0.149561
     5  H    0.150171
     6  H    0.152023
     7  H    0.153287
     8  H    0.155623
     9  H    0.155066
    10  H    0.161392
    11  C   -0.298865
    12  C   -0.300628
    13  C   -0.475846
    14  H    0.149214
    15  H    0.151889
    16  H    0.151839
    17  H    0.153028
    18  H    0.162898
    19  H    0.151567
    20  H    0.150024
    21  C   -0.163959
    22  C   -0.219859
    23  C   -0.170999
    24  C    0.157997
    25  C   -0.171396
    26  C   -0.220297
    27  H    0.227098
    28  H    0.223145
    29  H    0.275384
    30  H    0.275334
    31  H    0.223155
    32  N    0.488127
    33  O   -0.460757
    34  O   -0.460652
 Sum of Mulliken charges =  -0.00000

 Dipole moment (field-independent basis, Debye):
    X=             -2.9646    Y=              4.2634    Z=              0.6273  Tot=              5.2306
 Quadrupole moment (field-independent basis, Debye-Ang):
   XX=           -116.7913   YY=            -97.3362   ZZ=            -89.2844
   XY=             15.9370   XZ=              1.3797   YZ=             -0.8233

 Normal termination of Gaussian 16 at Thu May  6 04:04:46 2021.
