 Gaussian 16, Revision A.03,
 Gaussian 16:  EM64L-G16RevA.03 25-Dec-2016

 -------------
 #p 6-31g* mp2
 -------------

 ------------------------------------------------------
 Input file generated by CHIRIPA (05-May-2021 14:53:16)
 ------------------------------------------------------
 Symbolic Z-matrix:
 Charge =  0 Multiplicity = 1

                         Standard orientation:
 ---------------------------------------------------------------------
 Center     Atomic      Atomic             Coordinates (Angstroms)
 Number     Number       Type             X           Y           Z
 ---------------------------------------------------------------------
      1          6           0        2.983701   -0.195280   -0.566706
      2          6           0        3.776078   -1.490776   -0.388342
      3          6           0        3.584653   -2.465604   -1.550608
      4          1           0        1.917234   -0.436872   -0.672657
      5          1           0        3.289645    0.287191   -1.505330
      6          1           0        3.469725   -1.969957    0.550353
      7          1           0        4.840761   -1.246058   -0.282611
      8          1           0        3.908381   -2.010633   -2.492310
      9          1           0        2.529555   -2.738644   -1.654613
     10          1           0        4.159960   -3.384817   -1.402524
     11          6           0        3.164816    0.789386    0.587139
     12          6           0        2.372439    2.084882    0.408776
     13          6           0        2.563864    3.059710    1.571042
     14          1           0        2.858872    0.306915    1.525764
     15          1           0        4.231283    1.030978    0.693091
     16          1           0        1.307756    1.840164    0.303045
     17          1           0        2.678792    2.564062   -0.529920
     18          1           0        3.618962    3.332750    1.675046
     19          1           0        2.240136    2.604739    2.512744
     20          1           0        1.988557    3.978923    1.422958
     21          6           0       -1.689156   -2.164886    1.448845
     22          6           0       -0.737029   -1.462208    0.703043
     23          6           0       -1.120481   -0.389616   -0.107548
     24          6           0       -2.470657   -0.045216   -0.148823
     25          6           0       -3.442933   -0.725794    0.582465
     26          6           0       -3.036693   -1.795089    1.386285
     27          1           0       -1.382431   -2.996821    2.075902
     28          1           0        0.310188   -1.747176    0.749681
     29          1           0       -0.404243    0.171594   -0.695310
     30          1           0       -4.479454   -0.418299    0.515456
     31          1           0       -3.778315   -2.338992    1.964396
     32          7           0       -2.888662    1.088544   -1.003375
     33          8           0       -4.084414    1.372184   -1.022415
     34          8           0       -2.012628    1.672078   -1.637953
 ---------------------------------------------------------------------

 SCF Done:  E(RHF) =  -669.534846686     A.U. after   15 cycles
 E2 =    -0.2093232378D+01 EUMP2 =    -0.67162807906429D+03

 The electronic state is 1-A.
 Alpha  occ. eigenvalues --  -20.60769 -20.60763 -15.85819 -11.31192 -11.27766
 Alpha  occ. eigenvalues --  -11.27732 -11.27511 -11.26786 -11.26767 -11.22367
 Alpha  occ. eigenvalues --  -11.22188 -11.21948 -11.21875 -11.21719 -11.21233
 Alpha  occ. eigenvalues --   -1.59842  -1.39395  -1.19369  -1.09062  -1.08761
 Alpha  occ. eigenvalues --   -1.04779  -1.04034  -0.96491  -0.95596  -0.87500
 Alpha  occ. eigenvalues --   -0.86172  -0.82440  -0.80117  -0.78879  -0.77464
 Alpha  occ. eigenvalues --   -0.72038  -0.71165  -0.70494  -0.65802  -0.65003
 Alpha  occ. eigenvalues --   -0.64784  -0.62092  -0.61435  -0.59857  -0.58080
 Alpha  occ. eigenvalues --   -0.55799  -0.55268  -0.53156  -0.53098  -0.52900
 Alpha  occ. eigenvalues --   -0.52855  -0.50444  -0.48798  -0.48794  -0.48411
 Alpha  occ. eigenvalues --   -0.47192  -0.46351  -0.46287  -0.44796  -0.44320
 Alpha  occ. eigenvalues --   -0.37348  -0.36371
 Alpha virt. eigenvalues --    0.05023   0.11218   0.16511   0.18648   0.22796
 Alpha virt. eigenvalues --    0.23562   0.24756   0.25948   0.27409   0.28337
 Alpha virt. eigenvalues --    0.29531   0.31073   0.31296   0.31580   0.32600

 Mulliken charges:
               1
     1  C   -0.304911
     2  C   -0.300889
     3  C   -0.476110
     4  H    0.140832
     5  H    0.157625
     6  H    0.146262
     7  H    0.157004
     8  H    0.159882
     9  H    0.152172
    10  H    0.162257
    11  C   -0.299148
    12  C   -0.303421
    13  C   -0.476264
    14  H    0.145863
    15  H    0.153234
    16  H    0.153606
    17  H    0.157056
    18  H    0.155304
    19  H    0.153987
    20  H    0.165744
    21  C   -0.170894
    22  C   -0.224034
    23  C   -0.180091
    24  C    0.160374
    25  C   -0.170691
    26  C   -0.218485
    27  H    0.225796
    28  H    0.227920
    29  H    0.283280
    30  H    0.275643
    31  H    0.223594
    32  N    0.488554
    33  O   -0.460381
    34  O   -0.460668
 Sum of Mulliken charges =  -0.00000

 Dipole moment (field-independent basis, Debye):
    X=              1.6113    Y=             -3.8763    Z=              2.9565  Tot=              5.1345
 Quadrupole moment (field-independent basis, Debye-Ang):
   XX=            -96.1669   YY=            -95.1112   ZZ=            -96.2488
   XY=             11.1733   XZ=            -10.0253   YZ=             -0.6225

 Normal termination of Gaussian 16 at Thu May  6 02:46:59 2021.
