 Gaussian 16, Revision A.03,
 Gaussian 16:  EM64L-G16RevA.03 25-Dec-2016

 -------------
 #p 6-31g* mp2
 -------------

 ------------------------------------------------------
 Input file generated by CHIRIPA (05-May-2021 14:51:12)
 ------------------------------------------------------
 Symbolic Z-matrix:
 Charge =  0 Multiplicity = 1

                         Standard orientation:
 ---------------------------------------------------------------------
 Center     Atomic      Atomic             Coordinates (Angstroms)
 Number     Number       Type             X           Y           Z
 ---------------------------------------------------------------------
      1          6           0       -2.812905   -0.696109    0.641526
      2          6           0       -1.306114   -0.612346    0.887594
      3          6           0       -0.745685   -1.867812    1.556563
      4          1           0       -3.325579   -0.863218    1.598701
      5          1           0       -3.026881   -1.573115    0.015052
      6          1           0       -1.094901    0.265027    1.512271
      7          1           0       -0.796982   -0.445226   -0.070254
      8          1           0       -0.927384   -2.749833    0.933968
      9          1           0       -1.226996   -2.035544    2.525484
     10          1           0        0.332973   -1.786485    1.723127
     11          6           0       -3.387901    0.551534   -0.026676
     12          6           0       -4.894692    0.467771   -0.272743
     13          6           0       -5.455121    1.723236   -0.941713
     14          1           0       -3.173925    1.428540    0.599799
     15          1           0       -2.875227    0.718642   -0.983851
     16          1           0       -5.403824    0.300651    0.685104
     17          1           0       -5.105905   -0.409602   -0.897421
     18          1           0       -4.973810    1.890969   -1.910634
     19          1           0       -5.273422    2.605257   -0.319117
     20          1           0       -6.533779    1.641910   -1.108276
     21          6           0        3.613832    0.531224    0.023031
     22          6           0        3.283611    2.016783   -0.125472
     23          6           0        4.319978    2.922215    0.540806
     24          1           0        3.686973    0.283344    1.090810
     25          1           0        4.604432    0.337747   -0.411333
     26          1           0        2.293333    2.207142    0.307804
     27          1           0        3.211058    2.261112   -1.193019
     28          1           0        5.310387    2.761431    0.102810
     29          1           0        4.387447    2.707154    1.612160
     30          1           0        4.064338    3.979815    0.422518
     31          6           0        2.586974   -0.386648   -0.637881
     32          6           0        2.917195   -1.872207   -0.489378
     33          6           0        1.880828   -2.777640   -1.155657
     34          1           0        1.596373   -0.193173   -0.203517
     35          1           0        2.513832   -0.138769   -1.705659
     36          1           0        2.989749   -2.116537    0.578169
     37          1           0        3.907474   -2.062567   -0.922653
     38          1           0        1.813360   -2.562580   -2.227010
     39          1           0        0.890419   -2.616856   -0.717660
     40          1           0        2.136468   -3.835239   -1.037368
 ---------------------------------------------------------------------

 SCF Done:  E(RHF) =  -470.732130423     A.U. after   11 cycles
 E2 =    -0.1584519585D+01 EUMP2 =    -0.47231665000738D+03

 The electronic state is 1-A.
 Alpha  occ. eigenvalues --  -11.21682 -11.21625 -11.21576 -11.21560 -11.21451
 Alpha  occ. eigenvalues --  -11.21388 -11.21360 -11.21284 -11.21159 -11.21087
 Alpha  occ. eigenvalues --  -11.21054 -11.20948  -1.08501  -1.08380  -1.03636
 Alpha  occ. eigenvalues --   -1.03455  -0.96068  -0.95916  -0.87086  -0.86930
 Alpha  occ. eigenvalues --   -0.79670  -0.79555  -0.78363  -0.78146  -0.65256
 Alpha  occ. eigenvalues --   -0.64952  -0.61272  -0.60728  -0.59412  -0.59231
 Alpha  occ. eigenvalues --   -0.57639  -0.57546  -0.55550  -0.55034  -0.52727
 Alpha  occ. eigenvalues --   -0.52631  -0.52462  -0.52364  -0.50184  -0.49660
 Alpha  occ. eigenvalues --   -0.48035  -0.47835  -0.46718  -0.46575  -0.46035
 Alpha  occ. eigenvalues --   -0.45778  -0.45725  -0.45328  -0.43835  -0.43740
 Alpha virt. eigenvalues --    0.20536   0.22918   0.23691   0.25079   0.25983
 Alpha virt. eigenvalues --    0.26295   0.26785   0.27522   0.28169   0.29435
 Alpha virt. eigenvalues --    0.30481   0.31109   0.31486   0.31988   0.32508

 Mulliken charges:
               1
     1  C   -0.297588
     2  C   -0.306142
     3  C   -0.482384
     4  H    0.149846
     5  H    0.149891
     6  H    0.151863
     7  H    0.156689
     8  H    0.156542
     9  H    0.157301
    10  H    0.163369
    11  C   -0.298526
    12  C   -0.299718
    13  C   -0.475750
    14  H    0.149501
    15  H    0.150112
    16  H    0.151969
    17  H    0.152089
    18  H    0.155315
    19  H    0.155196
    20  H    0.160351
    21  C   -0.297507
    22  C   -0.299747
    23  C   -0.475674
    24  H    0.149011
    25  H    0.149433
    26  H    0.152119
    27  H    0.151814
    28  H    0.155155
    29  H    0.155068
    30  H    0.160150
    31  C   -0.308580
    32  C   -0.299368
    33  C   -0.483608
    34  H    0.160440
    35  H    0.148955
    36  H    0.151124
    37  H    0.151988
    38  H    0.153911
    39  H    0.165732
    40  H    0.159659
 Sum of Mulliken charges =  -0.00000

 Dipole moment (field-independent basis, Debye):
    X=             -0.0612    Y=              0.0020    Z=              0.0164  Tot=              0.0634
 Quadrupole moment (field-independent basis, Debye-Ang):
   XX=            -85.3579   YY=            -85.9767   ZZ=            -83.6200
   XY=             -0.0435   XZ=             -1.1273   YZ=              0.3559

 Normal termination of Gaussian 16 at Wed May  5 16:46:44 2021.
