 Gaussian 16, Revision A.03,
 Gaussian 16:  EM64L-G16RevA.03 25-Dec-2016

 -------------
 #p 6-31g* mp2
 -------------

 ------------------------------------------------------
 Input file generated by CHIRIPA (05-May-2021 14:57:22)
 ------------------------------------------------------
 Symbolic Z-matrix:
 Charge =  0 Multiplicity = 1

                         Standard orientation:
 ---------------------------------------------------------------------
 Center     Atomic      Atomic             Coordinates (Angstroms)
 Number     Number       Type             X           Y           Z
 ---------------------------------------------------------------------
      1          6           0        3.740380   -2.162037   -0.736812
      2          6           0        2.849484   -1.949206    0.320320
      3          6           0        2.581553   -0.653964    0.773210
      4          6           0        3.224992    0.410166    0.143208
      5          6           0        4.117651    0.230491   -0.912333
      6          6           0        4.370510   -1.073429   -1.348686
      7          1           0        3.942661   -3.171583   -1.082204
      8          1           0        2.358672   -2.792739    0.797394
      9          1           0        1.896294   -0.460631    1.589581
     10          1           0        4.591688    1.091324   -1.368045
     11          1           0        5.062857   -1.235722   -2.169880
     12          7           0        2.949324    1.785974    0.613909
     13          8           0        3.529052    2.706625    0.042110
     14          8           0        2.158747    1.917630    1.545731
     15          6           0       -1.057067   -1.294480    0.416554
     16          6           0       -1.104078   -0.141788   -0.374404
     17          6           0       -2.324849    0.482203   -0.648088
     18          6           0       -3.484405   -0.076003   -0.112247
     19          6           0       -3.470207   -1.223410    0.679299
     20          6           0       -2.238199   -1.830667    0.939958
     21          1           0       -0.104378   -1.772711    0.624099
     22          1           0       -0.188390    0.276840   -0.782215
     23          1           0       -2.390045    1.375502   -1.257337
     24          1           0       -4.399808   -1.617340    1.071830
     25          1           0       -2.204708   -2.725765    1.554549
     26          7           0       -4.782728    0.575731   -0.395089
     27          8           0       -5.790119    0.064213    0.088802
     28          8           0       -4.768381    1.585736   -1.095317
 ---------------------------------------------------------------------

 SCF Done:  E(RHF) =  -868.336172315     A.U. after   16 cycles
 E2 =    -0.2602309840D+01 EUMP2 =    -0.87093848215527D+03

 The electronic state is 1-A.
 Alpha  occ. eigenvalues --  -20.61703 -20.61697 -20.60676 -20.60665 -15.86763
 Alpha  occ. eigenvalues --  -15.85727 -11.32336 -11.31147 -11.28968 -11.28858
 Alpha  occ. eigenvalues --  -11.28632 -11.28024 -11.27855 -11.27728 -11.27664
 Alpha  occ. eigenvalues --  -11.27520 -11.26820 -11.26720  -1.60782  -1.59746
 Alpha  occ. eigenvalues --   -1.40325  -1.39298  -1.20529  -1.19323  -1.09857
 Alpha  occ. eigenvalues --   -1.08740  -1.05966  -1.04724  -0.96663  -0.95562
 Alpha  occ. eigenvalues --   -0.87323  -0.86136  -0.83510  -0.82380  -0.78532
 Alpha  occ. eigenvalues --   -0.77399  -0.72963  -0.72135  -0.71947  -0.71608
 Alpha  occ. eigenvalues --   -0.71067  -0.70503  -0.66154  -0.65934  -0.64987
 Alpha  occ. eigenvalues --   -0.64763  -0.63270  -0.62070  -0.56383  -0.55382
 Alpha  occ. eigenvalues --   -0.54187  -0.54030  -0.53047  -0.52820  -0.49742
 Alpha  occ. eigenvalues --   -0.49712  -0.48712  -0.48696  -0.45679  -0.44691
 Alpha  occ. eigenvalues --   -0.38481  -0.37566  -0.37323  -0.36303
 Alpha virt. eigenvalues --    0.03973   0.05100   0.09986   0.11359   0.15282
 Alpha virt. eigenvalues --    0.16518   0.19510   0.21907   0.25282   0.27050
 Alpha virt. eigenvalues --    0.27256   0.29154   0.29691   0.31410   0.32393

 Mulliken charges:
               1
     1  C   -0.169886
     2  C   -0.222564
     3  C   -0.179226
     4  C    0.155066
     5  C   -0.170218
     6  C   -0.217949
     7  H    0.229992
     8  H    0.221400
     9  H    0.278232
    10  H    0.279812
    11  H    0.228410
    12  N    0.486824
    13  O   -0.456285
    14  O   -0.457549
    15  C   -0.173810
    16  C   -0.216102
    17  C   -0.169424
    18  C    0.159109
    19  C   -0.170645
    20  C   -0.219084
    21  H    0.216965
    22  H    0.224577
    23  H    0.278095
    24  H    0.275377
    25  H    0.220608
    26  N    0.487963
    27  O   -0.460885
    28  O   -0.458804
 Sum of Mulliken charges =  -0.00000

 Dipole moment (field-independent basis, Debye):
    X=              5.8239    Y=             -6.9574    Z=             -0.8047  Tot=              9.1088
 Quadrupole moment (field-independent basis, Debye-Ang):
   XX=           -126.8110   YY=           -106.2209   ZZ=           -102.5549
   XY=             -4.7443   XZ=            -13.5851   YZ=             -4.6205

 Normal termination of Gaussian 16 at Thu May  6 00:11:33 2021.
