 Gaussian 16, Revision A.03,
 Gaussian 16:  EM64L-G16RevA.03 25-Dec-2016

 -------------
 #p 6-31g* mp2
 -------------

 ------------------------------------------------------
 Input file generated by CHIRIPA (05-May-2021 14:53:18)
 ------------------------------------------------------
 Symbolic Z-matrix:
 Charge =  0 Multiplicity = 1

                         Standard orientation:
 ---------------------------------------------------------------------
 Center     Atomic      Atomic             Coordinates (Angstroms)
 Number     Number       Type             X           Y           Z
 ---------------------------------------------------------------------
      1          6           0        3.225905    0.900153   -0.486385
      2          6           0        3.076938    1.876275    0.681082
      3          6           0        3.073343    3.338028    0.232687
      4          1           0        4.157245    1.122201   -1.025130
      5          1           0        2.405831    1.063993   -1.199147
      6          1           0        3.896270    1.709704    1.392112
      7          1           0        2.145940    1.651753    1.217225
      8          1           0        2.246374    3.526612   -0.459526
      9          1           0        4.006649    3.584892   -0.283645
     10          1           0        2.965842    4.018556    1.083090
     11          6           0        3.231222   -0.565050   -0.054088
     12          6           0        3.380190   -1.541172   -1.221555
     13          6           0        3.383784   -3.002926   -0.773160
     14          1           0        4.051297   -0.728890    0.658673
     15          1           0        2.299883   -0.787099    0.484657
     16          1           0        4.311188   -1.316651   -1.757698
     17          1           0        2.560858   -1.374602   -1.932586
     18          1           0        2.450478   -3.249789   -0.256828
     19          1           0        4.210754   -3.191509   -0.080947
     20          1           0        3.491285   -3.683454   -1.623563
     21          6           0       -4.329872    0.996781   -1.140543
     22          6           0       -3.208319    1.723433   -0.727487
     23          6           0       -2.200633    1.108903    0.021828
     24          6           0       -2.347567   -0.239919    0.341797
     25          6           0       -3.453058   -0.990727   -0.055029
     26          6           0       -4.448453   -0.355596   -0.803590
     27          1           0       -5.107893    1.482165   -1.722336
     28          1           0       -3.113564    2.773837   -0.987713
     29          1           0       -1.321827    1.647780    0.354583
     30          1           0       -3.519456   -2.036442    0.219723
     31          1           0       -5.318362   -0.922404   -1.123013
     32          7           0       -1.287282   -0.901400    1.134663
     33          8           0       -1.440418   -2.090879    1.403600
     34          8           0       -0.323170   -0.217865    1.472162
 ---------------------------------------------------------------------

 SCF Done:  E(RHF) =  -669.536567739     A.U. after   15 cycles
 E2 =    -0.2091837920D+01 EUMP2 =    -0.67162840565867D+03

 The electronic state is 1-A.
 Alpha  occ. eigenvalues --  -20.61105 -20.61098 -15.86120 -11.31380 -11.27935
 Alpha  occ. eigenvalues --  -11.27931 -11.27661 -11.26928 -11.26918 -11.20732
 Alpha  occ. eigenvalues --  -11.20698 -11.20607 -11.20536 -11.20144 -11.20118
 Alpha  occ. eigenvalues --   -1.60154  -1.39713  -1.19542  -1.08957  -1.07487
 Alpha  occ. eigenvalues --   -1.04928  -1.02703  -0.95810  -0.95160  -0.86332
 Alpha  occ. eigenvalues --   -0.86179  -0.82647  -0.78754  -0.77715  -0.77256
 Alpha  occ. eigenvalues --   -0.72345  -0.71463  -0.70650  -0.65203  -0.64930
 Alpha  occ. eigenvalues --   -0.64101  -0.62276  -0.60108  -0.58540  -0.56764
 Alpha  occ. eigenvalues --   -0.55435  -0.54457  -0.53263  -0.53018  -0.51899
 Alpha  occ. eigenvalues --   -0.51585  -0.49226  -0.49098  -0.48986  -0.47077
 Alpha  occ. eigenvalues --   -0.45774  -0.45306  -0.44848  -0.44440  -0.42912
 Alpha  occ. eigenvalues --   -0.37515  -0.36526
 Alpha virt. eigenvalues --    0.04781   0.11127   0.16265   0.20912   0.23371
 Alpha virt. eigenvalues --    0.24860   0.26896   0.27421   0.28105   0.28722
 Alpha virt. eigenvalues --    0.29056   0.30900   0.31666   0.32371   0.32597

 Mulliken charges:
               1
     1  C   -0.294201
     2  C   -0.306584
     3  C   -0.474494
     4  H    0.144662
     5  H    0.142531
     6  H    0.150971
     7  H    0.168308
     8  H    0.147245
     9  H    0.153699
    10  H    0.157935
    11  C   -0.310971
    12  C   -0.297982
    13  C   -0.476804
    14  H    0.146103
    15  H    0.177577
    16  H    0.147046
    17  H    0.146847
    18  H    0.163114
    19  H    0.153859
    20  H    0.155150
    21  C   -0.170345
    22  C   -0.218625
    23  C   -0.170945
    24  C    0.157824
    25  C   -0.170590
    26  C   -0.218577
    27  H    0.226415
    28  H    0.224426
    29  H    0.276194
    30  H    0.276028
    31  H    0.224168
    32  N    0.491358
    33  O   -0.457932
    34  O   -0.463409
 Sum of Mulliken charges =  -0.00000

 Dipole moment (field-independent basis, Debye):
    X=             -4.0593    Y=              2.2042    Z=             -2.5961  Tot=              5.2987
 Quadrupole moment (field-independent basis, Debye-Ang):
   XX=            -76.0202   YY=            -94.1200   ZZ=            -97.6893
   XY=             -2.2836   XZ=              6.3158   YZ=              1.6071

 Normal termination of Gaussian 16 at Wed May  5 17:18:45 2021.
