 Gaussian 16, Revision A.03,
 Gaussian 16:  EM64L-G16RevA.03 25-Dec-2016

 -------------
 #p 6-31g* mp2
 -------------

 ------------------------------------------------------
 Input file generated by CHIRIPA (05-May-2021 14:55:24)
 ------------------------------------------------------
 Symbolic Z-matrix:
 Charge =  0 Multiplicity = 1

                         Standard orientation:
 ---------------------------------------------------------------------
 Center     Atomic      Atomic             Coordinates (Angstroms)
 Number     Number       Type             X           Y           Z
 ---------------------------------------------------------------------
      1          6           0       -2.454648    1.689072    1.022961
      2          6           0       -1.693337    0.809787    1.799998
      3          6           0       -1.330669   -0.445383    1.302436
      4          6           0       -1.748260   -0.790288    0.017933
      5          6           0       -2.507430    0.063718   -0.780583
      6          6           0       -2.858552    1.313892   -0.262582
      7          1           0       -2.731892    2.662178    1.417418
      8          1           0       -1.378257    1.098483    2.798709
      9          1           0       -0.741868   -1.145551    1.882519
     10          1           0       -2.806732   -0.252231   -1.772557
     11          1           0       -3.449856    1.994718   -0.868290
     12          7           0       -1.370431   -2.116436   -0.519632
     13          8           0       -1.750813   -2.396521   -1.654313
     14          8           0       -0.701061   -2.850674    0.203883
     15          6           0        1.778600    1.255417    0.001016
     16          6           0        1.864970    2.471105   -0.922361
     17          6           0        0.780290    3.509772   -0.635248
     18          1           0        0.788088    0.792149   -0.104878
     19          1           0        1.857173    1.590096    1.044670
     20          1           0        1.787646    2.134088   -1.964021
     21          1           0        2.855460    2.931421   -0.814398
     22          1           0        0.858624    3.874110    0.394180
     23          1           0       -0.215257    3.072246   -0.761975
     24          1           0        0.860662    4.370302   -1.306730
     25          6           0        2.856359    0.208193   -0.273733
     26          6           0        2.769989   -1.007496    0.649645
     27          6           0        3.854669   -2.046163    0.362531
     28          1           0        2.777786   -0.126487   -1.317386
     29          1           0        3.846871    0.671462   -0.167839
     30          1           0        1.779500   -1.467812    0.541681
     31          1           0        2.847313   -0.670478    1.691305
     32          1           0        4.850216   -1.608636    0.489259
     33          1           0        3.776336   -2.410501   -0.666897
     34          1           0        3.774298   -2.906693    1.034014
 ---------------------------------------------------------------------

 SCF Done:  E(RHF) =  -669.534782527     A.U. after   15 cycles
 E2 =    -0.2096442728D+01 EUMP2 =    -0.67163122525543D+03

 The electronic state is 1-A.
 Alpha  occ. eigenvalues --  -20.61030 -20.61022 -15.86038 -11.31327 -11.27941
 Alpha  occ. eigenvalues --  -11.27872 -11.27646 -11.26929 -11.26854 -11.21623
 Alpha  occ. eigenvalues --  -11.21247 -11.21223 -11.21145 -11.21077 -11.20540
 Alpha  occ. eigenvalues --   -1.60081  -1.39638  -1.19539  -1.08930  -1.08251
 Alpha  occ. eigenvalues --   -1.04917  -1.03332  -0.95830  -0.95741  -0.86826
 Alpha  occ. eigenvalues --   -0.86313  -0.82598  -0.79438  -0.78097  -0.77635
 Alpha  occ. eigenvalues --   -0.72264  -0.71401  -0.70619  -0.65180  -0.64933
 Alpha  occ. eigenvalues --   -0.64864  -0.62260  -0.60735  -0.59193  -0.57416
 Alpha  occ. eigenvalues --   -0.55408  -0.55120  -0.53392  -0.52997  -0.52480
 Alpha  occ. eigenvalues --   -0.52245  -0.49777  -0.49047  -0.49019  -0.47707
 Alpha  occ. eigenvalues --   -0.46460  -0.45620  -0.45575  -0.44741  -0.43580
 Alpha  occ. eigenvalues --   -0.37458  -0.36437
 Alpha virt. eigenvalues --    0.04836   0.11002   0.16268   0.21115   0.23061
 Alpha virt. eigenvalues --    0.24327   0.26520   0.26813   0.27857   0.27909
 Alpha virt. eigenvalues --    0.28594   0.30537   0.31500   0.31721   0.32228

 Mulliken charges:
               1
     1  C   -0.168357
     2  C   -0.212881
     3  C   -0.174713
     4  C    0.159622
     5  C   -0.172432
     6  C   -0.219304
     7  H    0.227460
     8  H    0.224506
     9  H    0.277329
    10  H    0.276246
    11  H    0.224890
    12  N    0.487964
    13  O   -0.458439
    14  O   -0.458609
    15  C   -0.303435
    16  C   -0.298098
    17  C   -0.479352
    18  H    0.158106
    19  H    0.142159
    20  H    0.152859
    21  H    0.151647
    22  H    0.149819
    23  H    0.155668
    24  H    0.158544
    25  C   -0.298194
    26  C   -0.310551
    27  C   -0.473934
    28  H    0.151637
    29  H    0.147656
    30  H    0.166269
    31  H    0.143748
    32  H    0.151045
    33  H    0.158791
    34  H    0.162334
 Sum of Mulliken charges =  -0.00000

 Dipole moment (field-independent basis, Debye):
    X=             -1.5521    Y=              4.4820    Z=              1.8791  Tot=              5.1018
 Quadrupole moment (field-independent basis, Debye-Ang):
   XX=            -89.8740   YY=           -103.3518   ZZ=            -90.7862
   XY=             -7.2913   XZ=             -0.7810   YZ=             -2.0260

 Normal termination of Gaussian 16 at Thu May  6 12:40:18 2021.
