 Gaussian 16, Revision A.03,
 Gaussian 16:  EM64L-G16RevA.03 25-Dec-2016

 -------------
 #p 6-31g* mp2
 -------------

 ------------------------------------------------------
 Input file generated by CHIRIPA (05-May-2021 14:53:14)
 ------------------------------------------------------
 Symbolic Z-matrix:
 Charge =  0 Multiplicity = 1

                         Standard orientation:
 ---------------------------------------------------------------------
 Center     Atomic      Atomic             Coordinates (Angstroms)
 Number     Number       Type             X           Y           Z
 ---------------------------------------------------------------------
      1          6           0       -3.260678    0.911740   -0.163114
      2          6           0       -2.431089    1.564470    0.943101
      3          6           0       -1.923149    2.954545    0.559066
      4          1           0       -2.653201    0.842472   -1.075868
      5          1           0       -4.113664    1.561230   -0.403888
      6          1           0       -1.580692    0.913285    1.182680
      7          1           0       -3.040548    1.632018    1.853383
      8          1           0       -2.761256    3.623957    0.339826
      9          1           0       -1.293105    2.901140   -0.334687
     10          1           0       -1.332587    3.402761    1.364174
     11          6           0       -3.775552   -0.478392    0.205890
     12          6           0       -4.605140   -1.131122   -0.900325
     13          6           0       -5.113080   -2.521197   -0.516289
     14          1           0       -2.922565   -1.127883    0.446664
     15          1           0       -4.383028   -0.409124    1.118644
     16          1           0       -3.995681   -1.198670   -1.810606
     17          1           0       -5.455537   -0.479937   -1.139904
     18          1           0       -5.743124   -2.467792    0.377463
     19          1           0       -4.274973   -3.190609   -0.297050
     20          1           0       -5.703642   -2.969413   -1.321398
     21          6           0        3.281252   -2.577348    0.515565
     22          6           0        4.129781   -1.840232   -0.317009
     23          6           0        3.844479   -0.505271   -0.618721
     24          6           0        2.697025    0.063527   -0.068168
     25          6           0        1.832077   -0.644687    0.764653
     26          6           0        2.137127   -1.978280    1.052791
     27          1           0        3.510551   -3.613847    0.744670
     28          1           0        5.019022   -2.302881   -0.735641
     29          1           0        4.484143    0.088493   -1.260353
     30          1           0        0.952981   -0.156140    1.167054
     31          1           0        1.476341   -2.548311    1.699684
     32          7           0        2.384536    1.476066   -0.380392
     33          8           0        1.367430    1.954082    0.117235
     34          8           0        3.162630    2.078451   -1.116829
 ---------------------------------------------------------------------

 SCF Done:  E(RHF) =  -669.535659664     A.U. after   15 cycles
 E2 =    -0.2091889502D+01 EUMP2 =    -0.67162754916568D+03

 The electronic state is 1-A.
 Alpha  occ. eigenvalues --  -20.60908 -20.60899 -15.85941 -11.31279 -11.27845
 Alpha  occ. eigenvalues --  -11.27841 -11.27582 -11.26854 -11.26844 -11.21489
 Alpha  occ. eigenvalues --  -11.21222 -11.21065 -11.20996 -11.20919 -11.19797
 Alpha  occ. eigenvalues --   -1.59974  -1.39530  -1.19450  -1.08851  -1.08085
 Alpha  occ. eigenvalues --   -1.04848  -1.03062  -0.95707  -0.95462  -0.86493
 Alpha  occ. eigenvalues --   -0.86246  -0.82523  -0.79176  -0.77881  -0.77576
 Alpha  occ. eigenvalues --   -0.72177  -0.71293  -0.70559  -0.65113  -0.64865
 Alpha  occ. eigenvalues --   -0.64701  -0.62202  -0.60435  -0.58920  -0.57092
 Alpha  occ. eigenvalues --   -0.55352  -0.54745  -0.53179  -0.52943  -0.52138
 Alpha  occ. eigenvalues --   -0.51909  -0.49456  -0.48925  -0.48874  -0.47472
 Alpha  occ. eigenvalues --   -0.46224  -0.45423  -0.45324  -0.44894  -0.43330
 Alpha  occ. eigenvalues --   -0.37429  -0.36450
 Alpha virt. eigenvalues --    0.04931   0.11195   0.16417   0.20290   0.22992
 Alpha virt. eigenvalues --    0.24116   0.25865   0.27413   0.27670   0.28587
 Alpha virt. eigenvalues --    0.29082   0.30266   0.31491   0.32076   0.32920

 Mulliken charges:
               1
     1  C   -0.298595
     2  C   -0.300659
     3  C   -0.472331
     4  H    0.151562
     5  H    0.149688
     6  H    0.146216
     7  H    0.147153
     8  H    0.146210
     9  H    0.172900
    10  H    0.162820
    11  C   -0.296241
    12  C   -0.299339
    13  C   -0.475118
    14  H    0.142016
    15  H    0.148822
    16  H    0.152044
    17  H    0.152987
    18  H    0.154921
    19  H    0.152088
    20  H    0.160079
    21  C   -0.170333
    22  C   -0.218836
    23  C   -0.170106
    24  C    0.156124
    25  C   -0.174750
    26  C   -0.220637
    27  H    0.226013
    28  H    0.223779
    29  H    0.275813
    30  H    0.283253
    31  H    0.224293
    32  N    0.491462
    33  O   -0.464044
    34  O   -0.459256
 Sum of Mulliken charges =  -0.00000

 Dipole moment (field-independent basis, Debye):
    X=              1.2986    Y=             -4.8550    Z=              1.0182  Tot=              5.1278
 Quadrupole moment (field-independent basis, Debye-Ang):
   XX=            -85.6014   YY=            -96.7018   ZZ=            -93.8765
   XY=            -14.1817   XZ=              0.1226   YZ=              0.3468

 Normal termination of Gaussian 16 at Wed May  5 15:35:50 2021.
