 Gaussian 16, Revision A.03,
 Gaussian 16:  EM64L-G16RevA.03 25-Dec-2016

 -------------
 #p 6-31g* mp2
 -------------

 ------------------------------------------------------
 Input file generated by CHIRIPA (05-May-2021 14:53:13)
 ------------------------------------------------------
 Symbolic Z-matrix:
 Charge =  0 Multiplicity = 1

                         Standard orientation:
 ---------------------------------------------------------------------
 Center     Atomic      Atomic             Coordinates (Angstroms)
 Number     Number       Type             X           Y           Z
 ---------------------------------------------------------------------
      1          6           0        5.940971   -0.291154    0.193389
      2          6           0        6.842228    0.871434   -0.223874
      3          6           0        8.317839    0.615570    0.084182
      4          1           0        6.065787   -0.475715    1.269170
      5          1           0        6.270826   -1.204512   -0.320779
      6          1           0        6.509908    1.782615    0.289867
      7          1           0        6.715109    1.053373   -1.298749
      8          1           0        8.671632   -0.277823   -0.440490
      9          1           0        8.465266    0.455563    1.157152
     10          1           0        8.944081    1.459254   -0.222214
     11          6           0        4.462862   -0.050281   -0.108108
     12          6           0        3.561605   -1.212870    0.309155
     13          6           0        2.085994   -0.957006    0.001099
     14          1           0        4.133008    0.863076    0.406060
     15          1           0        4.338046    0.134279   -1.183889
     16          1           0        3.688725   -1.394809    1.384030
     17          1           0        3.893925   -2.124051   -0.204586
     18          1           0        1.938567   -0.796999   -1.071871
     19          1           0        1.732201   -0.063613    0.525771
     20          1           0        1.459752   -1.800690    0.307495
     21          6           0       -1.553749    0.283762   -0.238152
     22          6           0       -2.186867   -0.962445   -0.289628
     23          6           0       -3.577131   -1.057709   -0.177202
     24          6           0       -4.306679    0.118834   -0.013510
     25          6           0       -3.705030    1.375129    0.041555
     26          6           0       -2.313512    1.446522   -0.073017
     27          1           0       -0.473271    0.348492   -0.326322
     28          1           0       -1.599361   -1.867131   -0.417797
     29          1           0       -4.092985   -2.009539   -0.213718
     30          1           0       -4.317410    2.259366    0.170137
     31          1           0       -1.824519    2.415700   -0.032691
     32          7           0       -5.779153    0.030619    0.106646
     33          8           0       -6.399323    1.082012    0.250171
     34          8           0       -6.285227   -1.088246    0.055024
 ---------------------------------------------------------------------

 SCF Done:  E(RHF) =  -669.535426779     A.U. after   15 cycles
 E2 =    -0.2091148460D+01 EUMP2 =    -0.67162657523957D+03

 The electronic state is 1-A.
 Alpha  occ. eigenvalues --  -20.60674 -20.60669 -15.85728 -11.31061 -11.27638
 Alpha  occ. eigenvalues --  -11.27634 -11.27270 -11.26626 -11.26612 -11.22656
 Alpha  occ. eigenvalues --  -11.22549 -11.22249 -11.22173 -11.22045 -11.21540
 Alpha  occ. eigenvalues --   -1.59751  -1.39305  -1.19229  -1.09247  -1.08619
 Alpha  occ. eigenvalues --   -1.04634  -1.04397  -0.96891  -0.95459  -0.87924
 Alpha  occ. eigenvalues --   -0.86025  -0.82306  -0.80490  -0.79009  -0.77361
 Alpha  occ. eigenvalues --   -0.71945  -0.71075  -0.70322  -0.65867  -0.64876
 Alpha  occ. eigenvalues --   -0.64641  -0.61991  -0.61788  -0.60271  -0.58479
 Alpha  occ. eigenvalues --   -0.56199  -0.55198  -0.53552  -0.53223  -0.52959
 Alpha  occ. eigenvalues --   -0.52718  -0.50816  -0.48797  -0.48703  -0.48673
 Alpha  occ. eigenvalues --   -0.47478  -0.46561  -0.46449  -0.44718  -0.44628
 Alpha  occ. eigenvalues --   -0.37190  -0.36248
 Alpha virt. eigenvalues --    0.05174   0.11401   0.16653   0.20337   0.22183
 Alpha virt. eigenvalues --    0.23706   0.25752   0.25829   0.26218   0.27313
 Alpha virt. eigenvalues --    0.29292   0.29568   0.30463   0.31511   0.31991

 Mulliken charges:
               1
     1  C   -0.299043
     2  C   -0.300188
     3  C   -0.476151
     4  H    0.151156
     5  H    0.151031
     6  H    0.152220
     7  H    0.152472
     8  H    0.156036
     9  H    0.156024
    10  H    0.161791
    11  C   -0.299356
    12  C   -0.299359
    13  C   -0.485267
    14  H    0.149265
    15  H    0.150303
    16  H    0.156071
    17  H    0.155742
    18  H    0.155784
    19  H    0.151864
    20  H    0.161191
    21  C   -0.177746
    22  C   -0.223066
    23  C   -0.170951
    24  C    0.157961
    25  C   -0.170686
    26  C   -0.220881
    27  H    0.241163
    28  H    0.223307
    29  H    0.275041
    30  H    0.274980
    31  H    0.222971
    32  N    0.488060
    33  O   -0.460860
    34  O   -0.460875
 Sum of Mulliken charges =  -0.00000

 Dipole moment (field-independent basis, Debye):
    X=              5.5342    Y=              0.2738    Z=             -0.4085  Tot=              5.5560
 Quadrupole moment (field-independent basis, Debye-Ang):
   XX=           -140.4095   YY=            -89.5115   ZZ=            -94.7666
   XY=             -1.1472   XZ=              1.5122   YZ=              0.8480

 Normal termination of Gaussian 16 at Thu May  6 18:41:31 2021.
