 Gaussian 16, Revision A.03,
 Gaussian 16:  EM64L-G16RevA.03 25-Dec-2016

 -------------
 #p 6-31g* mp2
 -------------

 ------------------------------------------------------
 Input file generated by CHIRIPA (05-May-2021 14:53:12)
 ------------------------------------------------------
 Symbolic Z-matrix:
 Charge =  0 Multiplicity = 1

                         Standard orientation:
 ---------------------------------------------------------------------
 Center     Atomic      Atomic             Coordinates (Angstroms)
 Number     Number       Type             X           Y           Z
 ---------------------------------------------------------------------
      1          6           0        3.071942    0.738678   -0.382643
      2          6           0        3.418424    2.227563   -0.416669
      3          6           0        2.198375    3.112719   -0.673131
      4          1           0        2.605539    0.455376   -1.336138
      5          1           0        2.319167    0.562275    0.398130
      6          1           0        4.171341    2.400888   -1.196214
      7          1           0        3.884231    2.507311    0.536945
      8          1           0        1.446806    2.969111    0.109889
      9          1           0        1.735548    2.862083   -1.633118
     10          1           0        2.468806    4.173056   -0.693442
     11          6           0        4.281289   -0.159068   -0.127180
     12          6           0        3.934808   -1.647952   -0.093153
     13          6           0        5.154857   -2.533109    0.163309
     14          1           0        5.034065    0.017335   -0.907953
     15          1           0        4.747692    0.124235    0.826315
     16          1           0        3.469001   -1.927701   -1.046768
     17          1           0        3.181891   -1.821277    0.686391
     18          1           0        5.617684   -2.282473    1.123295
     19          1           0        5.906426   -2.389501   -0.619712
     20          1           0        4.884425   -3.593446    0.183619
     21          6           0       -0.585633   -0.087071    1.256223
     22          6           0       -1.551822    0.881399    1.547883
     23          6           0       -2.822148    0.814174    0.967970
     24          6           0       -3.093428   -0.239881    0.096955
     25          6           0       -2.152048   -1.220043   -0.213488
     26          6           0       -0.888296   -1.132859    0.378017
     27          1           0        0.398633   -0.027096    1.711216
     28          1           0       -1.319569    1.694691    2.229542
     29          1           0       -3.588896    1.550474    1.176243
     30          1           0       -2.413071   -2.018970   -0.896864
     31          1           0       -0.139907   -1.886396    0.149674
     32          7           0       -4.434786   -0.321615   -0.523108
     33          8           0       -4.648877   -1.260204   -1.287212
     34          8           0       -5.246652    0.554458   -0.233270
 ---------------------------------------------------------------------

 SCF Done:  E(RHF) =  -669.535366189     A.U. after   15 cycles
 E2 =    -0.2092039359D+01 EUMP2 =    -0.67162740554835D+03

 The electronic state is 1-A.
 Alpha  occ. eigenvalues --  -20.60742 -20.60737 -15.85795 -11.31161 -11.27732
 Alpha  occ. eigenvalues --  -11.27722 -11.27464 -11.26754 -11.26724 -11.22581
 Alpha  occ. eigenvalues --  -11.22366 -11.22305 -11.22227 -11.21833 -11.21724
 Alpha  occ. eigenvalues --   -1.59817  -1.39371  -1.19333  -1.09306  -1.08728
 Alpha  occ. eigenvalues --   -1.04734  -1.04337  -0.96766  -0.95567  -0.87778
 Alpha  occ. eigenvalues --   -0.86132  -0.82400  -0.80410  -0.79142  -0.77439
 Alpha  occ. eigenvalues --   -0.72013  -0.71140  -0.70474  -0.65944  -0.64986
 Alpha  occ. eigenvalues --   -0.64729  -0.62082  -0.61735  -0.60137  -0.58386
 Alpha  occ. eigenvalues --   -0.56089  -0.55243  -0.53442  -0.53182  -0.53054
 Alpha  occ. eigenvalues --   -0.52825  -0.50705  -0.48779  -0.48769  -0.48709
 Alpha  occ. eigenvalues --   -0.47456  -0.46653  -0.46585  -0.44776  -0.44605
 Alpha  occ. eigenvalues --   -0.37282  -0.36335
 Alpha virt. eigenvalues --    0.05061   0.11263   0.16449   0.19119   0.22820
 Alpha virt. eigenvalues --    0.23224   0.25074   0.25826   0.26969   0.27598
 Alpha virt. eigenvalues --    0.30057   0.30506   0.30948   0.31254   0.31383

 Mulliken charges:
               1
     1  C   -0.300540
     2  C   -0.300591
     3  C   -0.475016
     4  H    0.153366
     5  H    0.140398
     6  H    0.155382
     7  H    0.151583
     8  H    0.150203
     9  H    0.159095
    10  H    0.162745
    11  C   -0.298590
    12  C   -0.299973
    13  C   -0.475889
    14  H    0.153740
    15  H    0.150408
    16  H    0.153062
    17  H    0.142737
    18  H    0.156611
    19  H    0.158434
    20  H    0.161669
    21  C   -0.169297
    22  C   -0.219836
    23  C   -0.170798
    24  C    0.158689
    25  C   -0.171242
    26  C   -0.219577
    27  H    0.226552
    28  H    0.223236
    29  H    0.275577
    30  H    0.275517
    31  H    0.225287
    32  N    0.488050
    33  O   -0.460527
    34  O   -0.460466
 Sum of Mulliken charges =  -0.00000

 Dipole moment (field-independent basis, Debye):
    X=              4.8908    Y=              0.3197    Z=              2.0768  Tot=              5.3231
 Quadrupole moment (field-independent basis, Debye-Ang):
   XX=           -124.1275   YY=            -92.0621   ZZ=            -92.7481
   XY=             -2.7832   XZ=             -7.7038   YZ=              1.9755

 Normal termination of Gaussian 16 at Thu May  6 10:23:49 2021.
