 Gaussian 16, Revision A.03,
 Gaussian 16:  EM64L-G16RevA.03 25-Dec-2016

 -------------
 #p 6-31g* mp2
 -------------

 ------------------------------------------------------
 Input file generated by CHIRIPA (05-May-2021 14:55:19)
 ------------------------------------------------------
 Symbolic Z-matrix:
 Charge =  0 Multiplicity = 1

                         Standard orientation:
 ---------------------------------------------------------------------
 Center     Atomic      Atomic             Coordinates (Angstroms)
 Number     Number       Type             X           Y           Z
 ---------------------------------------------------------------------
      1          6           0       -1.397762    2.361030   -0.123801
      2          6           0       -1.066173    1.229342   -0.876032
      3          6           0       -1.921973    0.124390   -0.911188
      4          6           0       -3.106591    0.185448   -0.178902
      5          6           0       -3.464894    1.298522    0.580028
      6          6           0       -2.593955    2.391954    0.600552
      7          1           0       -0.727075    3.214908   -0.102174
      8          1           0       -0.137858    1.202528   -1.439554
      9          1           0       -1.689916   -0.764479   -1.485190
     10          1           0       -4.397281    1.295773    1.131448
     11          1           0       -2.854054    3.269500    1.185620
     12          7           0       -4.020602   -0.978217   -0.208375
     13          8           0       -5.058345   -0.899536    0.445488
     14          8           0       -3.681953   -1.946943   -0.884779
     15          6           0        3.112861   -0.434402    0.584950
     16          6           0        2.179675   -1.609893    0.292769
     17          6           0        0.841783   -1.498622    1.024520
     18          1           0        3.289327   -0.374906    1.667662
     19          1           0        2.613512    0.501317    0.297760
     20          1           0        2.681175   -2.543223    0.579140
     21          1           0        2.005564   -1.666714   -0.789392
     22          1           0        0.317358   -0.583366    0.731461
     23          1           0        0.996809   -1.464855    2.107769
     24          1           0        0.190201   -2.349222    0.801404
     25          6           0        4.454375   -0.531318   -0.139396
     26          6           0        5.387559    0.644174    0.152785
     27          6           0        6.725451    0.532902   -0.578965
     28          1           0        4.953722   -1.467036    0.147795
     29          1           0        4.277908   -0.590814   -1.222108
     30          1           0        5.561671    0.700994    1.234946
     31          1           0        4.886060    1.577504   -0.133586
     32          1           0        6.570427    0.499135   -1.662214
     33          1           0        7.249877   -0.382354   -0.285907
     34          1           0        7.377033    1.383502   -0.355849
 ---------------------------------------------------------------------

 SCF Done:  E(RHF) =  -669.534355637     A.U. after   15 cycles
 E2 =    -0.2092922758D+01 EUMP2 =    -0.67162727839502D+03

 The electronic state is 1-A.
 Alpha  occ. eigenvalues --  -20.60791 -20.60786 -15.85846 -11.31226 -11.27811
 Alpha  occ. eigenvalues --  -11.27807 -11.27571 -11.26822 -11.26812 -11.22040
 Alpha  occ. eigenvalues --  -11.21960 -11.21872 -11.21797 -11.21441 -11.21108
 Alpha  occ. eigenvalues --   -1.59865  -1.39418  -1.19426  -1.08856  -1.08806
 Alpha  occ. eigenvalues --   -1.04848  -1.03880  -0.96321  -0.95637  -0.87334
 Alpha  occ. eigenvalues --   -0.86224  -0.82476  -0.79952  -0.78674  -0.77512
 Alpha  occ. eigenvalues --   -0.72065  -0.71188  -0.70524  -0.65515  -0.65074
 Alpha  occ. eigenvalues --   -0.64827  -0.62198  -0.61292  -0.59684  -0.57936
 Alpha  occ. eigenvalues --   -0.55710  -0.55325  -0.53319  -0.52994  -0.52879
 Alpha  occ. eigenvalues --   -0.52605  -0.50222  -0.48825  -0.48817  -0.48248
 Alpha  occ. eigenvalues --   -0.47000  -0.46200  -0.46160  -0.44819  -0.44150
 Alpha  occ. eigenvalues --   -0.37405  -0.36312
 Alpha virt. eigenvalues --    0.05024   0.11120   0.16432   0.20192   0.22758
 Alpha virt. eigenvalues --    0.23988   0.25812   0.26772   0.27520   0.28298
 Alpha virt. eigenvalues --    0.28653   0.30373   0.31334   0.31545   0.31861

 Mulliken charges:
               1
     1  C   -0.170271
     2  C   -0.223074
     3  C   -0.167116
     4  C    0.159718
     5  C   -0.170589
     6  C   -0.218547
     7  H    0.226061
     8  H    0.225149
     9  H    0.276776
    10  H    0.275957
    11  H    0.223778
    12  N    0.488236
    13  O   -0.460245
    14  O   -0.460463
    15  C   -0.296845
    16  C   -0.299721
    17  C   -0.486772
    18  H    0.152007
    19  H    0.140973
    20  H    0.155237
    21  H    0.146211
    22  H    0.161615
    23  H    0.155747
    24  H    0.164959
    25  C   -0.298292
    26  C   -0.299257
    27  C   -0.475833
    28  H    0.152178
    29  H    0.148168
    30  H    0.153052
    31  H    0.148581
    32  H    0.155048
    33  H    0.156764
    34  H    0.160809
 Sum of Mulliken charges =  -0.00000

 Dipole moment (field-independent basis, Debye):
    X=              3.1807    Y=              4.0813    Z=              0.1431  Tot=              5.1763
 Quadrupole moment (field-independent basis, Debye-Ang):
   XX=           -113.8128   YY=            -92.2534   ZZ=            -93.0470
   XY=            -14.3664   XZ=             -2.2657   YZ=              0.5814

 Normal termination of Gaussian 16 at Thu May  6 20:36:00 2021.
