 Gaussian 16, Revision A.03,
 Gaussian 16:  EM64L-G16RevA.03 25-Dec-2016

 -------------
 #p 6-31g* mp2
 -------------

 ------------------------------------------------------
 Input file generated by CHIRIPA (05-May-2021 14:53:17)
 ------------------------------------------------------
 Symbolic Z-matrix:
 Charge =  0 Multiplicity = 1

                         Standard orientation:
 ---------------------------------------------------------------------
 Center     Atomic      Atomic             Coordinates (Angstroms)
 Number     Number       Type             X           Y           Z
 ---------------------------------------------------------------------
      1          6           0       -5.776432   -0.207554    0.099125
      2          6           0       -6.757884    0.959137   -0.017361
      3          6           0       -8.218584    0.508944    0.021029
      4          1           0       -5.963911   -0.918970   -0.716770
      5          1           0       -5.969940   -0.748252    1.035925
      6          1           0       -6.561674    1.498303   -0.952999
      7          1           0       -6.567920    1.667953    0.798794
      8          1           0       -8.437082   -0.010445    0.959695
      9          1           0       -8.430800   -0.181059   -0.802051
     10          1           0       -8.902978    1.358817   -0.063716
     11          6           0       -4.312214    0.226541    0.062306
     12          6           0       -3.330762   -0.940151    0.178792
     13          6           0       -1.870062   -0.489958    0.140401
     14          1           0       -4.118706    0.767239   -0.874495
     15          1           0       -4.124735    0.937956    0.878201
     16          1           0       -3.520726   -1.648966   -0.637364
     17          1           0       -3.526972   -1.479316    1.114430
     18          1           0       -1.657846    0.200046    0.963482
     19          1           0       -1.651565    0.029432   -0.798265
     20          1           0       -1.185668   -1.339830    0.225146
     21          6           0        6.154912    1.152991    0.279617
     22          6           0        6.069839   -0.238910    0.388679
     23          6           0        4.848319   -0.892478    0.200831
     24          6           0        3.726832   -0.119600   -0.096187
     25          6           0        3.779460    1.268646   -0.211483
     26          6           0        5.011467    1.901007   -0.019589
     27          1           0        7.107891    1.652461    0.427114
     28          1           0        6.956211   -0.822383    0.620946
     29          1           0        4.754104   -1.968751    0.279410
     30          1           0        2.878574    1.823374   -0.444078
     31          1           0        5.074564    2.982112   -0.104901
     32          7           0        2.428113   -0.800278   -0.297196
     33          8           0        1.454692   -0.096657   -0.557974
     34          8           0        2.408189   -2.024527   -0.190162
 ---------------------------------------------------------------------

 SCF Done:  E(RHF) =  -669.535782749     A.U. after   15 cycles
 E2 =    -0.2091024633D+01 EUMP2 =    -0.67162680738165D+03

 The electronic state is 1-A.
 Alpha  occ. eigenvalues --  -20.60895 -20.60877 -15.85915 -11.31263 -11.27828
 Alpha  occ. eigenvalues --  -11.27824 -11.27570 -11.26840 -11.26831 -11.20997
 Alpha  occ. eigenvalues --  -11.20613 -11.20572 -11.20400 -11.20256 -11.19166
 Alpha  occ. eigenvalues --   -1.59947  -1.39502  -1.19433  -1.08833  -1.07517
 Alpha  occ. eigenvalues --   -1.04832  -1.02498  -0.95675  -0.94902  -0.86233
 Alpha  occ. eigenvalues --   -0.85908  -0.82502  -0.78598  -0.77555  -0.77283
 Alpha  occ. eigenvalues --   -0.72124  -0.71262  -0.70541  -0.65087  -0.64835
 Alpha  occ. eigenvalues --   -0.64165  -0.62179  -0.59911  -0.58361  -0.56506
 Alpha  occ. eigenvalues --   -0.55337  -0.54216  -0.53164  -0.52925  -0.51575
 Alpha  occ. eigenvalues --   -0.51336  -0.48972  -0.48894  -0.48741  -0.46887
 Alpha  occ. eigenvalues --   -0.45676  -0.44935  -0.44787  -0.44736  -0.42691
 Alpha  occ. eigenvalues --   -0.37413  -0.36435
 Alpha virt. eigenvalues --    0.04972   0.11220   0.16465   0.21355   0.23690
 Alpha virt. eigenvalues --    0.25377   0.27270   0.27495   0.28201   0.28339
 Alpha virt. eigenvalues --    0.29144   0.30923   0.32372   0.32442   0.32622

 Mulliken charges:
               1
     1  C   -0.297191
     2  C   -0.298801
     3  C   -0.475154
     4  H    0.148705
     5  H    0.148003
     6  H    0.150888
     7  H    0.150465
     8  H    0.154360
     9  H    0.154623
    10  H    0.158125
    11  C   -0.296855
    12  C   -0.302632
    13  C   -0.467452
    14  H    0.147885
    15  H    0.146658
    16  H    0.149335
    17  H    0.146820
    18  H    0.145982
    19  H    0.157774
    20  H    0.174223
    21  C   -0.170677
    22  C   -0.218590
    23  C   -0.170698
    24  C    0.158048
    25  C   -0.170903
    26  C   -0.218563
    27  H    0.225850
    28  H    0.223677
    29  H    0.275757
    30  H    0.275920
    31  H    0.223720
    32  N    0.489666
    33  O   -0.458394
    34  O   -0.460578
 Sum of Mulliken charges =  -0.00000

 Dipole moment (field-independent basis, Debye):
    X=              4.9651    Y=              2.3674    Z=              0.6541  Tot=              5.5393
 Quadrupole moment (field-independent basis, Debye-Ang):
   XX=            -63.0531   YY=            -91.6230   ZZ=            -94.6949
   XY=              6.2487   XZ=              2.8641   YZ=             -1.0767

 Normal termination of Gaussian 16 at Thu May  6 13:56:17 2021.
