 Gaussian 16, Revision A.03,
 Gaussian 16:  EM64L-G16RevA.03 25-Dec-2016

 -------------
 #p 6-31g* mp2
 -------------

 ------------------------------------------------------
 Input file generated by CHIRIPA (05-May-2021 14:55:25)
 ------------------------------------------------------
 Symbolic Z-matrix:
 Charge =  0 Multiplicity = 1

                         Standard orientation:
 ---------------------------------------------------------------------
 Center     Atomic      Atomic             Coordinates (Angstroms)
 Number     Number       Type             X           Y           Z
 ---------------------------------------------------------------------
      1          6           0        2.052868   -2.446309    1.155796
      2          6           0        3.351409   -2.090498    0.776705
      3          6           0        3.590263   -0.889197    0.102633
      4          6           0        2.502382   -0.063785   -0.177546
      5          6           0        1.197136   -0.390457    0.187020
      6          6           0        0.981764   -1.596651    0.860264
      7          1           0        1.876441   -3.381410    1.679109
      8          1           0        4.185158   -2.748400    1.004899
      9          1           0        4.585423   -0.589182   -0.202432
     10          1           0        0.386201    0.285958   -0.054358
     11          1           0       -0.027761   -1.870405    1.153456
     12          7           0        2.742816    1.210569   -0.890718
     13          8           0        1.767350    1.920379   -1.125819
     14          8           0        3.902183    1.475468   -1.201098
     15          6           0       -3.769581   -0.068921   -0.086078
     16          6           0       -3.444376   -1.359553   -0.838735
     17          6           0       -4.689472   -2.187777   -1.157445
     18          1           0       -4.294549   -0.318031    0.846283
     19          1           0       -4.466825    0.531706   -0.686489
     20          1           0       -2.746872   -1.956933   -0.237701
     21          1           0       -2.919951   -1.107352   -1.769320
     22          1           0       -5.385765   -1.613682   -1.777276
     23          1           0       -5.211703   -2.468089   -0.236955
     24          1           0       -4.433987   -3.105914   -1.695600
     25          6           0       -2.535074    0.769883    0.239696
     26          6           0       -2.860279    2.060516    0.992353
     27          6           0       -1.615182    2.888739    1.311063
     28          1           0       -1.837830    0.169256    0.840108
     29          1           0       -2.010106    1.018993   -0.692665
     30          1           0       -3.384704    1.808315    1.922938
     31          1           0       -3.557784    2.657895    0.391320
     32          1           0       -1.092953    3.169051    0.390573
     33          1           0       -0.918889    2.314644    1.930894
     34          1           0       -1.870667    3.806876    1.849219
 ---------------------------------------------------------------------

 SCF Done:  E(RHF) =  -669.535412025     A.U. after   15 cycles
 E2 =    -0.2093110046D+01 EUMP2 =    -0.67162852207048D+03

 The electronic state is 1-A.
 Alpha  occ. eigenvalues --  -20.60726 -20.60721 -15.85771 -11.31072 -11.27676
 Alpha  occ. eigenvalues --  -11.27558 -11.27422 -11.26684 -11.26655 -11.22186
 Alpha  occ. eigenvalues --  -11.22017 -11.21875 -11.21820 -11.21519 -11.20966
 Alpha  occ. eigenvalues --   -1.59795  -1.39350  -1.19260  -1.08915  -1.08673
 Alpha  occ. eigenvalues --   -1.04660  -1.03874  -0.96309  -0.95511  -0.87324
 Alpha  occ. eigenvalues --   -0.86062  -0.82353  -0.79950  -0.78850  -0.77346
 Alpha  occ. eigenvalues --   -0.71994  -0.71113  -0.70376  -0.65560  -0.64910
 Alpha  occ. eigenvalues --   -0.64669  -0.62029  -0.61256  -0.59694  -0.57929
 Alpha  occ. eigenvalues --   -0.55579  -0.55183  -0.52995  -0.52960  -0.52875
 Alpha  occ. eigenvalues --   -0.52612  -0.50244  -0.48750  -0.48747  -0.48232
 Alpha  occ. eigenvalues --   -0.46979  -0.46259  -0.46177  -0.44764  -0.44173
 Alpha  occ. eigenvalues --   -0.37255  -0.36256
 Alpha virt. eigenvalues --    0.05113   0.11362   0.16585   0.19543   0.22793
 Alpha virt. eigenvalues --    0.23514   0.24521   0.25991   0.27451   0.28344
 Alpha virt. eigenvalues --    0.30003   0.30825   0.31437   0.31583   0.32008

 Mulliken charges:
               1
     1  C   -0.170441
     2  C   -0.219330
     3  C   -0.170004
     4  C    0.157175
     5  C   -0.178550
     6  C   -0.226210
     7  H    0.225208
     8  H    0.223005
     9  H    0.275151
    10  H    0.290161
    11  H    0.225517
    12  N    0.488269
    13  O   -0.462110
    14  O   -0.460457
    15  C   -0.297095
    16  C   -0.300699
    17  C   -0.475944
    18  H    0.150061
    19  H    0.154312
    20  H    0.142960
    21  H    0.156035
    22  H    0.158289
    23  H    0.155206
    24  H    0.161154
    25  C   -0.310021
    26  C   -0.298641
    27  C   -0.482373
    28  H    0.139415
    29  H    0.158722
    30  H    0.150867
    31  H    0.155321
    32  H    0.171890
    33  H    0.151163
    34  H    0.161995
 Sum of Mulliken charges =  -0.00000

 Dipole moment (field-independent basis, Debye):
    X=             -1.0049    Y=             -4.3092    Z=              2.4013  Tot=              5.0344
 Quadrupole moment (field-independent basis, Debye-Ang):
   XX=            -94.3527   YY=            -94.4459   ZZ=            -95.8128
   XY=            -13.3077   XZ=              6.4705   YZ=             -0.0322

 Normal termination of Gaussian 16 at Thu May  6 03:13:24 2021.
