 Gaussian 16, Revision A.03,
 Gaussian 16:  EM64L-G16RevA.03 25-Dec-2016

 -------------
 #p 6-31g* mp2
 -------------

 ------------------------------------------------------
 Input file generated by CHIRIPA (05-May-2021 14:51:10)
 ------------------------------------------------------
 Symbolic Z-matrix:
 Charge =  0 Multiplicity = 1

                         Standard orientation:
 ---------------------------------------------------------------------
 Center     Atomic      Atomic             Coordinates (Angstroms)
 Number     Number       Type             X           Y           Z
 ---------------------------------------------------------------------
      1          6           0       -2.819118    0.184197   -0.330804
      2          6           0       -2.749332    1.513485    0.421599
      3          6           0       -3.418193    2.658995   -0.338814
      4          1           0       -2.342734    0.301119   -1.313826
      5          1           0       -3.871851   -0.066403   -0.521456
      6          1           0       -1.697099    1.760817    0.611991
      7          1           0       -3.225768    1.393332    1.403020
      8          1           0       -4.475721    2.438047   -0.516058
      9          1           0       -2.938367    2.807619   -1.311583
     10          1           0       -3.356698    3.599773    0.217077
     11          6           0       -2.154719   -0.970616    0.416664
     12          6           0       -2.224506   -2.299903   -0.335738
     13          6           0       -1.555645   -3.445413    0.424674
     14          1           0       -1.101987   -0.720015    0.607316
     15          1           0       -2.631103   -1.087538    1.399687
     16          1           0       -1.748070   -2.179751   -1.317160
     17          1           0       -3.276738   -2.547235   -0.526130
     18          1           0       -2.035470   -3.594038    1.397443
     19          1           0       -0.498116   -3.224465    0.601919
     20          1           0       -1.617139   -4.386192   -0.131216
     21          6           0        2.663580    1.074165    0.254596
     22          6           0        1.828037    2.220484   -0.316199
     23          6           0        2.193121    3.576379    0.288827
     24          1           0        2.530020    1.038876    1.344486
     25          1           0        3.727886    1.281505    0.076665
     26          1           0        0.765548    2.010376   -0.138469
     27          1           0        1.963453    2.252927   -1.404879
     28          1           0        3.245336    3.812036    0.099324
     29          1           0        2.040626    3.568108    1.372929
     30          1           0        1.583765    4.381553   -0.133355
     31          6           0        2.310257   -0.287746   -0.340456
     32          6           0        3.145801   -1.434066    0.230338
     33          6           0        2.780716   -2.789961   -0.374687
     34          1           0        1.245953   -0.495087   -0.162526
     35          1           0        2.443818   -0.252458   -1.430347
     36          1           0        3.010386   -1.466508    1.319019
     37          1           0        4.208290   -1.223958    0.052608
     38          1           0        2.933212   -2.781689   -1.458790
     39          1           0        1.728501   -3.025618   -0.185184
     40          1           0        3.390074   -3.595134    0.047495
 ---------------------------------------------------------------------

 SCF Done:  E(RHF) =  -470.732827452     A.U. after   11 cycles
 E2 =    -0.1584817893D+01 EUMP2 =    -0.47231764534514D+03

 The electronic state is 1-A.
 Alpha  occ. eigenvalues --  -11.21657 -11.21640 -11.21636 -11.21634 -11.21459
 Alpha  occ. eigenvalues --  -11.21443 -11.21399 -11.21382 -11.21106 -11.21105
 Alpha  occ. eigenvalues --  -11.21088 -11.21081  -1.08511  -1.08446  -1.03604
 Alpha  occ. eigenvalues --   -1.03537  -0.96058  -0.95979  -0.87088  -0.86983
 Alpha  occ. eigenvalues --   -0.79711  -0.79559  -0.78402  -0.78194  -0.65386
 Alpha  occ. eigenvalues --   -0.64852  -0.61250  -0.60724  -0.59412  -0.59343
 Alpha  occ. eigenvalues --   -0.57720  -0.57566  -0.55607  -0.55046  -0.52721
 Alpha  occ. eigenvalues --   -0.52693  -0.52554  -0.52333  -0.50234  -0.49635
 Alpha  occ. eigenvalues --   -0.48151  -0.47815  -0.46939  -0.46409  -0.46309
 Alpha  occ. eigenvalues --   -0.45818  -0.45785  -0.45152  -0.43831  -0.43812
 Alpha virt. eigenvalues --    0.18942   0.21617   0.23725   0.25277   0.25523
 Alpha virt. eigenvalues --    0.26279   0.26943   0.27334   0.28803   0.29323
 Alpha virt. eigenvalues --    0.31354   0.31536   0.31663   0.31800   0.32127

 Mulliken charges:
               1
     1  C   -0.298033
     2  C   -0.305704
     3  C   -0.475577
     4  H    0.150365
     5  H    0.149864
     6  H    0.156649
     7  H    0.152164
     8  H    0.155310
     9  H    0.155564
    10  H    0.160350
    11  C   -0.305256
    12  C   -0.299741
    13  C   -0.482039
    14  H    0.154411
    15  H    0.150043
    16  H    0.152811
    17  H    0.152389
    18  H    0.155557
    19  H    0.160092
    20  H    0.160945
    21  C   -0.297555
    22  C   -0.306679
    23  C   -0.475444
    24  H    0.149762
    25  H    0.150028
    26  H    0.157116
    27  H    0.152146
    28  H    0.155442
    29  H    0.155333
    30  H    0.160547
    31  C   -0.306601
    32  C   -0.299070
    33  C   -0.483105
    34  H    0.155765
    35  H    0.149928
    36  H    0.151943
    37  H    0.152325
    38  H    0.155351
    39  H    0.161832
    40  H    0.160774
 Sum of Mulliken charges =  -0.00000

 Dipole moment (field-independent basis, Debye):
    X=             -0.0059    Y=             -0.0007    Z=             -0.0068  Tot=              0.0091
 Quadrupole moment (field-independent basis, Debye-Ang):
   XX=            -83.6591   YY=            -86.6138   ZZ=            -84.3085
   XY=              0.5696   XZ=             -1.1523   YZ=             -0.1622

 Normal termination of Gaussian 16 at Thu May  6 00:38:13 2021.
