 Gaussian 16, Revision A.03,
 Gaussian 16:  EM64L-G16RevA.03 25-Dec-2016

 -------------
 #p 6-31g* mp2
 -------------

 ------------------------------------------------------
 Input file generated by CHIRIPA (05-May-2021 14:55:20)
 ------------------------------------------------------
 Symbolic Z-matrix:
 Charge =  0 Multiplicity = 1

                         Standard orientation:
 ---------------------------------------------------------------------
 Center     Atomic      Atomic             Coordinates (Angstroms)
 Number     Number       Type             X           Y           Z
 ---------------------------------------------------------------------
      1          6           0       -0.545935   -0.123341    1.109633
      2          6           0       -0.850411    0.755408    0.064829
      3          6           0       -2.135303    0.786283   -0.485304
      4          6           0       -3.095745   -0.079247    0.035942
      5          6           0       -2.823211   -0.966099    1.076379
      6          6           0       -1.531569   -0.979780    1.611190
      7          1           0        0.454822   -0.140647    1.531039
      8          1           0       -0.086949    1.421662   -0.326678
      9          1           0       -2.398215    1.456581   -1.294623
     10          1           0       -3.605288   -1.618326    1.445666
     11          1           0       -1.297960   -1.663276    2.422550
     12          7           0       -4.459576   -0.055663   -0.538349
     13          8           0       -5.287979   -0.828266   -0.061411
     14          8           0       -4.674318    0.734980   -1.454541
     15          6           0        3.790753   -0.482893   -0.639086
     16          6           0        4.044841   -1.802702    0.089974
     17          6           0        4.274948   -2.972250   -0.867627
     18          1           0        2.918477   -0.596896   -1.297177
     19          1           0        4.647192   -0.261297   -1.290856
     20          1           0        3.188791   -2.021047    0.741219
     21          1           0        4.916498   -1.685487    0.746549
     22          1           0        5.141185   -2.780291   -1.509020
     23          1           0        3.403662   -3.117757   -1.514381
     24          1           0        4.454589   -3.905786   -0.325317
     25          6           0        3.558928    0.695717    0.304770
     26          6           0        3.304841    2.015526   -0.424291
     27          6           0        3.074733    3.185074    0.533310
     28          1           0        2.702489    0.474120    0.956539
     29          1           0        4.431204    0.809720    0.962860
     30          1           0        2.433184    1.898310   -1.080865
     31          1           0        4.160890    2.233870   -1.075535
     32          1           0        3.946019    3.330581    1.180064
     33          1           0        2.208496    2.993114    1.174704
     34          1           0        2.895092    4.118610   -0.009000
 ---------------------------------------------------------------------

 SCF Done:  E(RHF) =  -669.535304665     A.U. after   15 cycles
 E2 =    -0.2092248849D+01 EUMP2 =    -0.67162755351422D+03

 The electronic state is 1-A.
 Alpha  occ. eigenvalues --  -20.60759 -20.60754 -15.85813 -11.31183 -11.27753
 Alpha  occ. eigenvalues --  -11.27749 -11.27480 -11.26767 -11.26753 -11.22771
 Alpha  occ. eigenvalues --  -11.22608 -11.22476 -11.22321 -11.22128 -11.21735
 Alpha  occ. eigenvalues --   -1.59835  -1.39388  -1.19355  -1.09490  -1.08748
 Alpha  occ. eigenvalues --   -1.04761  -1.04502  -0.96935  -0.95586  -0.87943
 Alpha  occ. eigenvalues --   -0.86157  -0.82421  -0.80576  -0.79293  -0.77464
 Alpha  occ. eigenvalues --   -0.72031  -0.71158  -0.70500  -0.66193  -0.65003
 Alpha  occ. eigenvalues --   -0.64724  -0.62196  -0.61797  -0.60305  -0.58544
 Alpha  occ. eigenvalues --   -0.56289  -0.55243  -0.53594  -0.53339  -0.53086
 Alpha  occ. eigenvalues --   -0.52846  -0.50876  -0.48877  -0.48791  -0.48785
 Alpha  occ. eigenvalues --   -0.47636  -0.46810  -0.46740  -0.44793  -0.44770
 Alpha  occ. eigenvalues --   -0.37335  -0.36363
 Alpha virt. eigenvalues --    0.05066   0.11249   0.16524   0.17656   0.22638
 Alpha virt. eigenvalues --    0.23203   0.24560   0.25433   0.27043   0.28142
 Alpha virt. eigenvalues --    0.29577   0.30523   0.30868   0.31235   0.31649

 Mulliken charges:
               1
     1  C   -0.177296
     2  C   -0.226350
     3  C   -0.171580
     4  C    0.158656
     5  C   -0.170806
     6  C   -0.219270
     7  H    0.232937
     8  H    0.230269
     9  H    0.275966
    10  H    0.275562
    11  H    0.223876
    12  N    0.487990
    13  O   -0.460427
    14  O   -0.460402
    15  C   -0.299506
    16  C   -0.299150
    17  C   -0.476521
    18  H    0.150976
    19  H    0.153897
    20  H    0.146374
    21  H    0.153962
    22  H    0.157384
    23  H    0.157381
    24  H    0.162252
    25  C   -0.302262
    26  C   -0.303635
    27  C   -0.477381
    28  H    0.140188
    29  H    0.155239
    30  H    0.147317
    31  H    0.158885
    32  H    0.159922
    33  H    0.150899
    34  H    0.164658
 Sum of Mulliken charges =  -0.00000

 Dipole moment (field-independent basis, Debye):
    X=              5.0568    Y=             -0.0800    Z=              1.9523  Tot=              5.4212
 Quadrupole moment (field-independent basis, Debye-Ang):
   XX=           -122.6004   YY=            -92.9901   ZZ=            -93.3499
   XY=              1.5565   XZ=             -7.2809   YZ=             -3.3336

 Normal termination of Gaussian 16 at Wed May  5 20:34:22 2021.
