 Gaussian 16, Revision A.03,
 Gaussian 16:  EM64L-G16RevA.03 25-Dec-2016

 -------------
 #p 6-31g* mp2
 -------------

 ------------------------------------------------------
 Input file generated by CHIRIPA (05-May-2021 14:51:13)
 ------------------------------------------------------
 Symbolic Z-matrix:
 Charge =  0 Multiplicity = 1

                         Standard orientation:
 ---------------------------------------------------------------------
 Center     Atomic      Atomic             Coordinates (Angstroms)
 Number     Number       Type             X           Y           Z
 ---------------------------------------------------------------------
      1          6           0       -4.201406   -0.084057   -0.168828
      2          6           0       -3.912379   -1.584963   -0.127233
      3          6           0       -5.175655   -2.434418   -0.269891
      4          1           0       -4.907837    0.169228    0.633511
      5          1           0       -4.703205    0.159544   -1.115533
      6          1           0       -3.410031   -1.825436    0.818513
      7          1           0       -3.206406   -1.834671   -0.929643
      8          1           0       -5.676426   -2.223483   -1.220331
      9          1           0       -5.881208   -2.214195    0.537758
     10          1           0       -4.945991   -3.504028   -0.237489
     11          6           0       -2.948395    0.778323   -0.027433
     12          6           0       -3.237421    2.279229   -0.069028
     13          6           0       -1.974145    3.128685    0.073630
     14          1           0       -2.446595    0.534723    0.919272
     15          1           0       -2.241963    0.525039   -0.829772
     16          1           0       -3.943395    2.528938    0.733382
     17          1           0       -3.739769    2.519702   -1.014774
     18          1           0       -1.268592    2.908461   -0.734019
     19          1           0       -1.473374    2.917750    1.024070
     20          1           0       -2.203809    4.198294    0.041228
     21          6           0        2.867793   -0.061811    0.143106
     22          6           0        1.814354   -1.107234    0.510996
     23          6           0        0.404778   -0.521168    0.597113
     24          1           0        2.849707    0.745549    0.887947
     25          1           0        2.600223    0.395126   -0.819707
     26          1           0        2.084571   -1.563042    1.472160
     27          1           0        1.835081   -1.912293   -0.234702
     28          1           0        0.110468   -0.083040   -0.362067
     29          1           0        0.361376    0.268194    1.354493
     30          1           0       -0.332443   -1.285736    0.861315
     31          6           0        4.282008   -0.632455    0.053155
     32          6           0        5.335446    0.412967   -0.314735
     33          6           0        6.745022   -0.173098   -0.400853
     34          1           0        4.549578   -1.089393    1.015968
     35          1           0        4.300093   -1.439815   -0.691686
     36          1           0        5.314719    1.218026    0.430963
     37          1           0        5.065229    0.868776   -1.275900
     38          1           0        6.788424   -0.962461   -1.158233
     39          1           0        7.039332   -0.611226    0.558327
     40          1           0        7.482243    0.591470   -0.665054
 ---------------------------------------------------------------------

 SCF Done:  E(RHF) =  -470.732434675     A.U. after   11 cycles
 E2 =    -0.1583601708D+01 EUMP2 =    -0.47231603638338D+03

 The electronic state is 1-A.
 Alpha  occ. eigenvalues --  -11.21580 -11.21573 -11.21523 -11.21523 -11.21372
 Alpha  occ. eigenvalues --  -11.21316 -11.21312 -11.21205 -11.21056 -11.21050
 Alpha  occ. eigenvalues --  -11.21017 -11.20955  -1.08407  -1.08346  -1.03505
 Alpha  occ. eigenvalues --   -1.03458  -0.95979  -0.95881  -0.87017  -0.86888
 Alpha  occ. eigenvalues --   -0.79664  -0.79482  -0.78285  -0.78035  -0.65065
 Alpha  occ. eigenvalues --   -0.64962  -0.60938  -0.60829  -0.59348  -0.59267
 Alpha  occ. eigenvalues --   -0.57543  -0.57533  -0.55292  -0.55153  -0.52776
 Alpha  occ. eigenvalues --   -0.52574  -0.52429  -0.52221  -0.49957  -0.49810
 Alpha  occ. eigenvalues --   -0.48068  -0.47674  -0.46706  -0.46514  -0.45920
 Alpha  occ. eigenvalues --   -0.45735  -0.45553  -0.45399  -0.43749  -0.43646
 Alpha virt. eigenvalues --    0.21625   0.23091   0.23746   0.24436   0.25241
 Alpha virt. eigenvalues --    0.26090   0.26950   0.27439   0.28020   0.29764
 Alpha virt. eigenvalues --    0.30036   0.30663   0.31759   0.32080   0.32361

 Mulliken charges:
               1
     1  C   -0.297924
     2  C   -0.300313
     3  C   -0.475625
     4  H    0.149042
     5  H    0.148849
     6  H    0.151906
     7  H    0.152070
     8  H    0.155163
     9  H    0.155134
    10  H    0.160014
    11  C   -0.301094
    12  C   -0.299616
    13  C   -0.475614
    14  H    0.155072
    15  H    0.151569
    16  H    0.151268
    17  H    0.151141
    18  H    0.154885
    19  H    0.155361
    20  H    0.159777
    21  C   -0.298148
    22  C   -0.301501
    23  C   -0.475568
    24  H    0.149636
    25  H    0.149093
    26  H    0.151182
    27  H    0.151382
    28  H    0.157447
    29  H    0.154203
    30  H    0.161482
    31  C   -0.298151
    32  C   -0.299577
    33  C   -0.475676
    34  H    0.149440
    35  H    0.149485
    36  H    0.151952
    37  H    0.151823
    38  H    0.155105
    39  H    0.155140
    40  H    0.160186
 Sum of Mulliken charges =  -0.00000

 Dipole moment (field-independent basis, Debye):
    X=             -0.0092    Y=              0.0014    Z=              0.0055  Tot=              0.0108
 Quadrupole moment (field-independent basis, Debye-Ang):
   XX=            -86.8601   YY=            -85.5161   ZZ=            -82.7511
   XY=             -0.2366   XZ=              0.0194   YZ=              0.1380

 Normal termination of Gaussian 16 at Wed May  5 19:58:40 2021.
