 Gaussian 16, Revision A.03,
 Gaussian 16:  EM64L-G16RevA.03 25-Dec-2016

 -------------
 #p 6-31g* mp2
 -------------

 ------------------------------------------------------
 Input file generated by CHIRIPA (05-May-2021 14:55:24)
 ------------------------------------------------------
 Symbolic Z-matrix:
 Charge =  0 Multiplicity = 1

                         Standard orientation:
 ---------------------------------------------------------------------
 Center     Atomic      Atomic             Coordinates (Angstroms)
 Number     Number       Type             X           Y           Z
 ---------------------------------------------------------------------
      1          6           0       -2.792563   -2.333260    0.470749
      2          6           0       -1.908837   -1.391550    1.008087
      3          6           0       -2.141277   -0.023183    0.840484
      4          6           0       -3.272335    0.370032    0.126775
      5          6           0       -4.171396   -0.543947   -0.420602
      6          6           0       -3.919036   -1.907204   -0.240626
      7          1           0       -2.604260   -3.394256    0.605753
      8          1           0       -1.033196   -1.719538    1.561008
      9          1           0       -1.473523    0.727273    1.245870
     10          1           0       -5.035776   -0.186512   -0.966960
     11          1           0       -4.607068   -2.636304   -0.659040
     12          7           0       -3.528954    1.815956   -0.057208
     13          8           0       -4.532596    2.136646   -0.690057
     14          8           0       -2.721590    2.601203    0.434919
     15          6           0        4.606313    0.429801   -0.149264
     16          6           0        6.045090    0.039805    0.191038
     17          6           0        6.977062    1.247771    0.291247
     18          1           0        4.597584    0.981265   -1.099399
     19          1           0        4.230275    1.121622    0.617139
     20          1           0        6.417832   -0.652158   -0.575034
     21          1           0        6.050372   -0.510960    1.140378
     22          1           0        6.631953    1.937158    1.068581
     23          1           0        7.001500    1.795158   -0.656577
     24          1           0        8.000442    0.946122    0.535295
     25          6           0        3.662594   -0.767020   -0.252906
     26          6           0        2.223816   -0.377025   -0.593209
     27          6           0        1.291844   -1.584991   -0.693418
     28          1           0        4.038632   -1.458841   -1.019310
     29          1           0        3.671322   -1.318484    0.697228
     30          1           0        2.218535    0.173741   -1.542549
     31          1           0        1.851074    0.314939    0.172863
     32          1           0        1.267407   -2.132377    0.254406
     33          1           0        1.636953   -2.274377   -1.470752
     34          1           0        0.268464   -1.283341   -0.937466
 ---------------------------------------------------------------------

 SCF Done:  E(RHF) =  -669.534768931     A.U. after   15 cycles
 E2 =    -0.2092112461D+01 EUMP2 =    -0.67162688139240D+03

 The electronic state is 1-A.
 Alpha  occ. eigenvalues --  -20.60771 -20.60766 -15.85823 -11.31200 -11.27742
 Alpha  occ. eigenvalues --  -11.27737 -11.27474 -11.26781 -11.26742 -11.22003
 Alpha  occ. eigenvalues --  -11.21782 -11.21717 -11.21578 -11.21558 -11.21187
 Alpha  occ. eigenvalues --   -1.59846  -1.39399  -1.19367  -1.08764  -1.08713
 Alpha  occ. eigenvalues --   -1.04775  -1.03832  -0.96292  -0.95590  -0.87323
 Alpha  occ. eigenvalues --   -0.86152  -0.82422  -0.79901  -0.78514  -0.77470
 Alpha  occ. eigenvalues --   -0.72041  -0.71169  -0.70458  -0.65370  -0.65012
 Alpha  occ. eigenvalues --   -0.64767  -0.62149  -0.61215  -0.59671  -0.57899
 Alpha  occ. eigenvalues --   -0.55622  -0.55239  -0.53427  -0.52922  -0.52725
 Alpha  occ. eigenvalues --   -0.52548  -0.50228  -0.48799  -0.48796  -0.48209
 Alpha  occ. eigenvalues --   -0.46938  -0.46060  -0.45979  -0.44802  -0.44081
 Alpha  occ. eigenvalues --   -0.37331  -0.36302
 Alpha virt. eigenvalues --    0.05046   0.11268   0.16510   0.20408   0.22773
 Alpha virt. eigenvalues --    0.24005   0.25940   0.26451   0.27108   0.28352
 Alpha virt. eigenvalues --    0.28613   0.29927   0.31329   0.31532   0.32186

 Mulliken charges:
               1
     1  C   -0.172375
     2  C   -0.214701
     3  C   -0.173681
     4  C    0.159017
     5  C   -0.171647
     6  C   -0.218194
     7  H    0.226000
     8  H    0.226621
     9  H    0.275786
    10  H    0.275522
    11  H    0.223535
    12  N    0.488073
    13  O   -0.460364
    14  O   -0.460341
    15  C   -0.298715
    16  C   -0.299798
    17  C   -0.475928
    18  H    0.151594
    19  H    0.150445
    20  H    0.151948
    21  H    0.151160
    22  H    0.155938
    23  H    0.156167
    24  H    0.160532
    25  C   -0.298114
    26  C   -0.299469
    27  C   -0.482075
    28  H    0.150267
    29  H    0.147222
    30  H    0.156762
    31  H    0.149177
    32  H    0.143771
    33  H    0.156604
    34  H    0.169261
 Sum of Mulliken charges =  -0.00000

 Dipole moment (field-independent basis, Debye):
    X=              0.9344    Y=             -5.0667    Z=              0.5959  Tot=              5.1865
 Quadrupole moment (field-independent basis, Debye-Ang):
   XX=            -97.8506   YY=            -99.6081   ZZ=            -92.8441
   XY=             17.8338   XZ=              0.0253   YZ=              0.2250

 Normal termination of Gaussian 16 at Thu May  6 01:33:22 2021.
