 Gaussian 16, Revision A.03,
 Gaussian 16:  EM64L-G16RevA.03 25-Dec-2016

 -------------
 #p 6-31g* mp2
 -------------

 ------------------------------------------------------
 Input file generated by CHIRIPA (05-May-2021 14:57:21)
 ------------------------------------------------------
 Symbolic Z-matrix:
 Charge =  0 Multiplicity = 1

                         Standard orientation:
 ---------------------------------------------------------------------
 Center     Atomic      Atomic             Coordinates (Angstroms)
 Number     Number       Type             X           Y           Z
 ---------------------------------------------------------------------
      1          6           0        6.006116    1.440487    0.251855
      2          6           0        4.853279    1.681562    1.006421
      3          6           0        3.731218    0.858613    0.871207
      4          6           0        3.796919   -0.201214   -0.031977
      5          6           0        4.930891   -0.467186   -0.797912
      6          6           0        6.041180    0.368772   -0.646320
      7          1           0        6.873187    2.084826    0.363253
      8          1           0        4.823201    2.513135    1.704724
      9          1           0        2.825823    1.022495    1.442889
     10          1           0        4.930891   -1.303886   -1.485917
     11          1           0        6.935136    0.179165   -1.233635
     12          7           0        2.615275   -1.079319   -0.183791
     13          8           0        2.698471   -2.006487   -0.986334
     14          8           0        1.628280   -0.823783    0.502635
     15          6           0       -6.303983    1.007095   -0.332866
     16          6           0       -6.132230   -0.170004    0.402972
     17          6           0       -4.855667   -0.705770    0.597621
     18          6           0       -3.768123   -0.035409    0.039808
     19          6           0       -3.906810    1.139061   -0.698213
     20          6           0       -5.192683    1.656725   -0.880146
     21          1           0       -7.299264    1.416260   -0.479136
     22          1           0       -6.993461   -0.676654    0.829157
     23          1           0       -4.694082   -1.615543    1.162971
     24          1           0       -3.029122    1.621585   -1.110830
     25          1           0       -5.323069    2.571033   -1.452061
     26          7           0       -2.411754   -0.593019    0.239144
     27          8           0       -1.469811    0.016591   -0.262611
     28          8           0       -2.316257   -1.629125    0.893362
 ---------------------------------------------------------------------

 SCF Done:  E(RHF) =  -868.334257740     A.U. after   16 cycles
 E2 =    -0.2600626301D+01 EUMP2 =    -0.87093488404097D+03

 The electronic state is 1-A.
 Alpha  occ. eigenvalues --  -20.59629 -20.59611 -20.59433 -20.59280 -15.84710
 Alpha  occ. eigenvalues --  -15.84416 -11.30488 -11.30256 -11.27115 -11.27098
 Alpha  occ. eigenvalues --  -11.26928 -11.26897 -11.26863 -11.26729 -11.26222
 Alpha  occ. eigenvalues --  -11.26205 -11.26017 -11.26002  -1.58686  -1.58429
 Alpha  occ. eigenvalues --   -1.38240  -1.37969  -1.18699  -1.18478  -1.08014
 Alpha  occ. eigenvalues --   -1.07788  -1.04166  -1.03951  -0.94779  -0.94534
 Alpha  occ. eigenvalues --   -0.85544  -0.85327  -0.81618  -0.81365  -0.76591
 Alpha  occ. eigenvalues --   -0.76337  -0.70958  -0.70561  -0.70054  -0.69808
 Alpha  occ. eigenvalues --   -0.69774  -0.69586  -0.64343  -0.64176  -0.64110
 Alpha  occ. eigenvalues --   -0.63963  -0.61511  -0.61292  -0.54652  -0.54448
 Alpha  occ. eigenvalues --   -0.52472  -0.52268  -0.52255  -0.52052  -0.47807
 Alpha  occ. eigenvalues --   -0.47635  -0.47389  -0.47192  -0.43567  -0.43239
 Alpha  occ. eigenvalues --   -0.36705  -0.36489  -0.35789  -0.35577
 Alpha virt. eigenvalues --    0.05950   0.06211   0.11858   0.12070   0.17370
 Alpha virt. eigenvalues --    0.17614   0.21940   0.22135   0.27819   0.28012
 Alpha virt. eigenvalues --    0.28865   0.29078   0.31458   0.31649   0.33116

 Mulliken charges:
               1
     1  C   -0.172487
     2  C   -0.218821
     3  C   -0.171366
     4  C    0.159601
     5  C   -0.171965
     6  C   -0.218656
     7  H    0.221979
     8  H    0.220300
     9  H    0.277637
    10  H    0.274299
    11  H    0.220246
    12  N    0.486097
    13  O   -0.466667
    14  O   -0.440560
    15  C   -0.172232
    16  C   -0.218468
    17  C   -0.171600
    18  C    0.159459
    19  C   -0.171867
    20  C   -0.218481
    21  H    0.222923
    22  H    0.221382
    23  H    0.275582
    24  H    0.274268
    25  H    0.220712
    26  N    0.486543
    27  O   -0.451202
    28  O   -0.456656
 Sum of Mulliken charges =  -0.00000

 Dipole moment (field-independent basis, Debye):
    X=             -0.7247    Y=              4.9318    Z=             -0.0833  Tot=              4.9854
 Quadrupole moment (field-independent basis, Debye-Ang):
   XX=            -39.7489   YY=           -103.0947   ZZ=           -102.4143
   XY=              3.9889   XZ=              1.2950   YZ=             -0.3923

 Normal termination of Gaussian 16 at Wed May  5 19:15:00 2021.
