 Gaussian 16, Revision A.03,
 Gaussian 16:  EM64L-G16RevA.03 25-Dec-2016

 -------------
 #p 6-31g* mp2
 -------------

 ------------------------------------------------------
 Input file generated by CHIRIPA (05-May-2021 14:55:22)
 ------------------------------------------------------
 Symbolic Z-matrix:
 Charge =  0 Multiplicity = 1

                         Standard orientation:
 ---------------------------------------------------------------------
 Center     Atomic      Atomic             Coordinates (Angstroms)
 Number     Number       Type             X           Y           Z
 ---------------------------------------------------------------------
      1          6           0        0.394382   -2.063414    1.519079
      2          6           0        0.358094   -2.211151    0.128620
      3          6           0        1.194483   -1.445151   -0.688843
      4          6           0        2.058780   -0.536832   -0.079550
      5          6           0        2.118246   -0.366701    1.302770
      6          6           0        1.272793   -1.143283    2.100692
      7          1           0       -0.258865   -2.662572    2.146514
      8          1           0       -0.323084   -2.924958   -0.325826
      9          1           0        1.186961   -1.539285   -1.767963
     10          1           0        2.807889    0.353073    1.726724
     11          1           0        1.303131   -1.026427    3.180261
     12          7           0        2.949025    0.279699   -0.934617
     13          8           0        3.701513    1.072993   -0.373295
     14          8           0        2.877453    0.110942   -2.149951
     15          6           0       -1.797970    1.183683    0.159076
     16          6           0       -1.874582    2.708861    0.236191
     17          6           0       -0.567639    3.343047    0.713161
     18          1           0       -1.535365    0.785591    1.148776
     19          1           0       -0.981930    0.898333   -0.519193
     20          1           0       -2.691129    2.991258    0.913037
     21          1           0       -2.137223    3.103358   -0.753764
     22          1           0        0.253407    3.090206    0.034519
     23          1           0       -0.303645    2.977469    1.710790
     24          1           0       -0.644657    4.433756    0.760921
     25          6           0       -3.096895    0.535116   -0.316197
     26          6           0       -3.020282   -0.990062   -0.393312
     27          6           0       -4.327225   -1.624247   -0.870283
     28          1           0       -3.912935    0.820466    0.362071
     29          1           0       -3.359499    0.933209   -1.305898
     30          1           0       -2.757641   -1.384558    0.596642
     31          1           0       -2.203736   -1.272458   -1.070158
     32          1           0       -4.591219   -1.258669   -1.867911
     33          1           0       -5.148271   -1.371406   -0.191640
     34          1           0       -4.250208   -2.714956   -0.918043
 ---------------------------------------------------------------------

 SCF Done:  E(RHF) =  -669.534512735     A.U. after   15 cycles
 E2 =    -0.2095192087D+01 EUMP2 =    -0.67162970482169D+03

 The electronic state is 1-A.
 Alpha  occ. eigenvalues --  -20.60815 -20.60807 -15.85865 -11.31230 -11.27776
 Alpha  occ. eigenvalues --  -11.27762 -11.27508 -11.26820 -11.26771 -11.22133
 Alpha  occ. eigenvalues --  -11.21674 -11.21610 -11.21592 -11.21425 -11.21002
 Alpha  occ. eigenvalues --   -1.59890  -1.39442  -1.19393  -1.08809  -1.08648
 Alpha  occ. eigenvalues --   -1.04799  -1.03780  -0.96204  -0.95627  -0.87227
 Alpha  occ. eigenvalues --   -0.86193  -0.82463  -0.79890  -0.78465  -0.77496
 Alpha  occ. eigenvalues --   -0.72081  -0.71214  -0.70499  -0.65321  -0.65039
 Alpha  occ. eigenvalues --   -0.64802  -0.62156  -0.61176  -0.59610  -0.57825
 Alpha  occ. eigenvalues --   -0.55485  -0.55294  -0.53313  -0.52919  -0.52813
 Alpha  occ. eigenvalues --   -0.52581  -0.50148  -0.48845  -0.48838  -0.48194
 Alpha  occ. eigenvalues --   -0.46927  -0.45946  -0.45876  -0.44845  -0.44010
 Alpha  occ. eigenvalues --   -0.37308  -0.36300
 Alpha virt. eigenvalues --    0.04981   0.11196   0.16378   0.20623   0.22817
 Alpha virt. eigenvalues --    0.23886   0.25746   0.26542   0.27455   0.28074
 Alpha virt. eigenvalues --    0.28335   0.30074   0.31315   0.31802   0.32079

 Mulliken charges:
               1
     1  C   -0.171895
     2  C   -0.209263
     3  C   -0.175313
     4  C    0.160881
     5  C   -0.170302
     6  C   -0.218370
     7  H    0.225436
     8  H    0.225285
     9  H    0.275086
    10  H    0.275909
    11  H    0.223472
    12  N    0.487334
    13  O   -0.459934
    14  O   -0.460766
    15  C   -0.300631
    16  C   -0.300167
    17  C   -0.475555
    18  H    0.147968
    19  H    0.152944
    20  H    0.149950
    21  H    0.153472
    22  H    0.160183
    23  H    0.150736
    24  H    0.161596
    25  C   -0.298467
    26  C   -0.298357
    27  C   -0.475638
    28  H    0.149139
    29  H    0.151615
    30  H    0.144987
    31  H    0.147998
    32  H    0.158162
    33  H    0.156714
    34  H    0.155792
 Sum of Mulliken charges =  -0.00000

 Dipole moment (field-independent basis, Debye):
    X=             -3.0622    Y=             -2.8456    Z=              3.0017  Tot=              5.1463
 Quadrupole moment (field-independent basis, Debye-Ang):
   XX=           -108.5427   YY=            -91.6109   ZZ=            -91.3396
   XY=             -3.9112   XZ=              7.7934   YZ=              0.2177

 Normal termination of Gaussian 16 at Thu May  6 12:34:05 2021.
