 Gaussian 16, Revision A.03,
 Gaussian 16:  EM64L-G16RevA.03 25-Dec-2016

 -------------
 #p 6-31g* mp2
 -------------

 ------------------------------------------------------
 Input file generated by CHIRIPA (05-May-2021 14:53:13)
 ------------------------------------------------------
 Symbolic Z-matrix:
 Charge =  0 Multiplicity = 1

                         Standard orientation:
 ---------------------------------------------------------------------
 Center     Atomic      Atomic             Coordinates (Angstroms)
 Number     Number       Type             X           Y           Z
 ---------------------------------------------------------------------
      1          6           0       -3.979054    1.056507   -0.198929
      2          6           0       -2.469227    0.951704    0.018840
      3          6           0       -1.762560    2.304048   -0.079045
      4          1           0       -4.170871    1.501545   -1.184877
      5          1           0       -4.402497    1.747117    0.543465
      6          1           0       -2.048960    0.260428   -0.722867
      7          1           0       -2.280983    0.506687    1.004304
      8          1           0       -2.154284    2.998597    0.671125
      9          1           0       -1.920942    2.750939   -1.065860
     10          1           0       -0.684138    2.205921    0.079818
     11          6           0       -4.699528   -0.287240   -0.104125
     12          6           0       -6.209355   -0.182437   -0.321894
     13          6           0       -6.916022   -1.534781   -0.224009
     14          1           0       -4.276085   -0.977850   -0.846519
     15          1           0       -4.507711   -0.732278    0.881822
     16          1           0       -6.397598    0.262580   -1.307359
     17          1           0       -6.629622    0.508839    0.419813
     18          1           0       -6.757639   -1.981671    0.762806
     19          1           0       -6.524298   -2.229330   -0.974179
     20          1           0       -7.994444   -1.436654   -0.382873
     21          6           0        1.100793   -0.941955    0.963165
     22          6           0        1.928680   -1.908236    0.382279
     23          6           0        3.199044   -1.564150   -0.089237
     24          6           0        3.611390   -0.238481    0.036710
     25          6           0        2.809721    0.747019    0.610650
     26          6           0        1.543176    0.380257    1.075298
     27          1           0        0.115427   -1.218057    1.326782
     28          1           0        1.587747   -2.935852    0.293879
     29          1           0        3.860415   -2.292120   -0.543184
     30          1           0        3.177268    1.763292    0.684908
     31          1           0        0.902372    1.132788    1.525977
     32          7           0        4.954246    0.137790   -0.458828
     33          8           0        5.294146    1.312549   -0.336163
     34          8           0        5.641450   -0.749172   -0.960511
 ---------------------------------------------------------------------

 SCF Done:  E(RHF) =  -669.535383389     A.U. after   15 cycles
 E2 =    -0.2091799093D+01 EUMP2 =    -0.67162718248225D+03

 The electronic state is 1-A.
 Alpha  occ. eigenvalues --  -20.60752 -20.60747 -15.85807 -11.31176 -11.27754
 Alpha  occ. eigenvalues --  -11.27750 -11.27474 -11.26754 -11.26734 -11.22588
 Alpha  occ. eigenvalues --  -11.22171 -11.22144 -11.22060 -11.21946 -11.21571
 Alpha  occ. eigenvalues --   -1.59828  -1.39382  -1.19352  -1.09176  -1.08739
 Alpha  occ. eigenvalues --   -1.04763  -1.04267  -0.96702  -0.95573  -0.87723
 Alpha  occ. eigenvalues --   -0.86151  -0.82411  -0.80350  -0.78980  -0.77462
 Alpha  occ. eigenvalues --   -0.72025  -0.71152  -0.70444  -0.65801  -0.65001
 Alpha  occ. eigenvalues --   -0.64806  -0.62162  -0.61652  -0.60060  -0.58310
 Alpha  occ. eigenvalues --   -0.55966  -0.55255  -0.53515  -0.53208  -0.53025
 Alpha  occ. eigenvalues --   -0.52668  -0.50630  -0.48800  -0.48779  -0.48633
 Alpha  occ. eigenvalues --   -0.47382  -0.46521  -0.46427  -0.44787  -0.44519
 Alpha  occ. eigenvalues --   -0.37313  -0.36350
 Alpha virt. eigenvalues --    0.05069   0.11181   0.16494   0.19779   0.22470
 Alpha virt. eigenvalues --    0.23943   0.25423   0.26192   0.26329   0.28154
 Alpha virt. eigenvalues --    0.28736   0.30109   0.30859   0.31859   0.32151

 Mulliken charges:
               1
     1  C   -0.298458
     2  C   -0.301424
     3  C   -0.480334
     4  H    0.153236
     5  H    0.151260
     6  H    0.154916
     7  H    0.142295
     8  H    0.156473
     9  H    0.161476
    10  H    0.157122
    11  C   -0.298715
    12  C   -0.300162
    13  C   -0.476096
    14  H    0.149612
    15  H    0.147409
    16  H    0.153697
    17  H    0.153002
    18  H    0.154851
    19  H    0.155521
    20  H    0.162283
    21  C   -0.171809
    22  C   -0.219248
    23  C   -0.170526
    24  C    0.158416
    25  C   -0.172243
    26  C   -0.219090
    27  H    0.228273
    28  H    0.223485
    29  H    0.275593
    30  H    0.275745
    31  H    0.226233
    32  N    0.488119
    33  O   -0.460390
    34  O   -0.460523
 Sum of Mulliken charges =  -0.00000

 Dipole moment (field-independent basis, Debye):
    X=             -4.8879    Y=             -1.3093    Z=              1.6689  Tot=              5.3284
 Quadrupole moment (field-independent basis, Debye-Ang):
   XX=           -129.2570   YY=            -90.3900   ZZ=            -93.9839
   XY=             -5.2873   XZ=              6.0297   YZ=              1.1841

 Normal termination of Gaussian 16 at Wed May  5 15:30:29 2021.
