 Gaussian 16, Revision A.03,
 Gaussian 16:  EM64L-G16RevA.03 25-Dec-2016

 -------------
 #p 6-31g* mp2
 -------------

 ------------------------------------------------------
 Input file generated by CHIRIPA (05-May-2021 14:57:22)
 ------------------------------------------------------
 Symbolic Z-matrix:
 Charge =  0 Multiplicity = 1

                         Standard orientation:
 ---------------------------------------------------------------------
 Center     Atomic      Atomic             Coordinates (Angstroms)
 Number     Number       Type             X           Y           Z
 ---------------------------------------------------------------------
      1          6           0        1.464766   -1.683088    0.812755
      2          6           0        2.522985   -1.455872    1.698795
      3          6           0        3.637979   -0.713926    1.297732
      4          6           0        3.661772   -0.211743   -0.002474
      5          6           0        2.623188   -0.421037   -0.908471
      6          6           0        1.518151   -1.165857   -0.485761
      7          1           0        0.602479   -2.260565    1.132719
      8          1           0        2.484244   -1.856344    2.707837
      9          1           0        4.471111   -0.522947    1.963192
     10          1           0        2.690456   -0.009015   -1.908036
     11          1           0        0.697781   -1.340736   -1.176018
     12          7           0        4.836896    0.575244   -0.438520
     13          8           0        4.833670    1.006851   -1.589321
     14          8           0        5.738933    0.745574    0.378764
     15          6           0       -4.724787   -1.801816   -0.508793
     16          6           0       -5.346826   -0.753766    0.177632
     17          6           0       -4.660132    0.438278    0.426692
     18          6           0       -3.346604    0.548650   -0.026912
     19          6           0       -2.699506   -0.477560   -0.713532
     20          6           0       -3.405439   -1.660617   -0.951404
     21          1           0       -5.265700   -2.724335   -0.697924
     22          1           0       -6.371359   -0.860620    0.522537
     23          1           0       -5.117564    1.265515    0.955701
     24          1           0       -1.677254   -0.341506   -1.045051
     25          1           0       -2.919826   -2.472884   -1.484741
     26          7           0       -2.609449    1.805857    0.230835
     27          8           0       -1.453031    1.878158   -0.179174
     28          8           0       -3.202042    2.695148    0.837984
 ---------------------------------------------------------------------

 SCF Done:  E(RHF) =  -868.336564769     A.U. after   16 cycles
 E2 =    -0.2600106255D+01 EUMP2 =    -0.87093667102373D+03

 The electronic state is 1-A.
 Alpha  occ. eigenvalues --  -20.61300 -20.61295 -20.60505 -20.60498 -15.86358
 Alpha  occ. eigenvalues --  -15.85563 -11.31883 -11.30977 -11.28543 -11.28409
 Alpha  occ. eigenvalues --  -11.28192 -11.27603 -11.27577 -11.27554 -11.27442
 Alpha  occ. eigenvalues --  -11.27417 -11.26741 -11.26604  -1.60373  -1.59576
 Alpha  occ. eigenvalues --   -1.39923  -1.39129  -1.20060  -1.19182  -1.09413
 Alpha  occ. eigenvalues --   -1.08585  -1.05498  -1.04612  -0.96229  -0.95402
 Alpha  occ. eigenvalues --   -0.86879  -0.86030  -0.83065  -0.82244  -0.78104
 Alpha  occ. eigenvalues --   -0.77266  -0.72569  -0.71788  -0.71702  -0.71163
 Alpha  occ. eigenvalues --   -0.70894  -0.70330  -0.65709  -0.65518  -0.64861
 Alpha  occ. eigenvalues --   -0.64685  -0.62860  -0.61954  -0.55957  -0.55163
 Alpha  occ. eigenvalues --   -0.53802  -0.53609  -0.52892  -0.52726  -0.49340
 Alpha  occ. eigenvalues --   -0.49321  -0.48551  -0.48531  -0.45293  -0.44524
 Alpha  occ. eigenvalues --   -0.38023  -0.37197  -0.37082  -0.36179
 Alpha virt. eigenvalues --    0.04443   0.05303   0.10523   0.11380   0.15911
 Alpha virt. eigenvalues --    0.16719   0.19015   0.21964   0.24953   0.27204
 Alpha virt. eigenvalues --    0.28307   0.29153   0.30148   0.30967   0.32211

 Mulliken charges:
               1
     1  C   -0.168852
     2  C   -0.217881
     3  C   -0.169082
     4  C    0.159081
     5  C   -0.165661
     6  C   -0.212888
     7  H    0.221727
     8  H    0.222934
     9  H    0.275950
    10  H    0.276743
    11  H    0.210954
    12  N    0.488348
    13  O   -0.459632
    14  O   -0.460679
    15  C   -0.170738
    16  C   -0.218255
    17  C   -0.169901
    18  C    0.159723
    19  C   -0.177797
    20  C   -0.220419
    21  H    0.227487
    22  H    0.226039
    23  H    0.278047
    24  H    0.273527
    25  H    0.220739
    26  N    0.487283
    27  O   -0.459085
    28  O   -0.457712
 Sum of Mulliken charges =  -0.00000

 Dipole moment (field-independent basis, Debye):
    X=             -6.8067    Y=             -7.0453    Z=              0.7222  Tot=              9.8229
 Quadrupole moment (field-independent basis, Debye-Ang):
   XX=           -113.2296   YY=           -109.1795   ZZ=           -100.4235
   XY=              2.3000   XZ=              8.6570   YZ=             -0.3698

 Normal termination of Gaussian 16 at Fri May  7 04:49:10 2021.
