 Gaussian 16, Revision A.03,
 Gaussian 16:  EM64L-G16RevA.03 25-Dec-2016

 -------------
 #p 6-31g* mp2
 -------------

 ------------------------------------------------------
 Input file generated by CHIRIPA (05-May-2021 14:57:21)
 ------------------------------------------------------
 Symbolic Z-matrix:
 Charge =  0 Multiplicity = 1

                         Standard orientation:
 ---------------------------------------------------------------------
 Center     Atomic      Atomic             Coordinates (Angstroms)
 Number     Number       Type             X           Y           Z
 ---------------------------------------------------------------------
      1          6           0       -3.853472   -1.989568    0.863730
      2          6           0       -3.580736   -0.981553    1.794344
      3          6           0       -3.170896    0.285562    1.368907
      4          6           0       -3.043623    0.511015   -0.000860
      5          6           0       -3.307958   -0.472705   -0.952549
      6          6           0       -3.716454   -1.732380   -0.504334
      7          1           0       -4.171324   -2.971004    1.203067
      8          1           0       -3.686292   -1.178441    2.857424
      9          1           0       -2.953225    1.084102    2.067743
     10          1           0       -3.193728   -0.246430   -2.005720
     11          1           0       -3.927580   -2.513313   -1.229327
     12          7           0       -2.610455    1.848515   -0.463308
     13          8           0       -2.505932    2.021806   -1.675613
     14          8           0       -2.383663    2.698232    0.395286
     15          6           0        1.271384   -1.856387   -0.793128
     16          6           0        2.555839   -2.353075   -0.548185
     17          6           0        3.585027   -1.494711   -0.150024
     18          6           0        3.293250   -0.139203   -0.005965
     19          6           0        2.023788    0.385951   -0.242545
     20          6           0        1.009919   -0.490867   -0.639797
     21          1           0        0.477837   -2.530353   -1.102077
     22          1           0        2.761789   -3.413095   -0.666458
     23          1           0        4.588472   -1.852504    0.046190
     24          1           0        1.848964    1.447497   -0.116156
     25          1           0        0.013345   -0.102330   -0.829334
     26          7           0        4.374696    0.779277    0.415069
     27          8           0        4.091910    1.969374    0.534818
     28          8           0        5.484642    0.291694    0.617354
 ---------------------------------------------------------------------

 SCF Done:  E(RHF) =  -868.337771793     A.U. after   16 cycles
 E2 =    -0.2600470802D+01 EUMP2 =    -0.87093824259471D+03

 The electronic state is 1-A.
 Alpha  occ. eigenvalues --  -20.61713 -20.61697 -20.60510 -20.60490 -15.86749
 Alpha  occ. eigenvalues --  -15.85556 -11.32153 -11.30952 -11.28741 -11.28653
 Alpha  occ. eigenvalues --  -11.28407 -11.27732 -11.27646 -11.27565 -11.27460
 Alpha  occ. eigenvalues --  -11.27339 -11.26615 -11.26517  -1.60792  -1.59579
 Alpha  occ. eigenvalues --   -1.40335  -1.39130  -1.20322  -1.19140  -1.09702
 Alpha  occ. eigenvalues --   -1.08544  -1.05702  -1.04540  -0.96524  -0.95366
 Alpha  occ. eigenvalues --   -0.87095  -0.85946  -0.83336  -0.82191  -0.78393
 Alpha  occ. eigenvalues --   -0.77222  -0.72941  -0.72156  -0.71773  -0.71376
 Alpha  occ. eigenvalues --   -0.70904  -0.70270  -0.65947  -0.65671  -0.64794
 Alpha  occ. eigenvalues --   -0.64556  -0.63028  -0.61879  -0.56168  -0.55090
 Alpha  occ. eigenvalues --   -0.54075  -0.53765  -0.52881  -0.52610  -0.49720
 Alpha  occ. eigenvalues --   -0.49704  -0.48541  -0.48522  -0.45713  -0.44527
 Alpha  occ. eigenvalues --   -0.38295  -0.37315  -0.37153  -0.36138
 Alpha virt. eigenvalues --    0.04102   0.05305   0.10267   0.11502   0.15597
 Alpha virt. eigenvalues --    0.16776   0.20568   0.21417   0.26459   0.26848
 Alpha virt. eigenvalues --    0.27584   0.28442   0.30014   0.30961   0.31812

 Mulliken charges:
               1
     1  C   -0.170849
     2  C   -0.217456
     3  C   -0.170223
     4  C    0.153183
     5  C   -0.180097
     6  C   -0.220253
     7  H    0.228571
     8  H    0.227812
     9  H    0.279653
    10  H    0.276891
    11  H    0.225011
    12  N    0.486660
    13  O   -0.459893
    14  O   -0.454747
    15  C   -0.172103
    16  C   -0.218916
    17  C   -0.171549
    18  C    0.158290
    19  C   -0.171962
    20  C   -0.219764
    21  H    0.220716
    22  H    0.220907
    23  H    0.274658
    24  H    0.282708
    25  H    0.224781
    26  N    0.487829
    27  O   -0.457633
    28  O   -0.462224
 Sum of Mulliken charges =  -0.00000

 Dipole moment (field-independent basis, Debye):
    X=             -5.5653    Y=             -7.8176    Z=              0.3087  Tot=              9.6012
 Quadrupole moment (field-independent basis, Debye-Ang):
   XX=           -119.3019   YY=           -105.9699   ZZ=           -100.9767
   XY=              1.1869   XZ=             -9.8982   YZ=              2.5027

 Normal termination of Gaussian 16 at Thu May  6 11:09:21 2021.
