 Gaussian 16, Revision A.03,
 Gaussian 16:  EM64L-G16RevA.03 25-Dec-2016

 -------------
 #p 6-31g* mp2
 -------------

 ------------------------------------------------------
 Input file generated by CHIRIPA (05-May-2021 14:57:26)
 ------------------------------------------------------
 Symbolic Z-matrix:
 Charge =  0 Multiplicity = 1

                         Standard orientation:
 ---------------------------------------------------------------------
 Center     Atomic      Atomic             Coordinates (Angstroms)
 Number     Number       Type             X           Y           Z
 ---------------------------------------------------------------------
      1          6           0       -2.960111    2.462956    0.801914
      2          6           0       -2.972584    2.124513   -0.555223
      3          6           0       -3.065066    0.787348   -0.952696
      4          6           0       -3.143824   -0.190163    0.038041
      5          6           0       -3.133746    0.115258    1.398154
      6          6           0       -3.040590    1.459018    1.772560
      7          1           0       -2.888008    3.504259    1.101721
      8          1           0       -2.910215    2.902081   -1.311228
      9          1           0       -3.076795    0.497298   -1.996320
     10          1           0       -3.197308   -0.682019    2.128719
     11          1           0       -3.031121    1.718918    2.827267
     12          7           0       -3.242087   -1.609250   -0.370536
     13          8           0       -3.310299   -2.451730    0.521771
     14          8           0       -3.249032   -1.852180   -1.575349
     15          6           0        0.683546    0.037688   -0.726472
     16          6           0        1.598278    0.875727   -1.372595
     17          6           0        2.954852    0.839148   -1.036568
     18          6           0        3.363914   -0.051590   -0.045334
     19          6           0        2.476866   -0.899158    0.616531
     20          6           0        1.124981   -0.845523    0.264283
     21          1           0       -0.368452    0.072727   -0.993807
     22          1           0        1.258298    1.562637   -2.142410
     23          1           0        3.684469    1.476805   -1.520791
     24          1           0        2.845746   -1.573404    1.379905
     25          1           0        0.416838   -1.497522    0.767747
     26          7           0        4.797576   -0.099342    0.318989
     27          8           0        5.132657   -0.892949    1.195657
     28          8           0        5.559053    0.657740   -0.279020
 ---------------------------------------------------------------------

 SCF Done:  E(RHF) =  -868.337247567     A.U. after   16 cycles
 E2 =    -0.2602060857D+01 EUMP2 =    -0.87093930842409D+03

 The electronic state is 1-A.
 Alpha  occ. eigenvalues --  -20.61977 -20.61969 -20.60677 -20.60670 -15.87020
 Alpha  occ. eigenvalues --  -15.85730 -11.32442 -11.31051 -11.28981 -11.28945
 Alpha  occ. eigenvalues --  -11.28631 -11.27990 -11.27914 -11.27655 -11.27606
 Alpha  occ. eigenvalues --  -11.27251 -11.26655 -11.26559  -1.61057  -1.59754
 Alpha  occ. eigenvalues --   -1.40603  -1.39308  -1.20613  -1.19221  -1.09963
 Alpha  occ. eigenvalues --   -1.08615  -1.05990  -1.04626  -0.96791  -0.95460
 Alpha  occ. eigenvalues --   -0.87370  -0.86023  -0.83600  -0.82301  -0.78669
 Alpha  occ. eigenvalues --   -0.77360  -0.73210  -0.72454  -0.71947  -0.71635
 Alpha  occ. eigenvalues --   -0.71078  -0.70319  -0.66216  -0.65930  -0.64871
 Alpha  occ. eigenvalues --   -0.64638  -0.63308  -0.61980  -0.56407  -0.55529
 Alpha  occ. eigenvalues --   -0.54033  -0.53921  -0.52934  -0.52714  -0.49985
 Alpha  occ. eigenvalues --   -0.49978  -0.48706  -0.48703  -0.45977  -0.44724
 Alpha  occ. eigenvalues --   -0.38542  -0.37597  -0.37165  -0.36236
 Alpha virt. eigenvalues --    0.03808   0.05187   0.09931   0.11415   0.15341
 Alpha virt. eigenvalues --    0.16687   0.20319   0.21584   0.26162   0.27042
 Alpha virt. eigenvalues --    0.27382   0.28480   0.30153   0.30751   0.32083

 Mulliken charges:
               1
     1  C   -0.169526
     2  C   -0.214571
     3  C   -0.192277
     4  C    0.157593
     5  C   -0.173299
     6  C   -0.215355
     7  H    0.231078
     8  H    0.226896
     9  H    0.277412
    10  H    0.278463
    11  H    0.229143
    12  N    0.486818
    13  O   -0.457722
    14  O   -0.457897
    15  C   -0.170118
    16  C   -0.222957
    17  C   -0.171018
    18  C    0.157555
    19  C   -0.170878
    20  C   -0.223828
    21  H    0.232548
    22  H    0.218914
    23  H    0.274170
    24  H    0.275865
    25  H    0.226959
    26  N    0.488023
    27  O   -0.460412
    28  O   -0.461580
 Sum of Mulliken charges =  -0.00000

 Dipole moment (field-independent basis, Debye):
    X=             -5.0333    Y=              5.2549    Z=              0.3432  Tot=              7.2846
 Quadrupole moment (field-independent basis, Debye-Ang):
   XX=           -141.9137   YY=           -104.2608   ZZ=            -97.9170
   XY=            -14.7368   XZ=             -9.9046   YZ=             -4.0816

 Normal termination of Gaussian 16 at Thu May  6 06:47:35 2021.
