 Gaussian 16, Revision A.03,
 Gaussian 16:  EM64L-G16RevA.03 25-Dec-2016

 -------------
 #p 6-31g* mp2
 -------------

 ------------------------------------------------------
 Input file generated by CHIRIPA (05-May-2021 14:53:16)
 ------------------------------------------------------
 Symbolic Z-matrix:
 Charge =  0 Multiplicity = 1

                         Standard orientation:
 ---------------------------------------------------------------------
 Center     Atomic      Atomic             Coordinates (Angstroms)
 Number     Number       Type             X           Y           Z
 ---------------------------------------------------------------------
      1          6           0        3.228792   -0.379013    0.332368
      2          6           0        3.374792   -1.303457   -0.876794
      3          6           0        3.936586   -2.676504   -0.506763
      4          1           0        4.208802   -0.258145    0.813946
      5          1           0        2.573170   -0.856887    1.073443
      6          1           0        4.028833   -0.823377   -1.615962
      7          1           0        2.394357   -1.421986   -1.355661
      8          1           0        3.282345   -3.179251    0.212831
      9          1           0        4.926108   -2.577241   -0.048949
     10          1           0        4.032676   -3.321191   -1.385970
     11          6           0        2.668353    0.997362   -0.021504
     12          6           0        2.522353    1.921806    1.187658
     13          6           0        1.960559    3.294853    0.817627
     14          1           0        3.323975    1.475236   -0.762579
     15          1           0        1.688343    0.876493   -0.503082
     16          1           0        3.502788    2.040335    1.666525
     17          1           0        1.868312    1.441726    1.926826
     18          1           0        0.971037    3.195590    0.359813
     19          1           0        2.614799    3.797600    0.098033
     20          1           0        1.864469    3.939540    1.696834
     21          6           0       -2.237889   -2.608921    0.748701
     22          6           0       -1.138338   -2.085226    0.060768
     23          6           0       -1.163656   -0.774816   -0.425784
     24          6           0       -2.309922   -0.012673   -0.205552
     25          6           0       -3.421357   -0.505962    0.476114
     26          6           0       -3.373886   -1.819010    0.953817
     27          1           0       -2.209618   -3.627903    1.123229
     28          1           0       -0.254772   -2.696381   -0.099995
     29          1           0       -0.326471   -0.344258   -0.961657
     30          1           0       -4.288062    0.127500    0.620905
     31          1           0       -4.229285   -2.223084    1.487728
     32          7           0       -2.348451    1.375996   -0.715959
     33          8           0       -3.370197    2.026985   -0.508878
     34          8           0       -1.356173    1.787150   -1.313432
 ---------------------------------------------------------------------

 SCF Done:  E(RHF) =  -669.536006122     A.U. after   15 cycles
 E2 =    -0.2092914104D+01 EUMP2 =    -0.67162892022628D+03

 The electronic state is 1-A.
 Alpha  occ. eigenvalues --  -20.60947 -20.60942 -15.85970 -11.31281 -11.27845
 Alpha  occ. eigenvalues --  -11.27830 -11.27578 -11.26852 -11.26840 -11.22126
 Alpha  occ. eigenvalues --  -11.21652 -11.21625 -11.21367 -11.21307 -11.20383
 Alpha  occ. eigenvalues --   -1.60001  -1.39558  -1.19451  -1.08856  -1.08569
 Alpha  occ. eigenvalues --   -1.04846  -1.03580  -0.96007  -0.95699  -0.87019
 Alpha  occ. eigenvalues --   -0.86248  -0.82532  -0.79701  -0.78320  -0.77574
 Alpha  occ. eigenvalues --   -0.72191  -0.71310  -0.70571  -0.65283  -0.65102
 Alpha  occ. eigenvalues --   -0.64831  -0.62174  -0.60987  -0.59441  -0.57595
 Alpha  occ. eigenvalues --   -0.55390  -0.55262  -0.53174  -0.52952  -0.52705
 Alpha  occ. eigenvalues --   -0.52386  -0.49956  -0.48958  -0.48941  -0.47978
 Alpha  occ. eigenvalues --   -0.46779  -0.45839  -0.45754  -0.44887  -0.43839
 Alpha  occ. eigenvalues --   -0.37428  -0.36441
 Alpha virt. eigenvalues --    0.04886   0.11163   0.16364   0.18617   0.23158
 Alpha virt. eigenvalues --    0.23801   0.24895   0.26586   0.27891   0.28211
 Alpha virt. eigenvalues --    0.29524   0.31006   0.31560   0.31940   0.32567

 Mulliken charges:
               1
     1  C   -0.299666
     2  C   -0.299907
     3  C   -0.475618
     4  H    0.152167
     5  H    0.145375
     6  H    0.157494
     7  H    0.141674
     8  H    0.149371
     9  H    0.159157
    10  H    0.161183
    11  C   -0.305580
    12  C   -0.298859
    13  C   -0.482460
    14  H    0.152478
    15  H    0.155656
    16  H    0.149834
    17  H    0.148988
    18  H    0.173811
    19  H    0.154187
    20  H    0.157688
    21  C   -0.170416
    22  C   -0.222627
    23  C   -0.175991
    24  C    0.157151
    25  C   -0.170147
    26  C   -0.218670
    27  H    0.226155
    28  H    0.225718
    29  H    0.284913
    30  H    0.275830
    31  H    0.223863
    32  N    0.488100
    33  O   -0.458403
    34  O   -0.462447
 Sum of Mulliken charges =  -0.00000

 Dipole moment (field-independent basis, Debye):
    X=              0.0808    Y=             -4.7730    Z=              1.7600  Tot=              5.0878
 Quadrupole moment (field-independent basis, Debye-Ang):
   XX=            -90.0130   YY=            -96.0083   ZZ=            -95.6837
   XY=             11.6164   XZ=             -6.6483   YZ=              1.0470

 Normal termination of Gaussian 16 at Wed May  5 21:59:03 2021.
