 Gaussian 16, Revision A.03,
 Gaussian 16:  EM64L-G16RevA.03 25-Dec-2016

 -------------
 #p 6-31g* mp2
 -------------

 ------------------------------------------------------
 Input file generated by CHIRIPA (05-May-2021 14:55:24)
 ------------------------------------------------------
 Symbolic Z-matrix:
 Charge =  0 Multiplicity = 1

                         Standard orientation:
 ---------------------------------------------------------------------
 Center     Atomic      Atomic             Coordinates (Angstroms)
 Number     Number       Type             X           Y           Z
 ---------------------------------------------------------------------
      1          6           0       -3.997389    0.384593   -1.799692
      2          6           0       -2.703650   -0.080786   -2.056950
      3          6           0       -1.872168   -0.483384   -1.007617
      4          6           0       -2.368967   -0.407052    0.292634
      5          6           0       -3.653200    0.052086    0.581129
      6          6           0       -4.467207    0.449430   -0.483793
      7          1           0       -4.636517    0.695301   -2.620894
      8          1           0       -2.336129   -0.132224   -3.077895
      9          1           0       -0.866406   -0.847665   -1.178383
     10          1           0       -3.991585    0.091926    1.609392
     11          1           0       -5.471502    0.810431   -0.281026
     12          7           0       -1.497964   -0.830483    1.411768
     13          8           0       -1.959266   -0.753579    2.548396
     14          8           0       -0.370463   -1.231255    1.131125
     15          6           0        3.152328    1.167442   -0.333567
     16          6           0        2.355805    1.995506    0.675315
     17          6           0        2.237082    3.465316    0.271140
     18          1           0        4.155694    1.601166   -0.443499
     19          1           0        2.670772    1.240073   -1.318566
     20          1           0        2.837939    1.920215    1.658420
     21          1           0        1.354283    1.559646    0.783002
     22          1           0        1.736161    3.559153   -0.697816
     23          1           0        3.228247    3.921769    0.182576
     24          1           0        1.663931    4.038808    1.006305
     25          6           0        3.279720   -0.304043    0.056607
     26          6           0        4.076244   -1.132107   -0.952276
     27          6           0        4.194967   -2.601917   -0.548101
     28          1           0        3.761276   -0.376675    1.041606
     29          1           0        2.276354   -0.737768    0.166538
     30          1           0        5.077765   -0.696247   -1.059962
     31          1           0        3.594109   -1.056815   -1.935380
     32          1           0        3.203802   -3.058370   -0.459537
     33          1           0        4.695888   -2.695754    0.420855
     34          1           0        4.768117   -3.175408   -1.283264
 ---------------------------------------------------------------------

 SCF Done:  E(RHF) =  -669.536240930     A.U. after   15 cycles
 E2 =    -0.2091718395D+01 EUMP2 =    -0.67162795932556D+03

 The electronic state is 1-A.
 Alpha  occ. eigenvalues --  -20.61010 -20.61004 -15.86035 -11.31335 -11.27902
 Alpha  occ. eigenvalues --  -11.27888 -11.27625 -11.26899 -11.26888 -11.20991
 Alpha  occ. eigenvalues --  -11.20944 -11.20783 -11.20657 -11.20437 -11.20414
 Alpha  occ. eigenvalues --   -1.60062  -1.39620  -1.19501  -1.08908  -1.07743
 Alpha  occ. eigenvalues --   -1.04895  -1.02925  -0.95755  -0.95371  -0.86391
 Alpha  occ. eigenvalues --   -0.86296  -0.82592  -0.78974  -0.77698  -0.77463
 Alpha  occ. eigenvalues --   -0.72260  -0.71370  -0.70610  -0.65163  -0.64899
 Alpha  occ. eigenvalues --   -0.64377  -0.62243  -0.60337  -0.58741  -0.56971
 Alpha  occ. eigenvalues --   -0.55398  -0.54668  -0.53225  -0.52987  -0.52101
 Alpha  occ. eigenvalues --   -0.51786  -0.49324  -0.49022  -0.49004  -0.47294
 Alpha  occ. eigenvalues --   -0.46024  -0.45314  -0.45075  -0.44629  -0.43145
 Alpha  occ. eigenvalues --   -0.37476  -0.36494
 Alpha virt. eigenvalues --    0.04863   0.11145   0.16334   0.20915   0.23136
 Alpha virt. eigenvalues --    0.24823   0.26383   0.27434   0.27830   0.28374
 Alpha virt. eigenvalues --    0.29053   0.31179   0.31895   0.32269   0.32453

 Mulliken charges:
               1
     1  C   -0.170486
     2  C   -0.218509
     3  C   -0.170896
     4  C    0.157873
     5  C   -0.170761
     6  C   -0.218460
     7  H    0.226231
     8  H    0.224086
     9  H    0.275472
    10  H    0.275982
    11  H    0.224037
    12  N    0.493481
    13  O   -0.457941
    14  O   -0.465508
    15  C   -0.296738
    16  C   -0.299912
    17  C   -0.475268
    18  H    0.146729
    19  H    0.141176
    20  H    0.154286
    21  H    0.156149
    22  H    0.150310
    23  H    0.153821
    24  H    0.159303
    25  C   -0.310097
    26  C   -0.298292
    27  C   -0.475398
    28  H    0.150404
    29  H    0.174215
    30  H    0.148958
    31  H    0.144680
    32  H    0.158811
    33  H    0.156384
    34  H    0.155877
 Sum of Mulliken charges =  -0.00000

 Dipole moment (field-independent basis, Debye):
    X=             -3.3088    Y=              1.3781    Z=             -3.7699  Tot=              5.2019
 Quadrupole moment (field-independent basis, Debye-Ang):
   XX=            -77.6114   YY=            -98.1698   ZZ=            -95.1072
   XY=             -3.1195   XZ=              6.8622   YZ=              3.0700

 Normal termination of Gaussian 16 at Thu May  6 06:21:45 2021.
