 Gaussian 16, Revision A.03,
 Gaussian 16:  EM64L-G16RevA.03 25-Dec-2016

 -------------
 #p 6-31g* mp2
 -------------

 ------------------------------------------------------
 Input file generated by CHIRIPA (05-May-2021 14:51:12)
 ------------------------------------------------------
 Symbolic Z-matrix:
 Charge =  0 Multiplicity = 1

                         Standard orientation:
 ---------------------------------------------------------------------
 Center     Atomic      Atomic             Coordinates (Angstroms)
 Number     Number       Type             X           Y           Z
 ---------------------------------------------------------------------
      1          6           0        3.612106    0.713000    0.085416
      2          6           0        4.781177    1.647874   -0.226464
      3          6           0        4.588233    3.049444    0.353336
      4          1           0        2.685328    1.150626   -0.310198
      5          1           0        3.485894    0.645937    1.174897
      6          1           0        4.906024    1.712065   -1.314999
      7          1           0        5.705308    1.207879    0.169771
      8          1           0        4.485838    3.005066    1.442440
      9          1           0        3.682012    3.512117   -0.050766
     10          1           0        5.435553    3.701189    0.118519
     11          6           0        3.790326   -0.691865   -0.487576
     12          6           0        2.621255   -1.626739   -0.175696
     13          6           0        2.814199   -3.028309   -0.755496
     14          1           0        3.916538   -0.624803   -1.577057
     15          1           0        4.717104   -1.129491   -0.091962
     16          1           0        1.697123   -1.186745   -0.571931
     17          1           0        2.496408   -1.690931    0.912839
     18          1           0        3.720419   -3.490982   -0.351394
     19          1           0        2.916593   -2.983932   -1.844600
     20          1           0        1.966879   -3.680054   -0.520679
     21          6           0       -4.103834    0.410199   -0.293173
     22          6           0       -5.601242    0.439930    0.014837
     23          6           0       -6.393282    1.285725   -0.982709
     24          1           0       -3.715683    1.437955   -0.294138
     25          1           0       -3.953158    0.018223   -1.308578
     26          1           0       -5.748967    0.830437    1.029873
     27          1           0       -5.985833   -0.588031    0.015258
     28          1           0       -6.275490    0.894495   -1.998418
     29          1           0       -6.037277    2.321022   -0.978039
     30          1           0       -7.461319    1.293148   -0.743750
     31          6           0       -3.298598   -0.431334    0.695333
     32          6           0       -1.801190   -0.461065    0.387323
     33          6           0       -1.009150   -1.306860    1.384869
     34          1           0       -3.449274   -0.039358    1.710738
     35          1           0       -3.686749   -1.459090    0.696299
     36          1           0       -1.416598    0.566896    0.386902
     37          1           0       -1.653464   -0.851572   -0.627713
     38          1           0       -1.365154   -2.342157    1.380198
     39          1           0       -1.126942   -0.915629    2.400578
     40          1           0        0.058887   -1.314283    1.145910
 ---------------------------------------------------------------------

 SCF Done:  E(RHF) =  -470.732702511     A.U. after   11 cycles
 E2 =    -0.1583060311D+01 EUMP2 =    -0.47231576282210D+03

 The electronic state is 1-A.
 Alpha  occ. eigenvalues --  -11.21641 -11.21620 -11.21583 -11.21553 -11.21432
 Alpha  occ. eigenvalues --  -11.21374 -11.21372 -11.21313 -11.21102 -11.21085
 Alpha  occ. eigenvalues --  -11.21059 -11.20874  -1.08469  -1.08389  -1.03583
 Alpha  occ. eigenvalues --   -1.03464  -0.96016  -0.95915  -0.87040  -0.86930
 Alpha  occ. eigenvalues --   -0.79693  -0.79507  -0.78291  -0.78210  -0.65094
 Alpha  occ. eigenvalues --   -0.65023  -0.60968  -0.60873  -0.59622  -0.59127
 Alpha  occ. eigenvalues --   -0.57740  -0.57401  -0.55291  -0.55207  -0.52771
 Alpha  occ. eigenvalues --   -0.52600  -0.52441  -0.52315  -0.49947  -0.49866
 Alpha  occ. eigenvalues --   -0.48090  -0.47691  -0.46668  -0.46583  -0.45803
 Alpha  occ. eigenvalues --   -0.45755  -0.45728  -0.45677  -0.43844  -0.43640
 Alpha virt. eigenvalues --    0.21950   0.23082   0.23568   0.24858   0.26309
 Alpha virt. eigenvalues --    0.26621   0.26661   0.27555   0.27991   0.28993
 Alpha virt. eigenvalues --    0.30654   0.31092   0.31473   0.31785   0.32124

 Mulliken charges:
               1
     1  C   -0.298856
     2  C   -0.299596
     3  C   -0.475728
     4  H    0.149780
     5  H    0.149606
     6  H    0.152009
     7  H    0.152022
     8  H    0.155229
     9  H    0.155187
    10  H    0.160328
    11  C   -0.296893
    12  C   -0.306101
    13  C   -0.475929
    14  H    0.149608
    15  H    0.149735
    16  H    0.155837
    17  H    0.153790
    18  H    0.155413
    19  H    0.155261
    20  H    0.161150
    21  C   -0.298214
    22  C   -0.299608
    23  C   -0.475677
    24  H    0.149461
    25  H    0.149282
    26  H    0.151923
    27  H    0.151911
    28  H    0.155099
    29  H    0.155117
    30  H    0.160201
    31  C   -0.298171
    32  C   -0.299249
    33  C   -0.486298
    34  H    0.149571
    35  H    0.149566
    36  H    0.151337
    37  H    0.150940
    38  H    0.153690
    39  H    0.153971
    40  H    0.173299
 Sum of Mulliken charges =  -0.00000

 Dipole moment (field-independent basis, Debye):
    X=              0.0665    Y=             -0.0081    Z=             -0.0118  Tot=              0.0680
 Quadrupole moment (field-independent basis, Debye-Ang):
   XX=            -85.1002   YY=            -85.4427   ZZ=            -84.2562
   XY=              0.3132   XZ=              0.0722   YZ=              0.2602

 Normal termination of Gaussian 16 at Wed May  5 16:47:28 2021.
