 Gaussian 16, Revision A.03,
 Gaussian 16:  EM64L-G16RevA.03 25-Dec-2016

 -------------
 #p 6-31g* mp2
 -------------

 ------------------------------------------------------
 Input file generated by CHIRIPA (05-May-2021 14:55:22)
 ------------------------------------------------------
 Symbolic Z-matrix:
 Charge =  0 Multiplicity = 1

                         Standard orientation:
 ---------------------------------------------------------------------
 Center     Atomic      Atomic             Coordinates (Angstroms)
 Number     Number       Type             X           Y           Z
 ---------------------------------------------------------------------
      1          6           0        3.401922   -2.196582    0.179053
      2          6           0        2.932659   -1.666286   -1.027223
      3          6           0        2.666740   -0.298903   -1.145959
      4          6           0        2.882225    0.512863   -0.033352
      5          6           0        3.349013    0.014459    1.181964
      6          6           0        3.608237   -1.355998    1.277859
      7          1           0        3.605894   -3.259992    0.262418
      8          1           0        2.771514   -2.316714   -1.882220
      9          1           0        2.302790    0.138056   -2.067927
     10          1           0        3.499975    0.687913    2.016883
     11          1           0        3.972603   -1.765064    2.215914
     12          7           0        2.604252    1.962078   -0.146962
     13          8           0        2.802263    2.656075    0.847923
     14          8           0        2.193629    2.376534   -1.228744
     15          6           0       -2.991646   -0.243445    0.014636
     16          6           0       -2.196901   -1.535640   -0.176668
     17          6           0       -0.685473   -1.304681   -0.182641
     18          1           0       -2.730271    0.462187   -0.785808
     19          1           0       -2.688244    0.228981    0.959175
     20          1           0       -2.502708   -2.006199   -1.119893
     21          1           0       -2.460342   -2.238350    0.624215
     22          1           0       -0.360434   -0.857029    0.762113
     23          1           0       -0.403040   -0.623560   -0.991904
     24          1           0       -0.136730   -2.241533   -0.320670
     25          6           0       -4.504132   -0.458032    0.022812
     26          6           0       -5.298877    0.834163    0.214116
     27          6           0       -6.810306    0.603204    0.220087
     28          1           0       -4.807533   -0.930458   -0.921728
     29          1           0       -4.765507   -1.163665    0.823256
     30          1           0       -5.035436    1.536872   -0.586768
     31          1           0       -4.993070    1.304722    1.157340
     32          1           0       -7.092738   -0.077917    1.029351
     33          1           0       -7.135345    0.155552   -0.724665
     34          1           0       -7.359048    1.540054    0.358117
 ---------------------------------------------------------------------

 SCF Done:  E(RHF) =  -669.534903983     A.U. after   15 cycles
 E2 =    -0.2092571297D+01 EUMP2 =    -0.67162747527929D+03

 The electronic state is 1-A.
 Alpha  occ. eigenvalues --  -20.60750 -20.60744 -15.85802 -11.31147 -11.27724
 Alpha  occ. eigenvalues --  -11.27718 -11.27471 -11.26740 -11.26728 -11.21608
 Alpha  occ. eigenvalues --  -11.21453 -11.21306 -11.21245 -11.21114 -11.20953
 Alpha  occ. eigenvalues --   -1.59824  -1.39379  -1.19330  -1.08728  -1.08352
 Alpha  occ. eigenvalues --   -1.04740  -1.03475  -0.95932  -0.95564  -0.86951
 Alpha  occ. eigenvalues --   -0.86139  -0.82400  -0.79544  -0.78154  -0.77448
 Alpha  occ. eigenvalues --   -0.72023  -0.71144  -0.70450  -0.64994  -0.64979
 Alpha  occ. eigenvalues --   -0.64747  -0.62094  -0.60876  -0.59314  -0.57542
 Alpha  occ. eigenvalues --   -0.55260  -0.55205  -0.53410  -0.52840  -0.52456
 Alpha  occ. eigenvalues --   -0.52179  -0.49877  -0.48779  -0.48778  -0.47854
 Alpha  occ. eigenvalues --   -0.46577  -0.45696  -0.45620  -0.44785  -0.43729
 Alpha  occ. eigenvalues --   -0.37284  -0.36256
 Alpha virt. eigenvalues --    0.05086   0.11245   0.16582   0.21280   0.22937
 Alpha virt. eigenvalues --    0.24273   0.26603   0.27020   0.27541   0.28079
 Alpha virt. eigenvalues --    0.28457   0.30516   0.31371   0.31667   0.31965

 Mulliken charges:
               1
     1  C   -0.171073
     2  C   -0.215434
     3  C   -0.167873
     4  C    0.160507
     5  C   -0.171949
     6  C   -0.218083
     7  H    0.225286
     8  H    0.223170
     9  H    0.274773
    10  H    0.275310
    11  H    0.223138
    12  N    0.488098
    13  O   -0.460628
    14  O   -0.461061
    15  C   -0.299052
    16  C   -0.300796
    17  C   -0.473240
    18  H    0.152934
    19  H    0.150966
    20  H    0.149827
    21  H    0.150185
    22  H    0.156596
    23  H    0.154163
    24  H    0.154611
    25  C   -0.298164
    26  C   -0.299907
    27  C   -0.475707
    28  H    0.148584
    29  H    0.148442
    30  H    0.153705
    31  H    0.152901
    32  H    0.154362
    33  H    0.154610
    34  H    0.160798
 Sum of Mulliken charges =  -0.00000

 Dipole moment (field-independent basis, Debye):
    X=              1.0251    Y=             -5.0605    Z=              0.3964  Tot=              5.1785
 Quadrupole moment (field-independent basis, Debye-Ang):
   XX=            -90.8519   YY=           -100.7414   ZZ=            -89.2931
   XY=            -14.4761   XZ=              2.7062   YZ=              0.9329

 Normal termination of Gaussian 16 at Thu May  6 12:34:46 2021.
