 Gaussian 16, Revision A.03,
 Gaussian 16:  EM64L-G16RevA.03 25-Dec-2016

 -------------
 #p 6-31g* mp2
 -------------

 ------------------------------------------------------
 Input file generated by CHIRIPA (05-May-2021 14:51:12)
 ------------------------------------------------------
 Symbolic Z-matrix:
 Charge =  0 Multiplicity = 1

                         Standard orientation:
 ---------------------------------------------------------------------
 Center     Atomic      Atomic             Coordinates (Angstroms)
 Number     Number       Type             X           Y           Z
 ---------------------------------------------------------------------
      1          6           0       -3.554817    0.304587    0.486516
      2          6           0       -2.210747   -0.339286    0.828402
      3          6           0       -1.187217    0.670072    1.349340
      4          1           0       -3.397199    1.090234   -0.265057
      5          1           0       -3.952758    0.803202    1.381178
      6          1           0       -1.816117   -0.837717   -0.066277
      7          1           0       -2.371609   -1.123622    1.579107
      8          1           0       -1.556134    1.159540    2.256491
      9          1           0       -0.997486    1.447069    0.601758
     10          1           0       -0.233739    0.188410    1.587546
     11          6           0       -4.588488   -0.691740   -0.035582
     12          6           0       -5.932558   -0.047867   -0.377468
     13          6           0       -6.956088   -1.057225   -0.898406
     14          1           0       -4.190547   -1.190355   -0.930244
     15          1           0       -4.746106   -1.477387    0.715990
     16          1           0       -5.771696    0.736469   -1.128173
     17          1           0       -6.327188    0.450564    0.517211
     18          1           0       -7.145819   -1.834222   -0.150824
     19          1           0       -6.587171   -1.546693   -1.805557
     20          1           0       -7.909566   -0.575563   -1.136612
     21          6           0        3.671566    0.704628   -0.628193
     22          6           0        2.506920    1.314463    0.152632
     23          6           0        1.716057    2.334997   -0.666417
     24          1           0        4.342226    1.508492   -0.961305
     25          1           0        3.283157    0.224814   -1.537210
     26          1           0        2.897253    1.791785    1.060607
     27          1           0        1.839055    0.509037    0.484086
     28          1           0        1.299385    1.868238   -1.564817
     29          1           0        2.363596    3.158274   -0.985021
     30          1           0        0.888268    2.758376   -0.089031
     31          6           0        4.471740   -0.317475    0.177259
     32          6           0        5.636385   -0.927310   -0.603566
     33          6           0        6.427248   -1.947844    0.215483
     34          1           0        4.860147    0.162339    1.086276
     35          1           0        3.801079   -1.121339    0.510371
     36          1           0        6.304250   -0.121885   -0.935020
     37          1           0        5.246052   -1.404633   -1.511541
     38          1           0        5.779709   -2.771121    0.534087
     39          1           0        6.843920   -1.481085    1.113883
     40          1           0        7.255037   -2.371224   -0.361903
 ---------------------------------------------------------------------

 SCF Done:  E(RHF) =  -470.732276829     A.U. after   11 cycles
 E2 =    -0.1583242030D+01 EUMP2 =    -0.47231551885871D+03

 The electronic state is 1-A.
 Alpha  occ. eigenvalues --  -11.21602 -11.21598 -11.21588 -11.21513 -11.21405
 Alpha  occ. eigenvalues --  -11.21377 -11.21346 -11.21314 -11.21073 -11.21061
 Alpha  occ. eigenvalues --  -11.21013 -11.21005  -1.08436  -1.08392  -1.03569
 Alpha  occ. eigenvalues --   -1.03457  -0.96048  -0.95884  -0.87034  -0.86936
 Alpha  occ. eigenvalues --   -0.79621  -0.79543  -0.78250  -0.78206  -0.65099
 Alpha  occ. eigenvalues --   -0.65005  -0.61080  -0.60809  -0.59461  -0.59219
 Alpha  occ. eigenvalues --   -0.57607  -0.57580  -0.55386  -0.55096  -0.52773
 Alpha  occ. eigenvalues --   -0.52642  -0.52470  -0.52235  -0.49933  -0.49828
 Alpha  occ. eigenvalues --   -0.48059  -0.47733  -0.46617  -0.46567  -0.45787
 Alpha  occ. eigenvalues --   -0.45746  -0.45711  -0.45672  -0.43779  -0.43686
 Alpha virt. eigenvalues --    0.21796   0.23116   0.23529   0.24949   0.26318
 Alpha virt. eigenvalues --    0.26547   0.26990   0.27099   0.27824   0.29200
 Alpha virt. eigenvalues --    0.30207   0.30784   0.31565   0.31795   0.32559

 Mulliken charges:
               1
     1  C   -0.298605
     2  C   -0.299541
     3  C   -0.482950
     4  H    0.149832
     5  H    0.149572
     6  H    0.151428
     7  H    0.151671
     8  H    0.154713
     9  H    0.160636
    10  H    0.163845
    11  C   -0.298247
    12  C   -0.299662
    13  C   -0.475699
    14  H    0.149418
    15  H    0.149626
    16  H    0.151986
    17  H    0.151939
    18  H    0.155163
    19  H    0.155151
    20  H    0.160270
    21  C   -0.297798
    22  C   -0.303674
    23  C   -0.477793
    24  H    0.149402
    25  H    0.149086
    26  H    0.151546
    27  H    0.157201
    28  H    0.153893
    29  H    0.154875
    30  H    0.163217
    31  C   -0.298206
    32  C   -0.299583
    33  C   -0.475699
    34  H    0.149530
    35  H    0.149163
    36  H    0.151966
    37  H    0.151842
    38  H    0.155112
    39  H    0.155173
    40  H    0.160201
 Sum of Mulliken charges =  -0.00000

 Dipole moment (field-independent basis, Debye):
    X=             -0.0134    Y=              0.0117    Z=              0.0125  Tot=              0.0217
 Quadrupole moment (field-independent basis, Debye-Ang):
   XX=            -85.6317   YY=            -85.1635   ZZ=            -84.1525
   XY=              0.4869   XZ=             -0.6952   YZ=              0.2335

 Normal termination of Gaussian 16 at Wed May  5 16:49:03 2021.
