 Gaussian 16, Revision A.03,
 Gaussian 16:  EM64L-G16RevA.03 25-Dec-2016

 -------------
 #p 6-31g* mp2
 -------------

 ------------------------------------------------------
 Input file generated by CHIRIPA (05-May-2021 14:55:25)
 ------------------------------------------------------
 Symbolic Z-matrix:
 Charge =  0 Multiplicity = 1

                         Standard orientation:
 ---------------------------------------------------------------------
 Center     Atomic      Atomic             Coordinates (Angstroms)
 Number     Number       Type             X           Y           Z
 ---------------------------------------------------------------------
      1          6           0        2.791230    1.800976    1.647932
      2          6           0        3.768688    1.540731    0.681821
      3          6           0        3.606653    0.491107   -0.227345
      4          6           0        2.449657   -0.281729   -0.141470
      5          6           0        1.457830   -0.047459    0.809681
      6          6           0        1.640949    1.007449    1.708671
      7          1           0        2.925292    2.618401    2.350241
      8          1           0        4.663024    2.155350    0.632305
      9          1           0        4.347520    0.267558   -0.985343
     10          1           0        0.576977   -0.677465    0.834327
     11          1           0        0.880181    1.207244    2.457910
     12          7           0        2.266958   -1.395716   -1.098577
     13          8           0        1.238639   -2.061959   -1.002057
     14          8           0        3.155536   -1.581521   -1.927155
     15          6           0       -2.907769    0.840211   -0.063707
     16          6           0       -3.570348    1.669237   -1.164476
     17          6           0       -3.026970    3.096529   -1.237758
     18          1           0       -3.056115    1.340636    0.902995
     19          1           0       -1.823224    0.812152   -0.237972
     20          1           0       -4.653476    1.694570   -0.988960
     21          1           0       -3.420572    1.166682   -2.128645
     22          1           0       -1.950352    3.089142   -1.436351
     23          1           0       -3.190261    3.620030   -0.290192
     24          1           0       -3.514400    3.671420   -2.031341
     25          6           0       -3.440437   -0.588999    0.022050
     26          6           0       -2.777858   -1.418023    1.122819
     27          6           0       -3.321235   -2.845317    1.196101
     28          1           0       -4.524982   -0.560939    0.196314
     29          1           0       -3.292090   -1.089424   -0.944653
     30          1           0       -2.927634   -0.915468    2.086987
     31          1           0       -1.694729   -1.443357    0.947303
     32          1           0       -3.157944   -3.368817    0.248533
     33          1           0       -4.397854   -2.837929    1.394694
     34          1           0       -2.833805   -3.420207    1.989683
 ---------------------------------------------------------------------

 SCF Done:  E(RHF) =  -669.535818405     A.U. after   15 cycles
 E2 =    -0.2091875357D+01 EUMP2 =    -0.67162769376188D+03

 The electronic state is 1-A.
 Alpha  occ. eigenvalues --  -20.60810 -20.60803 -15.85859 -11.31203 -11.27771
 Alpha  occ. eigenvalues --  -11.27749 -11.27505 -11.26788 -11.26769 -11.21771
 Alpha  occ. eigenvalues --  -11.21678 -11.21547 -11.21391 -11.21191 -11.20977
 Alpha  occ. eigenvalues --   -1.59883  -1.39438  -1.19375  -1.08774  -1.08521
 Alpha  occ. eigenvalues --   -1.04773  -1.03596  -0.96025  -0.95612  -0.87044
 Alpha  occ. eigenvalues --   -0.86174  -0.82442  -0.79687  -0.78379  -0.77484
 Alpha  occ. eigenvalues --   -0.72080  -0.71205  -0.70489  -0.65176  -0.65026
 Alpha  occ. eigenvalues --   -0.64745  -0.62137  -0.60965  -0.59404  -0.57655
 Alpha  occ. eigenvalues --   -0.55298  -0.55278  -0.53105  -0.52892  -0.52708
 Alpha  occ. eigenvalues --   -0.52454  -0.49954  -0.48839  -0.48834  -0.47994
 Alpha  occ. eigenvalues --   -0.46705  -0.45889  -0.45796  -0.44845  -0.43856
 Alpha  occ. eigenvalues --   -0.37355  -0.36366
 Alpha virt. eigenvalues --    0.05011   0.11241   0.16512   0.20155   0.22973
 Alpha virt. eigenvalues --    0.23991   0.25114   0.26753   0.27830   0.28014
 Alpha virt. eigenvalues --    0.29644   0.30325   0.31497   0.31670   0.32028

 Mulliken charges:
               1
     1  C   -0.170493
     2  C   -0.218978
     3  C   -0.169802
     4  C    0.156473
     5  C   -0.180663
     6  C   -0.223390
     7  H    0.225824
     8  H    0.223563
     9  H    0.275652
    10  H    0.292648
    11  H    0.225099
    12  N    0.486402
    13  O   -0.462249
    14  O   -0.459923
    15  C   -0.300416
    16  C   -0.299846
    17  C   -0.476055
    18  H    0.144974
    19  H    0.148211
    20  H    0.152290
    21  H    0.156023
    22  H    0.155515
    23  H    0.152630
    24  H    0.161329
    25  C   -0.297865
    26  C   -0.308305
    27  C   -0.474775
    28  H    0.149744
    29  H    0.157322
    30  H    0.146890
    31  H    0.154995
    32  H    0.162829
    33  H    0.154319
    34  H    0.160027
 Sum of Mulliken charges =  -0.00000

 Dipole moment (field-independent basis, Debye):
    X=              0.5992    Y=              3.8470    Z=              3.2758  Tot=              5.0882
 Quadrupole moment (field-independent basis, Debye-Ang):
   XX=            -87.2063   YY=            -98.2767   ZZ=            -95.0433
   XY=             10.5464   XZ=              6.0569   YZ=             -1.5158

 Normal termination of Gaussian 16 at Thu May  6 09:34:57 2021.
