 Gaussian 16, Revision A.03,
 Gaussian 16:  EM64L-G16RevA.03 25-Dec-2016

 -------------
 #p 6-31g* mp2
 -------------

 ------------------------------------------------------
 Input file generated by CHIRIPA (05-May-2021 14:53:14)
 ------------------------------------------------------
 Symbolic Z-matrix:
 Charge =  0 Multiplicity = 1

                         Standard orientation:
 ---------------------------------------------------------------------
 Center     Atomic      Atomic             Coordinates (Angstroms)
 Number     Number       Type             X           Y           Z
 ---------------------------------------------------------------------
      1          6           0       -2.611477    0.654429   -0.651314
      2          6           0       -2.299015    2.084488   -0.209406
      3          6           0       -1.345930    2.803492   -1.164632
      4          1           0       -1.673145    0.088522   -0.730230
      5          1           0       -3.048720    0.676775   -1.659141
      6          1           0       -1.863769    2.059557    0.797846
      7          1           0       -3.238217    2.647003   -0.131348
      8          1           0       -1.776389    2.857914   -2.169791
      9          1           0       -0.394132    2.267131   -1.235318
     10          1           0       -1.136145    3.824114   -0.829696
     11          6           0       -3.563022   -0.077381    0.293538
     12          6           0       -3.875484   -1.507441   -0.148370
     13          6           0       -4.828569   -2.226445    0.806856
     14          1           0       -3.125779   -0.099727    1.301364
     15          1           0       -4.501354    0.488525    0.372454
     16          1           0       -2.936282   -2.069955   -0.226429
     17          1           0       -4.310730   -1.482510   -1.155622
     18          1           0       -5.780367   -1.690083    0.877542
     19          1           0       -4.398110   -2.280866    1.812015
     20          1           0       -5.038354   -3.247066    0.471920
     21          6           0        2.052886    2.002701    1.267828
     22          6           0        2.143655    1.930395   -0.126107
     23          6           0        2.342500    0.701240   -0.761866
     24          6           0        2.446623   -0.440815    0.030698
     25          6           0        2.360352   -0.401293    1.421485
     26          6           0        2.161332    0.838679    2.035821
     27          1           0        1.898350    2.961739    1.753380
     28          1           0        2.059795    2.832754   -0.725073
     29          1           0        2.416445    0.616570   -1.839261
     30          1           0        2.447773   -1.318048    1.991867
     31          1           0        2.091224    0.891825    3.118551
     32          7           0        2.657223   -1.747791   -0.631011
     33          8           0        2.745728   -2.739389    0.089778
     34          8           0        2.729802   -1.755853   -1.857920
 ---------------------------------------------------------------------

 SCF Done:  E(RHF) =  -669.534988016     A.U. after   15 cycles
 E2 =    -0.2092754435D+01 EUMP2 =    -0.67162774245103D+03

 The electronic state is 1-A.
 Alpha  occ. eigenvalues --  -20.60845 -20.60840 -15.85899 -11.31301 -11.27848
 Alpha  occ. eigenvalues --  -11.27845 -11.27585 -11.26883 -11.26852 -11.21915
 Alpha  occ. eigenvalues --  -11.21572 -11.21525 -11.21462 -11.21449 -11.21039
 Alpha  occ. eigenvalues --   -1.59920  -1.39472  -1.19470  -1.08856  -1.08561
 Alpha  occ. eigenvalues --   -1.04882  -1.03685  -0.96153  -0.95682  -0.87188
 Alpha  occ. eigenvalues --   -0.86257  -0.82517  -0.79763  -0.78358  -0.77558
 Alpha  occ. eigenvalues --   -0.72115  -0.71245  -0.70554  -0.65216  -0.65115
 Alpha  occ. eigenvalues --   -0.64859  -0.62233  -0.61085  -0.59535  -0.57756
 Alpha  occ. eigenvalues --   -0.55516  -0.55338  -0.53221  -0.53001  -0.52823
 Alpha  occ. eigenvalues --   -0.52528  -0.50074  -0.48876  -0.48869  -0.48073
 Alpha  occ. eigenvalues --   -0.46781  -0.45904  -0.45814  -0.44870  -0.43942
 Alpha  occ. eigenvalues --   -0.37428  -0.36402
 Alpha virt. eigenvalues --    0.04944   0.11151   0.16353   0.21044   0.22782
 Alpha virt. eigenvalues --    0.24223   0.26370   0.26670   0.27344   0.28183
 Alpha virt. eigenvalues --    0.28580   0.30664   0.31383   0.31495   0.32061

 Mulliken charges:
               1
     1  C   -0.299120
     2  C   -0.297520
     3  C   -0.482151
     4  H    0.152310
     5  H    0.150640
     6  H    0.148995
     7  H    0.152228
     8  H    0.156909
     9  H    0.157869
    10  H    0.153067
    11  C   -0.298219
    12  C   -0.300528
    13  C   -0.475717
    14  H    0.147960
    15  H    0.148983
    16  H    0.155482
    17  H    0.152663
    18  H    0.154253
    19  H    0.154411
    20  H    0.161992
    21  C   -0.171534
    22  C   -0.217349
    23  C   -0.172479
    24  C    0.158744
    25  C   -0.171368
    26  C   -0.218663
    27  H    0.226547
    28  H    0.227190
    29  H    0.276616
    30  H    0.275892
    31  H    0.223955
    32  N    0.487965
    33  O   -0.460188
    34  O   -0.459834
 Sum of Mulliken charges =  -0.00000

 Dipole moment (field-independent basis, Debye):
    X=             -0.6900    Y=              4.5215    Z=              2.3403  Tot=              5.1378
 Quadrupole moment (field-independent basis, Debye-Ang):
   XX=            -98.9741   YY=            -98.8778   ZZ=            -90.8057
   XY=             11.2769   XZ=              6.7017   YZ=             -2.8608

 Normal termination of Gaussian 16 at Thu May  6 18:48:18 2021.
