 Gaussian 16, Revision A.03,
 Gaussian 16:  EM64L-G16RevA.03 25-Dec-2016

 -------------
 #p 6-31g* mp2
 -------------

 ------------------------------------------------------
 Input file generated by CHIRIPA (05-May-2021 14:53:12)
 ------------------------------------------------------
 Symbolic Z-matrix:
 Charge =  0 Multiplicity = 1

                         Standard orientation:
 ---------------------------------------------------------------------
 Center     Atomic      Atomic             Coordinates (Angstroms)
 Number     Number       Type             X           Y           Z
 ---------------------------------------------------------------------
      1          6           0       -3.081837    1.243859   -0.226551
      2          6           0       -2.456093    2.005097    0.942613
      3          6           0       -2.162547    3.467501    0.606456
      4          1           0       -2.406865    1.294309   -1.091891
      5          1           0       -4.012137    1.746070   -0.526086
      6          1           0       -1.527966    1.500806    1.240753
      7          1           0       -3.132546    1.952667    1.805329
      8          1           0       -3.083127    3.991430    0.329633
      9          1           0       -1.469430    3.537001   -0.238150
     10          1           0       -1.715609    3.992863    1.456221
     11          6           0       -3.381101   -0.219477    0.094100
     12          6           0       -4.006845   -0.980715   -1.075064
     13          6           0       -4.300391   -2.443118   -0.738907
     14          1           0       -2.450801   -0.721688    0.393635
     15          1           0       -4.056074   -0.269926    0.959439
     16          1           0       -3.330392   -0.928285   -1.937780
     17          1           0       -4.934972   -0.476423   -1.373204
     18          1           0       -4.993508   -2.512619    0.105699
     19          1           0       -3.379811   -2.967048   -0.462084
     20          1           0       -4.747330   -2.968481   -1.588672
     21          6           0        0.920538   -1.614587    1.574269
     22          6           0        0.588366   -1.404512    0.231864
     23          6           0        1.469443   -0.732868   -0.620864
     24          6           0        2.679659   -0.282742   -0.095454
     25          6           0        3.039240   -0.476638    1.237361
     26          6           0        2.142761   -1.150798    2.071856
     27          1           0        0.230114   -2.137313    2.229606
     28          1           0       -0.360133   -1.763591   -0.157311
     29          1           0        1.237549   -0.556640   -1.664218
     30          1           0        3.992075   -0.107036    1.596412
     31          1           0        2.403378   -1.312520    3.113954
     32          7           0        3.620569    0.429629   -0.988547
     33          8           0        4.680586    0.816350   -0.501263
     34          8           0        3.280220    0.587776   -2.158927
 ---------------------------------------------------------------------

 SCF Done:  E(RHF) =  -669.535523896     A.U. after   15 cycles
 E2 =    -0.2092114050D+01 EUMP2 =    -0.67162763794656D+03

 The electronic state is 1-A.
 Alpha  occ. eigenvalues --  -20.60813 -20.60808 -15.85868 -11.31253 -11.27834
 Alpha  occ. eigenvalues --  -11.27823 -11.27578 -11.26843 -11.26830 -11.22344
 Alpha  occ. eigenvalues --  -11.22148 -11.21975 -11.21886 -11.21881 -11.21291
 Alpha  occ. eigenvalues --   -1.59888  -1.39441  -1.19432  -1.09051  -1.08818
 Alpha  occ. eigenvalues --   -1.04839  -1.04085  -0.96540  -0.95651  -0.87551
 Alpha  occ. eigenvalues --   -0.86237  -0.82483  -0.80160  -0.78853  -0.77527
 Alpha  occ. eigenvalues --   -0.72086  -0.71212  -0.70531  -0.65797  -0.65083
 Alpha  occ. eigenvalues --   -0.64775  -0.62193  -0.61469  -0.59915  -0.58140
 Alpha  occ. eigenvalues --   -0.55851  -0.55326  -0.53226  -0.53145  -0.53007
 Alpha  occ. eigenvalues --   -0.52884  -0.50483  -0.48852  -0.48839  -0.48464
 Alpha  occ. eigenvalues --   -0.47205  -0.46373  -0.46295  -0.44842  -0.44350
 Alpha  occ. eigenvalues --   -0.37397  -0.36425
 Alpha virt. eigenvalues --    0.05009   0.11076   0.16463   0.19035   0.22947
 Alpha virt. eigenvalues --    0.23493   0.25501   0.26498   0.27405   0.28279
 Alpha virt. eigenvalues --    0.29023   0.29919   0.31152   0.31604   0.31911

 Mulliken charges:
               1
     1  C   -0.297764
     2  C   -0.301957
     3  C   -0.476287
     4  H    0.149935
     5  H    0.152201
     6  H    0.153389
     7  H    0.150953
     8  H    0.155615
     9  H    0.158446
    10  H    0.161455
    11  C   -0.301593
    12  C   -0.301086
    13  C   -0.475078
    14  H    0.140946
    15  H    0.151786
    16  H    0.150743
    17  H    0.156620
    18  H    0.157602
    19  H    0.147012
    20  H    0.164281
    21  C   -0.172024
    22  C   -0.219953
    23  C   -0.172439
    24  C    0.158662
    25  C   -0.170622
    26  C   -0.218519
    27  H    0.226692
    28  H    0.227723
    29  H    0.275799
    30  H    0.275960
    31  H    0.223900
    32  N    0.488087
    33  O   -0.460138
    34  O   -0.460349
 Sum of Mulliken charges =  -0.00000

 Dipole moment (field-independent basis, Debye):
    X=             -3.3708    Y=             -2.4291    Z=              3.1436  Tot=              5.2100
 Quadrupole moment (field-independent basis, Debye-Ang):
   XX=           -109.5395   YY=            -95.0188   ZZ=            -92.5816
   XY=             -6.0627   XZ=             11.5446   YZ=             -0.0883

 Normal termination of Gaussian 16 at Thu May  6 07:15:44 2021.
