 Gaussian 16, Revision A.03,
 Gaussian 16:  EM64L-G16RevA.03 25-Dec-2016

 -------------
 #p 6-31g* mp2
 -------------

 ------------------------------------------------------
 Input file generated by CHIRIPA (05-May-2021 14:57:24)
 ------------------------------------------------------
 Symbolic Z-matrix:
 Charge =  0 Multiplicity = 1

                         Standard orientation:
 ---------------------------------------------------------------------
 Center     Atomic      Atomic             Coordinates (Angstroms)
 Number     Number       Type             X           Y           Z
 ---------------------------------------------------------------------
      1          6           0       -6.043721   -1.256331    0.544626
      2          6           0       -6.201030   -0.042145   -0.131781
      3          6           0       -5.095686    0.772438   -0.394873
      4          6           0       -3.841952    0.340044    0.034636
      5          6           0       -3.652898   -0.864287    0.710753
      6          6           0       -4.772398   -1.662811    0.962997
      7          1           0       -6.907877   -1.882881    0.744788
      8          1           0       -7.187161    0.276067   -0.457866
      9          1           0       -5.188948    1.717179   -0.916586
     10          1           0       -2.657285   -1.154785    1.023458
     11          1           0       -4.647240   -2.605265    1.488506
     12          7           0       -2.664281    1.193906   -0.238145
     13          8           0       -1.570368    0.790415    0.150682
     14          8           0       -2.857434    2.250486   -0.835613
     15          6           0        6.248075    0.667182    0.770133
     16          6           0        6.172258   -0.598630    0.179800
     17          6           0        4.951937   -1.088905   -0.294534
     18          6           0        3.822196   -0.283087   -0.161742
     19          6           0        3.865505    0.982240    0.421664
     20          6           0        5.096486    1.452192    0.888971
     21          1           0        7.200190    1.040146    1.135878
     22          1           0        7.064968   -1.210471    0.086177
     23          1           0        4.864803   -2.065178   -0.755748
     24          1           0        2.958439    1.569063    0.500967
     25          1           0        5.152385    2.435624    1.346991
     26          7           0        2.524654   -0.791363   -0.660178
     27          8           0        1.543846   -0.061942   -0.531348
     28          8           0        2.513017   -1.909546   -1.170246
 ---------------------------------------------------------------------

 SCF Done:  E(RHF) =  -868.336039923     A.U. after   16 cycles
 E2 =    -0.2599842934D+01 EUMP2 =    -0.87093588285740D+03

 The electronic state is 1-A.
 Alpha  occ. eigenvalues --  -20.59904 -20.59818 -20.59785 -20.59698 -15.84886
 Alpha  occ. eigenvalues --  -15.84804 -11.30494 -11.30415 -11.27134 -11.27046
 Alpha  occ. eigenvalues --  -11.27040 -11.26978 -11.26910 -11.26834 -11.26197
 Alpha  occ. eigenvalues --  -11.26146 -11.26117 -11.26079  -1.58935  -1.58836
 Alpha  occ. eigenvalues --   -1.38473  -1.38376  -1.18700  -1.18619  -1.08059
 Alpha  occ. eigenvalues --   -1.07975  -1.04133  -1.04058  -0.94855  -0.94754
 Alpha  occ. eigenvalues --   -0.85521  -0.85446  -0.81695  -0.81555  -0.76683
 Alpha  occ. eigenvalues --   -0.76581  -0.71247  -0.70839  -0.70277  -0.70165
 Alpha  occ. eigenvalues --   -0.69805  -0.69730  -0.64348  -0.64258  -0.64142
 Alpha  occ. eigenvalues --   -0.64070  -0.61469  -0.61398  -0.54644  -0.54569
 Alpha  occ. eigenvalues --   -0.52460  -0.52378  -0.52226  -0.52156  -0.47962
 Alpha  occ. eigenvalues --   -0.47857  -0.47770  -0.47740  -0.43826  -0.43714
 Alpha  occ. eigenvalues --   -0.36708  -0.36624  -0.35750  -0.35672
 Alpha virt. eigenvalues --    0.05852   0.05947   0.11899   0.11978   0.17292
 Alpha virt. eigenvalues --    0.17383   0.22003   0.22069   0.27907   0.27960
 Alpha virt. eigenvalues --    0.28929   0.29011   0.31535   0.31594   0.33241

 Mulliken charges:
               1
     1  C   -0.171681
     2  C   -0.218791
     3  C   -0.171604
     4  C    0.158600
     5  C   -0.170393
     6  C   -0.218826
     7  H    0.222949
     8  H    0.220749
     9  H    0.273905
    10  H    0.280018
    11  H    0.221952
    12  N    0.487823
    13  O   -0.447250
    14  O   -0.467352
    15  C   -0.171695
    16  C   -0.218889
    17  C   -0.171894
    18  C    0.157632
    19  C   -0.171905
    20  C   -0.219061
    21  H    0.223183
    22  H    0.220762
    23  H    0.273568
    24  H    0.282674
    25  H    0.222620
    26  N    0.486959
    27  O   -0.445152
    28  O   -0.468901
 Sum of Mulliken charges =  -0.00000

 Dipole moment (field-independent basis, Debye):
    X=              0.4302    Y=             -1.1330    Z=              2.7494  Tot=              3.0046
 Quadrupole moment (field-independent basis, Debye-Ang):
   XX=            -39.1433   YY=           -103.1120   ZZ=           -105.5162
   XY=             11.9970   XZ=              3.0299   YZ=             -0.9240

 Normal termination of Gaussian 16 at Thu May  6 06:39:07 2021.
