 Gaussian 16, Revision A.03,
 Gaussian 16:  EM64L-G16RevA.03 25-Dec-2016

 -------------
 #p 6-31g* mp2
 -------------

 ------------------------------------------------------
 Input file generated by CHIRIPA (05-May-2021 14:51:12)
 ------------------------------------------------------
 Symbolic Z-matrix:
 Charge =  0 Multiplicity = 1

                         Standard orientation:
 ---------------------------------------------------------------------
 Center     Atomic      Atomic             Coordinates (Angstroms)
 Number     Number       Type             X           Y           Z
 ---------------------------------------------------------------------
      1          6           0       -3.598630   -0.251890   -0.335689
      2          6           0       -4.938236   -0.265206    0.401375
      3          6           0       -6.005550    0.578053   -0.296873
      4          1           0       -3.247428    0.785134   -0.426153
      5          1           0       -3.747699   -0.621853   -1.359554
      6          1           0       -4.786431    0.103369    1.423981
      7          1           0       -5.286197   -1.302335    0.490264
      8          1           0       -6.186130    0.208016   -1.311301
      9          1           0       -5.683524    1.621708   -0.372278
     10          1           0       -6.955078    0.554437    0.246910
     11          6           0       -2.521466   -1.090397    0.350133
     12          6           0       -1.181860   -1.077081   -0.386930
     13          6           0       -0.114546   -1.920340    0.311317
     14          1           0       -2.372397   -0.720434    1.373999
     15          1           0       -2.872669   -2.127421    0.440597
     16          1           0       -0.833899   -0.039952   -0.475819
     17          1           0       -1.333665   -1.445656   -1.409536
     18          1           0       -0.436572   -2.963995    0.386723
     19          1           0        0.066034   -1.550303    1.325745
     20          1           0        0.834981   -1.896724   -0.232466
     21          6           0        3.793233    0.465114    0.051286
     22          6           0        4.026339   -1.024910   -0.200656
     23          6           0        5.498003   -1.421706   -0.080034
     24          1           0        4.391512    1.049001   -0.661513
     25          1           0        4.162380    0.722510    1.053720
     26          1           0        3.655603   -1.279707   -1.201780
     27          1           0        3.427287   -1.605321    0.512701
     28          1           0        5.877071   -1.195667    0.921871
     29          1           0        6.106685   -0.868204   -0.802351
     30          1           0        5.641879   -2.490975   -0.263950
     31          6           0        2.326863    0.877174   -0.065731
     32          6           0        2.093758    2.367197    0.186211
     33          6           0        0.622093    2.763994    0.065590
     34          1           0        1.957717    0.619776   -1.068164
     35          1           0        1.728585    0.293286    0.647068
     36          1           0        2.692809    2.947608   -0.527146
     37          1           0        2.464492    2.621994    1.187336
     38          1           0        0.013412    2.210490    0.787908
     39          1           0        0.243025    2.537954   -0.936315
     40          1           0        0.478218    3.833262    0.249506
 ---------------------------------------------------------------------

 SCF Done:  E(RHF) =  -470.731911708     A.U. after   11 cycles
 E2 =    -0.1585038776D+01 EUMP2 =    -0.47231695048411D+03

 The electronic state is 1-A.
 Alpha  occ. eigenvalues --  -11.21620 -11.21608 -11.21560 -11.21464 -11.21383
 Alpha  occ. eigenvalues --  -11.21344 -11.21291 -11.21284 -11.21146 -11.21075
 Alpha  occ. eigenvalues --  -11.21036 -11.20945  -1.08470  -1.08339  -1.03569
 Alpha  occ. eigenvalues --   -1.03452  -0.96036  -0.95893  -0.87043  -0.86924
 Alpha  occ. eigenvalues --   -0.79673  -0.79488  -0.78310  -0.78143  -0.65150
 Alpha  occ. eigenvalues --   -0.64936  -0.61006  -0.60842  -0.59360  -0.59301
 Alpha  occ. eigenvalues --   -0.57704  -0.57462  -0.55396  -0.55133  -0.52796
 Alpha  occ. eigenvalues --   -0.52537  -0.52487  -0.52293  -0.50031  -0.49788
 Alpha  occ. eigenvalues --   -0.48088  -0.47733  -0.46656  -0.46565  -0.45901
 Alpha  occ. eigenvalues --   -0.45728  -0.45608  -0.45429  -0.43813  -0.43648
 Alpha virt. eigenvalues --    0.20978   0.22889   0.23779   0.24233   0.25518
 Alpha virt. eigenvalues --    0.26212   0.26509   0.27551   0.29073   0.29614
 Alpha virt. eigenvalues --    0.30607   0.31254   0.31562   0.31863   0.32588

 Mulliken charges:
               1
     1  C   -0.298611
     2  C   -0.299516
     3  C   -0.475699
     4  H    0.150269
     5  H    0.149267
     6  H    0.151738
     7  H    0.151799
     8  H    0.155057
     9  H    0.155295
    10  H    0.160067
    11  C   -0.297742
    12  C   -0.307657
    13  C   -0.481629
    14  H    0.148439
    15  H    0.149387
    16  H    0.161369
    17  H    0.150929
    18  H    0.154864
    19  H    0.151946
    20  H    0.168273
    21  C   -0.297320
    22  C   -0.302955
    23  C   -0.475532
    24  H    0.149265
    25  H    0.149178
    26  H    0.151327
    27  H    0.155184
    28  H    0.155254
    29  H    0.155149
    30  H    0.160387
    31  C   -0.305640
    32  C   -0.298961
    33  C   -0.478219
    34  H    0.149473
    35  H    0.159847
    36  H    0.151792
    37  H    0.151646
    38  H    0.155387
    39  H    0.156141
    40  H    0.160751
 Sum of Mulliken charges =  -0.00000

 Dipole moment (field-independent basis, Debye):
    X=              0.0476    Y=              0.0208    Z=             -0.0048  Tot=              0.0521
 Quadrupole moment (field-independent basis, Debye-Ang):
   XX=            -86.6327   YY=            -84.6843   ZZ=            -83.6582
   XY=              1.1185   XZ=             -0.3075   YZ=              0.5168

 Normal termination of Gaussian 16 at Wed May  5 15:16:25 2021.
