 Gaussian 16, Revision A.03,
 Gaussian 16:  EM64L-G16RevA.03 25-Dec-2016

 -------------
 #p 6-31g* mp2
 -------------

 ------------------------------------------------------
 Input file generated by CHIRIPA (05-May-2021 14:53:18)
 ------------------------------------------------------
 Symbolic Z-matrix:
 Charge =  0 Multiplicity = 1

                         Standard orientation:
 ---------------------------------------------------------------------
 Center     Atomic      Atomic             Coordinates (Angstroms)
 Number     Number       Type             X           Y           Z
 ---------------------------------------------------------------------
      1          6           0        2.040415   -0.689577   -0.461369
      2          6           0        1.674537   -1.953333   -1.240497
      3          6           0        0.173066   -2.071429   -1.503996
      4          1           0        1.497624   -0.685324    0.493777
      5          1           0        1.695074    0.190698   -1.021056
      6          1           0        2.021693   -2.830907   -0.680173
      7          1           0        2.218409   -1.954672   -2.193816
      8          1           0       -0.184975   -1.214254   -2.083357
      9          1           0       -0.382809   -2.095467   -0.561114
     10          1           0       -0.066182   -2.981950   -2.062182
     11          6           0        3.537982   -0.557345   -0.190194
     12          6           0        3.903860    0.706411    0.588933
     13          6           0        5.405331    0.824507    0.852432
     14          1           0        3.883323   -1.437620    0.369493
     15          1           0        4.080773   -0.561598   -1.145341
     16          1           0        3.359987    0.707750    1.542252
     17          1           0        3.556704    1.583985    0.028609
     18          1           0        5.961206    0.848545   -0.090450
     19          1           0        5.763372   -0.032668    1.431794
     20          1           0        5.644579    1.735028    1.410618
     21          6           0       -1.413019    2.609620   -0.874166
     22          6           0       -0.853932    2.226380    0.349382
     23          6           0       -1.270739    1.052350    0.983790
     24          6           0       -2.253119    0.281879    0.363634
     25          6           0       -2.829265    0.637002   -0.855068
     26          6           0       -2.397167    1.815108   -1.471433
     27          1           0       -1.083295    3.523217   -1.359982
     28          1           0       -0.089459    2.841455    0.815547
     29          1           0       -0.854777    0.732093    1.931328
     30          1           0       -3.589525    0.003282   -1.295318
     31          1           0       -2.833129    2.110266   -2.421624
     32          7           0       -2.702468   -0.963171    1.025703
     33          8           0       -3.569469   -1.624578    0.458705
     34          8           0       -2.179157   -1.254060    2.099093
 ---------------------------------------------------------------------

 SCF Done:  E(RHF) =  -669.535391259     A.U. after   15 cycles
 E2 =    -0.2093887204D+01 EUMP2 =    -0.67162927846292D+03

 The electronic state is 1-A.
 Alpha  occ. eigenvalues --  -20.60803 -20.60794 -15.85841 -11.31164 -11.27750
 Alpha  occ. eigenvalues --  -11.27746 -11.27507 -11.26781 -11.26765 -11.21936
 Alpha  occ. eigenvalues --  -11.21543 -11.21527 -11.21413 -11.21334 -11.20904
 Alpha  occ. eigenvalues --   -1.59878  -1.39430  -1.19359  -1.08765  -1.08544
 Alpha  occ. eigenvalues --   -1.04760  -1.03625  -0.96059  -0.95602  -0.87080
 Alpha  occ. eigenvalues --   -0.86160  -0.82434  -0.79717  -0.78367  -0.77478
 Alpha  occ. eigenvalues --   -0.72067  -0.71214  -0.70477  -0.65174  -0.65017
 Alpha  occ. eigenvalues --   -0.64764  -0.62112  -0.61016  -0.59445  -0.57684
 Alpha  occ. eigenvalues --   -0.55338  -0.55273  -0.53152  -0.52858  -0.52740
 Alpha  occ. eigenvalues --   -0.52477  -0.50004  -0.48827  -0.48821  -0.48003
 Alpha  occ. eigenvalues --   -0.46754  -0.45877  -0.45806  -0.44833  -0.43873
 Alpha  occ. eigenvalues --   -0.37307  -0.36316
 Alpha virt. eigenvalues --    0.05030   0.11205   0.16521   0.21070   0.22823
 Alpha virt. eigenvalues --    0.24076   0.25850   0.26559   0.27540   0.28121
 Alpha virt. eigenvalues --    0.28925   0.30576   0.31173   0.31733   0.31959

 Mulliken charges:
               1
     1  C   -0.299768
     2  C   -0.299764
     3  C   -0.478041
     4  H    0.149874
     5  H    0.147502
     6  H    0.154955
     7  H    0.150112
     8  H    0.152429
     9  H    0.158232
    10  H    0.162802
    11  C   -0.298258
    12  C   -0.298946
    13  C   -0.475501
    14  H    0.152104
    15  H    0.149474
    16  H    0.149476
    17  H    0.146767
    18  H    0.155743
    19  H    0.157487
    20  H    0.159078
    21  C   -0.171857
    22  C   -0.216941
    23  C   -0.169066
    24  C    0.158690
    25  C   -0.170485
    26  C   -0.219286
    27  H    0.225501
    28  H    0.224216
    29  H    0.274930
    30  H    0.275884
    31  H    0.223428
    32  N    0.489757
    33  O   -0.459041
    34  O   -0.461489
 Sum of Mulliken charges =  -0.00000

 Dipole moment (field-independent basis, Debye):
    X=              1.5373    Y=              4.3260    Z=             -2.3321  Tot=              5.1494
 Quadrupole moment (field-independent basis, Debye-Ang):
   XX=           -101.4183   YY=            -92.4467   ZZ=            -93.3678
   XY=             -9.2213   XZ=              8.3605   YZ=              1.1107

 Normal termination of Gaussian 16 at Thu May  6 14:00:13 2021.
