 Gaussian 16, Revision A.03,
 Gaussian 16:  EM64L-G16RevA.03 25-Dec-2016

 -------------
 #p 6-31g* mp2
 -------------

 ------------------------------------------------------
 Input file generated by CHIRIPA (05-May-2021 14:55:20)
 ------------------------------------------------------
 Symbolic Z-matrix:
 Charge =  0 Multiplicity = 1

                         Standard orientation:
 ---------------------------------------------------------------------
 Center     Atomic      Atomic             Coordinates (Angstroms)
 Number     Number       Type             X           Y           Z
 ---------------------------------------------------------------------
      1          6           0       -4.250635    0.829769   -0.359210
      2          6           0       -3.552635    0.940498    0.847876
      3          6           0       -2.448918    0.122581    1.107430
      4          6           0       -2.068962   -0.799353    0.133284
      5          6           0       -2.743967   -0.933515   -1.079011
      6          6           0       -3.844789   -0.105236   -1.317112
      7          1           0       -5.106905    1.469171   -0.552505
      8          1           0       -3.865564    1.665744    1.593623
      9          1           0       -1.890523    0.187268    2.033404
     10          1           0       -2.408246   -1.665865   -1.803147
     11          1           0       -4.384976   -0.193434   -2.255442
     12          7           0       -0.902038   -1.670730    0.396706
     13          8           0       -0.587371   -2.475028   -0.477780
     14          8           0       -0.324167   -1.532918    1.472675
     15          6           0        2.310296    1.156730    0.261094
     16          6           0        1.513925    2.151636   -0.583855
     17          6           0        0.348592    2.778182    0.182456
     18          1           0        1.636159    0.365699    0.617118
     19          1           0        2.691421    1.668619    1.155583
     20          1           0        1.135580    1.638365   -1.477177
     21          1           0        2.190076    2.940287   -0.938068
     22          1           0        0.711928    3.314923    1.064780
     23          1           0       -0.348559    2.005604    0.522608
     24          1           0       -0.207071    3.486141   -0.440356
     25          6           0        3.478593    0.521963   -0.491158
     26          6           0        4.274963   -0.472943    0.353792
     27          6           0        5.440297   -1.099489   -0.412518
     28          1           0        3.097468    0.010075   -1.385646
     29          1           0        4.152730    1.312994   -0.847181
     30          1           0        3.598813   -1.261594    0.708004
     31          1           0        4.653309    0.040328    1.247114
     32          1           0        6.137449   -0.326911   -0.752672
     33          1           0        5.076961   -1.636229   -1.294844
     34          1           0        5.995959   -1.807448    0.210292
 ---------------------------------------------------------------------

 SCF Done:  E(RHF) =  -669.535845047     A.U. after   15 cycles
 E2 =    -0.2093558299D+01 EUMP2 =    -0.67162940334549D+03

 The electronic state is 1-A.
 Alpha  occ. eigenvalues --  -20.61054 -20.61040 -15.86058 -11.31345 -11.27901
 Alpha  occ. eigenvalues --  -11.27892 -11.27624 -11.26896 -11.26885 -11.21162
 Alpha  occ. eigenvalues --  -11.20830 -11.20644 -11.20573 -11.20510 -11.20264
 Alpha  occ. eigenvalues --   -1.60103  -1.39659  -1.19516  -1.08920  -1.07695
 Alpha  occ. eigenvalues --   -1.04906  -1.02889  -0.95771  -0.95351  -0.86401
 Alpha  occ. eigenvalues --   -0.86288  -0.82602  -0.78958  -0.77673  -0.77454
 Alpha  occ. eigenvalues --   -0.72282  -0.71424  -0.70620  -0.65167  -0.64898
 Alpha  occ. eigenvalues --   -0.64314  -0.62252  -0.60300  -0.58742  -0.56960
 Alpha  occ. eigenvalues --   -0.55404  -0.54744  -0.53202  -0.52988  -0.52083
 Alpha  occ. eigenvalues --   -0.51758  -0.49300  -0.49057  -0.49037  -0.47284
 Alpha  occ. eigenvalues --   -0.46039  -0.45371  -0.45005  -0.44493  -0.43104
 Alpha  occ. eigenvalues --   -0.37474  -0.36446
 Alpha virt. eigenvalues --    0.04819   0.11086   0.16296   0.21243   0.23429
 Alpha virt. eigenvalues --    0.24830   0.26912   0.27388   0.27919   0.28648
 Alpha virt. eigenvalues --    0.28725   0.30904   0.31724   0.32200   0.32451

 Mulliken charges:
               1
     1  C   -0.170323
     2  C   -0.216108
     3  C   -0.174250
     4  C    0.160617
     5  C   -0.170925
     6  C   -0.218111
     7  H    0.226410
     8  H    0.224876
     9  H    0.277075
    10  H    0.275842
    11  H    0.224084
    12  N    0.487330
    13  O   -0.458406
    14  O   -0.458627
    15  C   -0.308704
    16  C   -0.299164
    17  C   -0.478916
    18  H    0.166949
    19  H    0.146358
    20  H    0.149692
    21  H    0.150007
    22  H    0.153402
    23  H    0.154463
    24  H    0.155621
    25  C   -0.297079
    26  C   -0.302261
    27  C   -0.475507
    28  H    0.150508
    29  H    0.144757
    30  H    0.165659
    31  H    0.148486
    32  H    0.151144
    33  H    0.155927
    34  H    0.159171
 Sum of Mulliken charges =  -0.00000

 Dipole moment (field-independent basis, Debye):
    X=             -4.3263    Y=              2.8408    Z=             -0.8705  Tot=              5.2483
 Quadrupole moment (field-independent basis, Debye-Ang):
   XX=            -78.9921   YY=            -99.5104   ZZ=            -91.2369
   XY=             -2.3839   XZ=              2.7927   YZ=              3.4508

 Normal termination of Gaussian 16 at Thu May  6 02:58:16 2021.
