 Gaussian 16, Revision A.03,
 Gaussian 16:  EM64L-G16RevA.03 25-Dec-2016

 -------------
 #p 6-31g* mp2
 -------------

 ------------------------------------------------------
 Input file generated by CHIRIPA (05-May-2021 14:57:26)
 ------------------------------------------------------
 Symbolic Z-matrix:
 Charge =  0 Multiplicity = 1

                         Standard orientation:
 ---------------------------------------------------------------------
 Center     Atomic      Atomic             Coordinates (Angstroms)
 Number     Number       Type             X           Y           Z
 ---------------------------------------------------------------------
      1          6           0        2.067692    1.884925    1.106328
      2          6           0        1.751341    0.557652    1.414204
      3          6           0        2.526103   -0.491882    0.911441
      4          6           0        3.615027   -0.176567    0.100200
      5          6           0        3.955727    1.135595   -0.224522
      6          6           0        3.166938    2.169160    0.289388
      7          1           0        1.460390    2.694025    1.501216
      8          1           0        0.898234    0.333940    2.048401
      9          1           0        2.303706   -1.528442    1.133927
     10          1           0        4.812269    1.327294   -0.859349
     11          1           0        3.414979    3.198991    0.048624
     12          7           0        4.442659   -1.279208   -0.437953
     13          8           0        5.396833   -0.974984   -1.150438
     14          8           0        4.121510   -2.426805   -0.137081
     15          6           0       -1.322460    1.225330   -0.639196
     16          6           0       -2.549391    1.865362   -0.842962
     17          6           0       -3.750320    1.193290   -0.596713
     18          6           0       -3.687073   -0.124121   -0.145361
     19          6           0       -2.480404   -0.788996    0.067194
     20          6           0       -1.291936   -0.097474   -0.185569
     21          1           0       -0.394390    1.754967   -0.833019
     22          1           0       -2.576133    2.892619   -1.195199
     23          1           0       -4.714068    1.664784   -0.746045
     24          1           0       -2.485745   -1.813536    0.418915
     25          1           0       -0.340542   -0.597046   -0.026441
     26          7           0       -4.951847   -0.845908    0.118780
     27          8           0       -4.869111   -2.006111    0.515922
     28          8           0       -6.001963   -0.237777   -0.076329
 ---------------------------------------------------------------------

 SCF Done:  E(RHF) =  -868.336143383     A.U. after   16 cycles
 E2 =    -0.2602891713D+01 EUMP2 =    -0.87093903509606D+03

 The electronic state is 1-A.
 Alpha  occ. eigenvalues --  -20.61640 -20.61635 -20.61091 -20.61085 -15.86701
 Alpha  occ. eigenvalues --  -15.86146 -11.32328 -11.31591 -11.28896 -11.28845
 Alpha  occ. eigenvalues --  -11.28646 -11.28172 -11.28158 -11.27952 -11.27940
 Alpha  occ. eigenvalues --  -11.27880 -11.27206 -11.27101  -1.60711  -1.60165
 Alpha  occ. eigenvalues --   -1.40257  -1.39716  -1.20524  -1.19772  -1.09869
 Alpha  occ. eigenvalues --   -1.09145  -1.05964  -1.05180  -0.96651  -0.95967
 Alpha  occ. eigenvalues --   -0.87329  -0.86568  -0.83485  -0.82790  -0.78493
 Alpha  occ. eigenvalues --   -0.77829  -0.72909  -0.72361  -0.72041  -0.71594
 Alpha  occ. eigenvalues --   -0.71491  -0.70857  -0.66160  -0.65970  -0.65410
 Alpha  occ. eigenvalues --   -0.65182  -0.63273  -0.62497  -0.56412  -0.55674
 Alpha  occ. eigenvalues --   -0.54340  -0.54020  -0.53486  -0.53160  -0.49688
 Alpha  occ. eigenvalues --   -0.49653  -0.49127  -0.49113  -0.45605  -0.45104
 Alpha  occ. eigenvalues --   -0.38610  -0.37829  -0.37421  -0.36739
 Alpha virt. eigenvalues --    0.03952   0.04706   0.09771   0.11072   0.15261
 Alpha virt. eigenvalues --    0.16205   0.20000   0.21535   0.25628   0.26876
 Alpha virt. eigenvalues --    0.27685   0.28168   0.29979   0.31087   0.31630

 Mulliken charges:
               1
     1  C   -0.179453
     2  C   -0.224465
     3  C   -0.178525
     4  C    0.160934
     5  C   -0.170281
     6  C   -0.219883
     7  H    0.229678
     8  H    0.231827
     9  H    0.278038
    10  H    0.279492
    11  H    0.227199
    12  N    0.487914
    13  O   -0.456783
    14  O   -0.457708
    15  C   -0.177946
    16  C   -0.219099
    17  C   -0.170568
    18  C    0.159041
    19  C   -0.172914
    20  C   -0.225669
    21  H    0.227369
    22  H    0.222817
    23  H    0.276536
    24  H    0.276609
    25  H    0.226717
    26  N    0.487997
    27  O   -0.459277
    28  O   -0.459599
 Sum of Mulliken charges =  -0.00000

 Dipole moment (field-independent basis, Debye):
    X=              1.8034    Y=              6.4272    Z=              0.9713  Tot=              6.7457
 Quadrupole moment (field-independent basis, Debye-Ang):
   XX=           -155.3831   YY=           -101.6939   ZZ=           -103.9775
   XY=              4.6122   XZ=              8.6599   YZ=             -3.1985

 Normal termination of Gaussian 16 at Fri May  7 03:34:40 2021.
