 Gaussian 16, Revision A.03,
 Gaussian 16:  EM64L-G16RevA.03 25-Dec-2016

 -------------
 #p 6-31g* mp2
 -------------

 ------------------------------------------------------
 Input file generated by CHIRIPA (05-May-2021 14:57:23)
 ------------------------------------------------------
 Symbolic Z-matrix:
 Charge =  0 Multiplicity = 1

                         Standard orientation:
 ---------------------------------------------------------------------
 Center     Atomic      Atomic             Coordinates (Angstroms)
 Number     Number       Type             X           Y           Z
 ---------------------------------------------------------------------
      1          6           0       -4.549996    2.361642    0.793300
      2          6           0       -5.510998    1.437353    0.370585
      3          6           0       -5.127513    0.172317   -0.084576
      4          6           0       -3.768255   -0.136455   -0.103741
      5          6           0       -2.787013    0.762743    0.310863
      6          6           0       -3.193462    2.021985    0.762144
      7          1           0       -4.856816    3.342102    1.145373
      8          1           0       -6.565213    1.698394    0.393683
      9          1           0       -5.850512   -0.562378   -0.417612
     10          1           0       -1.743633    0.473643    0.276265
     11          1           0       -2.444937    2.737794    1.089824
     12          7           0       -3.350121   -1.472625   -0.583546
     13          8           0       -2.146270   -1.720270   -0.590660
     14          8           0       -4.234157   -2.246970   -0.943418
     15          6           0        2.430068   -2.001020    0.867347
     16          6           0        3.669968   -1.731147    1.455852
     17          6           0        4.458039   -0.671419    0.997083
     18          6           0        3.973202    0.101591   -0.056804
     19          6           0        2.742173   -0.142128   -0.663812
     20          6           0        1.970938   -1.207049   -0.188746
     21          1           0        1.824415   -2.826259    1.230060
     22          1           0        4.029068   -2.346086    2.276183
     23          1           0        5.421733   -0.440291    1.434450
     24          1           0        2.410901    0.488457   -1.479924
     25          1           0        1.008415   -1.414309   -0.647698
     26          7           0        4.798586    1.226226   -0.551109
     27          8           0        4.348904    1.892405   -1.480964
     28          8           0        5.879575    1.420242    0.000668
 ---------------------------------------------------------------------

 SCF Done:  E(RHF) =  -868.339998100     A.U. after   16 cycles
 E2 =    -0.2598409920D+01 EUMP2 =    -0.87093840802029D+03

 The electronic state is 1-A.
 Alpha  occ. eigenvalues --  -20.61623 -20.61559 -20.60566 -20.60561 -15.86640
 Alpha  occ. eigenvalues --  -15.85612 -11.31758 -11.30856 -11.28319 -11.28275
 Alpha  occ. eigenvalues --  -11.27967 -11.27416 -11.27364 -11.27244 -11.27234
 Alpha  occ. eigenvalues --  -11.27021 -11.26395 -11.26201  -1.60653  -1.59645
 Alpha  occ. eigenvalues --   -1.40220  -1.39202  -1.19901  -1.18993  -1.09335
 Alpha  occ. eigenvalues --   -1.08391  -1.05268  -1.04365  -0.96215  -0.95257
 Alpha  occ. eigenvalues --   -0.86677  -0.85747  -0.83063  -0.82087  -0.78143
 Alpha  occ. eigenvalues --   -0.77164  -0.72875  -0.71959  -0.71831  -0.71005
 Alpha  occ. eigenvalues --   -0.70969  -0.70063  -0.65560  -0.65262  -0.64625
 Alpha  occ. eigenvalues --   -0.64302  -0.62624  -0.61691  -0.55764  -0.54811
 Alpha  occ. eigenvalues --   -0.53608  -0.53355  -0.52722  -0.52408  -0.49631
 Alpha  occ. eigenvalues --   -0.49578  -0.48597  -0.48573  -0.45678  -0.44635
 Alpha  occ. eigenvalues --   -0.37858  -0.36951  -0.36860  -0.35987
 Alpha virt. eigenvalues --    0.04384   0.05336   0.10797   0.11652   0.15935
 Alpha virt. eigenvalues --    0.16851   0.20641   0.21999   0.26158   0.27223
 Alpha virt. eigenvalues --    0.28595   0.28816   0.30342   0.31286   0.32413

 Mulliken charges:
               1
     1  C   -0.169958
     2  C   -0.218342
     3  C   -0.170622
     4  C    0.158336
     5  C   -0.170780
     6  C   -0.218373
     7  H    0.228275
     8  H    0.225458
     9  H    0.276439
    10  H    0.271284
    11  H    0.226775
    12  N    0.493270
    13  O   -0.474994
    14  O   -0.455578
    15  C   -0.172669
    16  C   -0.218983
    17  C   -0.172536
    18  C    0.158314
    19  C   -0.175263
    20  C   -0.230630
    21  H    0.230760
    22  H    0.222239
    23  H    0.273860
    24  H    0.273625
    25  H    0.245879
    26  N    0.488025
    27  O   -0.462217
    28  O   -0.461594
 Sum of Mulliken charges =  -0.00000

 Dipole moment (field-independent basis, Debye):
    X=             -4.7733    Y=              0.7253    Z=              3.4585  Tot=              5.9390
 Quadrupole moment (field-independent basis, Debye-Ang):
   XX=           -109.8877   YY=           -107.2343   ZZ=           -104.2319
   XY=            -33.9297   XZ=              4.4054   YZ=             -0.7829

 Normal termination of Gaussian 16 at Wed May  5 22:40:29 2021.
