 Gaussian 16, Revision A.03,
 Gaussian 16:  EM64L-G16RevA.03 25-Dec-2016

 -------------
 #p 6-31g* mp2
 -------------

 ------------------------------------------------------
 Input file generated by CHIRIPA (05-May-2021 14:57:25)
 ------------------------------------------------------
 Symbolic Z-matrix:
 Charge =  0 Multiplicity = 1

                         Standard orientation:
 ---------------------------------------------------------------------
 Center     Atomic      Atomic             Coordinates (Angstroms)
 Number     Number       Type             X           Y           Z
 ---------------------------------------------------------------------
      1          6           0        4.666832    2.288863    0.303208
      2          6           0        5.200432    1.165651    0.943667
      3          6           0        4.611048   -0.091553    0.780536
      4          6           0        3.483955   -0.189735   -0.033904
      5          6           0        2.928849    0.910625   -0.685331
      6          6           0        3.534739    2.157995   -0.507817
      7          1           0        5.131091    3.261670    0.435519
      8          1           0        6.079553    1.264306    1.574111
      9          1           0        5.003437   -0.977628    1.264602
     10          1           0        2.051681    0.780895   -1.307556
     11          1           0        3.118168    3.028565   -1.006437
     12          7           0        2.851263   -1.515476   -0.214217
     13          8           0        1.858983   -1.575476   -0.937001
     14          8           0        3.359619   -2.469488    0.370652
     15          6           0       -2.339109   -2.209504   -0.219403
     16          6           0       -3.379391   -2.090577    0.708063
     17          6           0       -4.078384   -0.887079    0.840525
     18          6           0       -3.708991    0.182062    0.025802
     19          6           0       -2.677182    0.094748   -0.907492
     20          6           0       -1.991937   -1.118384   -1.022803
     21          1           0       -1.801454   -3.148152   -0.315641
     22          1           0       -3.651183   -2.936294    1.333314
     23          1           0       -4.887839   -0.767504    1.550387
     24          1           0       -2.429147    0.955309   -1.516861
     25          1           0       -1.184470   -1.207861   -1.743940
     26          7           0       -4.441706    1.461252    0.156956
     27          8           0       -4.096936    2.388385   -0.572562
     28          8           0       -5.346905    1.512528    0.986789
 ---------------------------------------------------------------------

 SCF Done:  E(RHF) =  -868.340016959     A.U. after   16 cycles
 E2 =    -0.2598389774D+01 EUMP2 =    -0.87093840673343D+03

 The electronic state is 1-A.
 Alpha  occ. eigenvalues --  -20.61571 -20.61527 -20.60392 -20.60382 -15.86592
 Alpha  occ. eigenvalues --  -15.85434 -11.31696 -11.30593 -11.28255 -11.28218
 Alpha  occ. eigenvalues --  -11.27906 -11.27180 -11.27171 -11.27136 -11.27110
 Alpha  occ. eigenvalues --  -11.26681 -11.26085 -11.25929  -1.60613  -1.59469
 Alpha  occ. eigenvalues --   -1.40179  -1.39029  -1.19839  -1.18715  -1.09277
 Alpha  occ. eigenvalues --   -1.08116  -1.05205  -1.04085  -0.96161  -0.95001
 Alpha  occ. eigenvalues --   -0.86614  -0.85465  -0.83009  -0.81847  -0.78089
 Alpha  occ. eigenvalues --   -0.76946  -0.72837  -0.71913  -0.71656  -0.70945
 Alpha  occ. eigenvalues --   -0.70791  -0.69763  -0.65499  -0.65202  -0.64347
 Alpha  occ. eigenvalues --   -0.64032  -0.62563  -0.61434  -0.55705  -0.54493
 Alpha  occ. eigenvalues --   -0.53542  -0.53294  -0.52427  -0.52143  -0.49594
 Alpha  occ. eigenvalues --   -0.49545  -0.48426  -0.48388  -0.45637  -0.44483
 Alpha  occ. eigenvalues --   -0.37793  -0.36794  -0.36632  -0.35695
 Alpha virt. eigenvalues --    0.04435   0.05569   0.10865   0.11972   0.15990
 Alpha virt. eigenvalues --    0.17144   0.20850   0.22229   0.26577   0.27337
 Alpha virt. eigenvalues --    0.28615   0.29108   0.30572   0.31506   0.32634

 Mulliken charges:
               1
     1  C   -0.169804
     2  C   -0.218329
     3  C   -0.170614
     4  C    0.158474
     5  C   -0.169025
     6  C   -0.217948
     7  H    0.228202
     8  H    0.225232
     9  H    0.276001
    10  H    0.270877
    11  H    0.226340
    12  N    0.491829
    13  O   -0.472480
    14  O   -0.457723
    15  C   -0.170485
    16  C   -0.219350
    17  C   -0.172781
    18  C    0.158066
    19  C   -0.175364
    20  C   -0.218221
    21  H    0.233740
    22  H    0.222092
    23  H    0.272949
    24  H    0.269632
    25  H    0.236643
    26  N    0.488246
    27  O   -0.464214
    28  O   -0.461982
 Sum of Mulliken charges =  -0.00000

 Dipole moment (field-independent basis, Debye):
    X=              5.2185    Y=              0.0644    Z=              0.1935  Tot=              5.2225
 Quadrupole moment (field-independent basis, Debye-Ang):
   XX=           -105.5482   YY=           -107.1833   ZZ=           -101.5429
   XY=             33.8082   XZ=              4.3173   YZ=             -3.4761

 Normal termination of Gaussian 16 at Thu May  6 03:29:28 2021.
