 Gaussian 16, Revision A.03,
 Gaussian 16:  EM64L-G16RevA.03 25-Dec-2016

 -------------
 #p 6-31g* mp2
 -------------

 ------------------------------------------------------
 Input file generated by CHIRIPA (05-May-2021 14:53:14)
 ------------------------------------------------------
 Symbolic Z-matrix:
 Charge =  0 Multiplicity = 1

                         Standard orientation:
 ---------------------------------------------------------------------
 Center     Atomic      Atomic             Coordinates (Angstroms)
 Number     Number       Type             X           Y           Z
 ---------------------------------------------------------------------
      1          6           0       -4.529575   -0.625266   -0.020454
      2          6           0       -5.975401   -1.012721    0.291719
      3          6           0       -6.166088   -2.523554    0.428888
      4          1           0       -4.215965   -1.121662   -0.948993
      5          1           0       -3.874937   -1.007686    0.774907
      6          1           0       -6.627284   -0.628491   -0.503286
      7          1           0       -6.285668   -0.515193    1.219521
      8          1           0       -5.539603   -2.919320    1.234795
      9          1           0       -5.883159   -3.033262   -0.497800
     10          1           0       -7.206865   -2.778226    0.652012
     11          6           0       -4.323019    0.881864   -0.160526
     12          6           0       -2.877193    1.269318   -0.472699
     13          6           0       -2.686506    2.780152   -0.609868
     14          1           0       -4.977657    1.264283   -0.955887
     15          1           0       -4.636629    1.378260    0.768013
     16          1           0       -2.566925    0.771791   -1.400501
     17          1           0       -2.225310    0.885088    0.322306
     18          1           0       -2.969435    3.289859    0.316820
     19          1           0       -3.312991    3.175918   -1.415776
     20          1           0       -1.645728    3.034823   -0.832992
     21          6           0        1.136453    0.819957    0.430397
     22          6           0        2.119005    0.996564    1.410153
     23          6           0        3.408719    0.490980    1.221545
     24          6           0        3.682487   -0.189194    0.035921
     25          6           0        2.725105   -0.381387   -0.958952
     26          6           0        1.442100    0.132757   -0.748949
     27          1           0        0.137178    1.216031    0.585223
     28          1           0        1.884481    1.529837    2.327029
     29          1           0        4.188402    0.613379    1.963522
     30          1           0        2.988863   -0.917365   -1.862598
     31          1           0        0.681030   -0.005901   -1.511571
     32          7           0        5.044299   -0.728964   -0.175075
     33          8           0        5.260184   -1.324495   -1.228343
     34          8           0        5.870014   -0.546283    0.716809
 ---------------------------------------------------------------------

 SCF Done:  E(RHF) =  -669.535558495     A.U. after   15 cycles
 E2 =    -0.2091304136D+01 EUMP2 =    -0.67162686263114D+03

 The electronic state is 1-A.
 Alpha  occ. eigenvalues --  -20.60717 -20.60712 -15.85771 -11.31125 -11.27694
 Alpha  occ. eigenvalues --  -11.27689 -11.27383 -11.26700 -11.26685 -11.22922
 Alpha  occ. eigenvalues --  -11.22346 -11.22254 -11.22233 -11.22151 -11.21583
 Alpha  occ. eigenvalues --   -1.59794  -1.39347  -1.19293  -1.09350  -1.08685
 Alpha  occ. eigenvalues --   -1.04696  -1.04447  -0.96859  -0.95524  -0.87871
 Alpha  occ. eigenvalues --   -0.86090  -0.82363  -0.80555  -0.79122  -0.77410
 Alpha  occ. eigenvalues --   -0.71988  -0.71117  -0.70417  -0.65977  -0.64942
 Alpha  occ. eigenvalues --   -0.64701  -0.62046  -0.61844  -0.60281  -0.58486
 Alpha  occ. eigenvalues --   -0.56137  -0.55147  -0.53567  -0.53278  -0.53020
 Alpha  occ. eigenvalues --   -0.52785  -0.50791  -0.48843  -0.48748  -0.48744
 Alpha  occ. eigenvalues --   -0.47580  -0.46658  -0.46553  -0.44756  -0.44680
 Alpha  occ. eigenvalues --   -0.37264  -0.36304
 Alpha virt. eigenvalues --    0.05112   0.11346   0.16571   0.19283   0.22414
 Alpha virt. eigenvalues --    0.23833   0.25103   0.25853   0.26755   0.27478
 Alpha virt. eigenvalues --    0.29259   0.29756   0.30794   0.31067   0.31619

 Mulliken charges:
               1
     1  C   -0.299228
     2  C   -0.300382
     3  C   -0.476245
     4  H    0.150118
     5  H    0.149661
     6  H    0.153275
     7  H    0.152902
     8  H    0.155924
     9  H    0.156006
    10  H    0.162348
    11  C   -0.297641
    12  C   -0.306058
    13  C   -0.478994
    14  H    0.153223
    15  H    0.151937
    16  H    0.151646
    17  H    0.144843
    18  H    0.158179
    19  H    0.161860
    20  H    0.157635
    21  C   -0.178113
    22  C   -0.219951
    23  C   -0.170746
    24  C    0.158316
    25  C   -0.170973
    26  C   -0.221768
    27  H    0.237178
    28  H    0.223440
    29  H    0.275259
    30  H    0.275339
    31  H    0.224222
    32  N    0.488035
    33  O   -0.460626
    34  O   -0.460622
 Sum of Mulliken charges =  -0.00000

 Dipole moment (field-independent basis, Debye):
    X=             -5.0852    Y=              1.9126    Z=              0.7234  Tot=              5.4809
 Quadrupole moment (field-independent basis, Debye-Ang):
   XX=           -129.3507   YY=            -96.4844   ZZ=            -89.8538
   XY=              8.1334   XZ=              4.3404   YZ=              1.9464

 Normal termination of Gaussian 16 at Thu May  6 17:06:08 2021.
