 Gaussian 16, Revision A.03,
 Gaussian 16:  EM64L-G16RevA.03 25-Dec-2016

 -------------
 #p 6-31g* mp2
 -------------

 ------------------------------------------------------
 Input file generated by CHIRIPA (05-May-2021 14:55:20)
 ------------------------------------------------------
 Symbolic Z-matrix:
 Charge =  0 Multiplicity = 1

                         Standard orientation:
 ---------------------------------------------------------------------
 Center     Atomic      Atomic             Coordinates (Angstroms)
 Number     Number       Type             X           Y           Z
 ---------------------------------------------------------------------
      1          6           0        5.075155    1.217110    0.172333
      2          6           0        4.943878   -0.048569    0.753146
      3          6           0        3.754943   -0.771669    0.618573
      4          6           0        2.712803   -0.196279   -0.106796
      5          6           0        2.812993    1.062564   -0.697191
      6          6           0        4.011170    1.767667   -0.549708
      7          1           0        6.002338    1.771841    0.281887
      8          1           0        5.768524   -0.478623    1.314446
      9          1           0        3.626307   -1.753443    1.057880
     10          1           0        1.973466    1.465089   -1.250893
     11          1           0        4.110292    2.750408   -1.001858
     12          7           0        1.449240   -0.952266   -0.256096
     13          8           0        0.545870   -0.423249   -0.900068
     14          8           0        1.386154   -2.059511    0.273683
     15          6           0       -3.931998   -0.597967   -0.160219
     16          6           0       -2.988679   -1.710256    0.299072
     17          6           0       -3.387985   -3.084179   -0.240082
     18          1           0       -4.954714   -0.836868    0.162148
     19          1           0       -3.948705   -0.571169   -1.258581
     20          1           0       -2.972693   -1.734040    1.396247
     21          1           0       -1.968058   -1.468585   -0.024261
     22          1           0       -3.385633   -3.083954   -1.334886
     23          1           0       -4.395976   -3.350918    0.093693
     24          1           0       -2.700241   -3.864483    0.100496
     25          6           0       -3.545900    0.781476    0.370625
     26          6           0       -4.489219    1.893765   -0.088666
     27          6           0       -4.089913    3.267688    0.450487
     28          1           0       -3.529194    0.754679    1.468986
     29          1           0       -2.523183    1.020378    0.048258
     30          1           0       -5.509839    1.652094    0.234667
     31          1           0       -4.505205    1.917550   -1.185842
     32          1           0       -3.081923    3.534428    0.116713
     33          1           0       -4.092265    3.267463    1.545292
     34          1           0       -4.777657    4.047992    0.109910
 ---------------------------------------------------------------------

 SCF Done:  E(RHF) =  -669.536988598     A.U. after   15 cycles
 E2 =    -0.2091555498D+01 EUMP2 =    -0.67162854409568D+03

 The electronic state is 1-A.
 Alpha  occ. eigenvalues --  -20.61133 -20.61120 -15.86123 -11.31391 -11.27943
 Alpha  occ. eigenvalues --  -11.27937 -11.27668 -11.26934 -11.26924 -11.20775
 Alpha  occ. eigenvalues --  -11.20473 -11.20240 -11.20048 -11.19758 -11.19574
 Alpha  occ. eigenvalues --   -1.60160  -1.39719  -1.19548  -1.08964  -1.07207
 Alpha  occ. eigenvalues --   -1.04935  -1.02317  -0.95814  -0.94829  -0.86338
 Alpha  occ. eigenvalues --   -0.85859  -0.82652  -0.78423  -0.77713  -0.76941
 Alpha  occ. eigenvalues --   -0.72335  -0.71460  -0.70657  -0.65204  -0.64938
 Alpha  occ. eigenvalues --   -0.63833  -0.62282  -0.59711  -0.58239  -0.56401
 Alpha  occ. eigenvalues --   -0.55441  -0.54135  -0.53269  -0.53025  -0.51553
 Alpha  occ. eigenvalues --   -0.51254  -0.49208  -0.49095  -0.48765  -0.46721
 Alpha  occ. eigenvalues --   -0.45427  -0.45182  -0.44517  -0.44215  -0.42570
 Alpha  occ. eigenvalues --   -0.37522  -0.36532
 Alpha virt. eigenvalues --    0.04796   0.11125   0.16299   0.21256   0.24008
 Alpha virt. eigenvalues --    0.25518   0.27186   0.27759   0.28150   0.28815
 Alpha virt. eigenvalues --    0.29124   0.30867   0.32379   0.32505   0.32860

 Mulliken charges:
               1
     1  C   -0.170339
     2  C   -0.218602
     3  C   -0.170572
     4  C    0.158647
     5  C   -0.170504
     6  C   -0.218536
     7  H    0.226385
     8  H    0.224187
     9  H    0.276111
    10  H    0.275679
    11  H    0.224201
    12  N    0.489097
    13  O   -0.460260
    14  O   -0.457686
    15  C   -0.295903
    16  C   -0.313002
    17  C   -0.474186
    18  H    0.142957
    19  H    0.148051
    20  H    0.144077
    21  H    0.184877
    22  H    0.152936
    23  H    0.146800
    24  H    0.162012
    25  C   -0.300229
    26  C   -0.298582
    27  C   -0.474540
    28  H    0.145397
    29  H    0.157953
    30  H    0.149595
    31  H    0.150770
    32  H    0.152719
    33  H    0.153496
    34  H    0.156995
 Sum of Mulliken charges =  -0.00000

 Dipole moment (field-independent basis, Debye):
    X=              4.9486    Y=              2.6171    Z=              0.4675  Tot=              5.6176
 Quadrupole moment (field-independent basis, Debye-Ang):
   XX=            -71.5506   YY=            -94.9629   ZZ=            -93.6149
   XY=              4.7384   XZ=              1.9415   YZ=             -3.2591

 Normal termination of Gaussian 16 at Thu May  6 09:15:51 2021.
