 Gaussian 16, Revision A.03,
 Gaussian 16:  EM64L-G16RevA.03 25-Dec-2016

 -------------
 #p 6-31g* mp2
 -------------

 ------------------------------------------------------
 Input file generated by CHIRIPA (05-May-2021 14:57:22)
 ------------------------------------------------------
 Symbolic Z-matrix:
 Charge =  0 Multiplicity = 1

                         Standard orientation:
 ---------------------------------------------------------------------
 Center     Atomic      Atomic             Coordinates (Angstroms)
 Number     Number       Type             X           Y           Z
 ---------------------------------------------------------------------
      1          6           0        4.854742    1.187849   -0.898665
      2          6           0        4.024901    1.850547    0.011674
      3          6           0        3.025244    1.154656    0.697946
      4          6           0        2.882655   -0.209426    0.448474
      5          6           0        3.693681   -0.897848   -0.452415
      6          6           0        4.686780   -0.181819   -1.127400
      7          1           0        5.628752    1.736256   -1.427394
      8          1           0        4.153053    2.914198    0.191309
      9          1           0        2.368898    1.642848    1.408085
     10          1           0        3.541806   -1.958685   -0.610456
     11          1           0        5.329787   -0.699083   -1.833817
     12          7           0        1.827834   -0.956795    1.169026
     13          8           0        1.722583   -2.158100    0.931487
     14          8           0        1.126291   -0.327125    1.957689
     15          6           0       -5.426331    0.652285    0.325595
     16          6           0       -5.108969   -0.639920   -0.105691
     17          6           0       -3.799252   -0.964800   -0.471263
     18          6           0       -2.827396    0.031529   -0.393073
     19          6           0       -3.112271    1.328028    0.032635
     20          6           0       -4.428728    1.630410    0.393262
     21          1           0       -6.446370    0.895921    0.607659
     22          1           0       -5.881679   -1.401561   -0.159239
     23          1           0       -3.525924   -1.957202   -0.808675
     24          1           0       -2.320476    2.066026    0.075515
     25          1           0       -4.672300    2.634791    0.727836
     26          7           0       -1.437289   -0.300497   -0.777469
     27          8           0       -0.599250    0.595204   -0.699719
     28          8           0       -1.212085   -1.450156   -1.149232
 ---------------------------------------------------------------------

 SCF Done:  E(RHF) =  -868.338543606     A.U. after   16 cycles
 E2 =    -0.2600893018D+01 EUMP2 =    -0.87093943662427D+03

 The electronic state is 1-A.
 Alpha  occ. eigenvalues --  -20.60230 -20.60192 -20.59422 -20.59355 -15.85242
 Alpha  occ. eigenvalues --  -15.84443 -11.30629 -11.29880 -11.27227 -11.27197
 Alpha  occ. eigenvalues --  -11.26996 -11.26506 -11.26489 -11.26345 -11.26266
 Alpha  occ. eigenvalues --  -11.26244 -11.25603 -11.25587  -1.59261  -1.58429
 Alpha  occ. eigenvalues --   -1.38817  -1.37993  -1.18811  -1.18081  -1.08209
 Alpha  occ. eigenvalues --   -1.07476  -1.04231  -1.03539  -0.95044  -0.94307
 Alpha  occ. eigenvalues --   -0.85629  -0.84936  -0.81888  -0.81168  -0.76920
 Alpha  occ. eigenvalues --   -0.76173  -0.71512  -0.70749  -0.70654  -0.69947
 Alpha  occ. eigenvalues --   -0.69505  -0.69266  -0.64480  -0.64254  -0.63777
 Alpha  occ. eigenvalues --   -0.63596  -0.61586  -0.60908  -0.54757  -0.54097
 Alpha  occ. eigenvalues --   -0.52542  -0.52340  -0.51817  -0.51674  -0.48279
 Alpha  occ. eigenvalues --   -0.48225  -0.47466  -0.47435  -0.44438  -0.43150
 Alpha  occ. eigenvalues --   -0.36792  -0.36057  -0.35829  -0.35131
 Alpha virt. eigenvalues --    0.05646   0.06442   0.11828   0.12524   0.17112
 Alpha virt. eigenvalues --    0.17873   0.21882   0.22453   0.27777   0.28321
 Alpha virt. eigenvalues --    0.28782   0.29381   0.31392   0.31950   0.33019

 Mulliken charges:
               1
     1  C   -0.171511
     2  C   -0.219416
     3  C   -0.163678
     4  C    0.170444
     5  C   -0.168179
     6  C   -0.219102
     7  H    0.220390
     8  H    0.217701
     9  H    0.271773
    10  H    0.274660
    11  H    0.219075
    12  N    0.493892
    13  O   -0.458715
    14  O   -0.468399
    15  C   -0.170901
    16  C   -0.218687
    17  C   -0.169380
    18  C    0.162548
    19  C   -0.168139
    20  C   -0.218667
    21  H    0.223682
    22  H    0.222157
    23  H    0.276474
    24  H    0.273300
    25  H    0.221067
    26  N    0.491864
    27  O   -0.469022
    28  O   -0.455227
 Sum of Mulliken charges =  -0.00000

 Dipole moment (field-independent basis, Debye):
    X=             -1.3840    Y=              3.5971    Z=             -1.2077  Tot=              4.0390
 Quadrupole moment (field-independent basis, Debye-Ang):
   XX=            -57.8664   YY=            -98.3379   ZZ=           -108.6981
   XY=              3.4791   XZ=             -8.2282   YZ=              4.8553

 Normal termination of Gaussian 16 at Thu May  6 01:46:16 2021.
