 Gaussian 16, Revision A.03,
 Gaussian 16:  EM64L-G16RevA.03 25-Dec-2016

 -------------
 #p 6-31g* mp2
 -------------

 ------------------------------------------------------
 Input file generated by CHIRIPA (05-May-2021 14:53:18)
 ------------------------------------------------------
 Symbolic Z-matrix:
 Charge =  0 Multiplicity = 1

                         Standard orientation:
 ---------------------------------------------------------------------
 Center     Atomic      Atomic             Coordinates (Angstroms)
 Number     Number       Type             X           Y           Z
 ---------------------------------------------------------------------
      1          6           0        2.699624    1.483909   -0.407211
      2          6           0        1.507065    2.173802    0.255990
      3          6           0        1.296678    3.602697   -0.245796
      4          1           0        3.606537    2.075978   -0.223071
      5          1           0        2.549180    1.472878   -1.495623
      6          1           0        1.659061    2.182297    1.342931
      7          1           0        0.602918    1.579920    0.070412
      8          1           0        1.119758    3.609464   -1.326192
      9          1           0        2.181901    4.215263   -0.046443
     10          1           0        0.439096    4.077102    0.241393
     11          6           0        2.922812    0.054733    0.084084
     12          6           0        4.115371   -0.635160   -0.579117
     13          6           0        4.325759   -2.064056   -0.077330
     14          1           0        3.073256    0.065764    1.172496
     15          1           0        2.015899   -0.537337   -0.100056
     16          1           0        5.019518   -0.041279   -0.393539
     17          1           0        3.963375   -0.643656   -1.666058
     18          1           0        3.440535   -2.676622   -0.276684
     19          1           0        4.502678   -2.070823    1.003065
     20          1           0        5.183340   -2.538460   -0.564520
     21          6           0       -0.203432   -2.068728    0.616540
     22          6           0       -1.097117   -2.418743   -0.400976
     23          6           0       -2.204692   -1.613018   -0.681389
     24          6           0       -2.388924   -0.459140    0.078819
     25          6           0       -1.516347   -0.083589    1.099045
     26          6           0       -0.415525   -0.904321    1.361989
     27          1           0        0.654336   -2.700463    0.827586
     28          1           0       -0.934907   -3.322459   -0.981519
     29          1           0       -2.912280   -1.860320   -1.463424
     30          1           0       -1.704439    0.823371    1.660706
     31          1           0        0.276874   -0.630014    2.152800
     32          7           0       -3.557889    0.401788   -0.208794
     33          8           0       -3.697914    1.413213    0.475347
     34          8           0       -4.311966    0.048858   -1.112922
 ---------------------------------------------------------------------

 SCF Done:  E(RHF) =  -669.533159827     A.U. after   15 cycles
 E2 =    -0.2095659491D+01 EUMP2 =    -0.67162881931804D+03

 The electronic state is 1-A.
 Alpha  occ. eigenvalues --  -20.60821 -20.60816 -15.85875 -11.31268 -11.27815
 Alpha  occ. eigenvalues --  -11.27778 -11.27518 -11.26852 -11.26780 -11.22231
 Alpha  occ. eigenvalues --  -11.21941 -11.21919 -11.21875 -11.21769 -11.21192
 Alpha  occ. eigenvalues --   -1.59897  -1.39449  -1.19445  -1.08987  -1.08788
 Alpha  occ. eigenvalues --   -1.04843  -1.04019  -0.96479  -0.95660  -0.87493
 Alpha  occ. eigenvalues --   -0.86232  -0.82490  -0.80108  -0.78819  -0.77502
 Alpha  occ. eigenvalues --   -0.72091  -0.71222  -0.70535  -0.65588  -0.65082
 Alpha  occ. eigenvalues --   -0.64822  -0.62173  -0.61424  -0.59863  -0.58095
 Alpha  occ. eigenvalues --   -0.55789  -0.55321  -0.53403  -0.53049  -0.52916
 Alpha  occ. eigenvalues --   -0.52886  -0.50433  -0.48852  -0.48846  -0.48441
 Alpha  occ. eigenvalues --   -0.47165  -0.46293  -0.46177  -0.44846  -0.44252
 Alpha  occ. eigenvalues --   -0.37318  -0.36294
 Alpha virt. eigenvalues --    0.04937   0.11116   0.16285   0.20095   0.22890
 Alpha virt. eigenvalues --    0.23148   0.24959   0.26301   0.27381   0.28122
 Alpha virt. eigenvalues --    0.29014   0.30778   0.31312   0.31480   0.32310

 Mulliken charges:
               1
     1  C   -0.296152
     2  C   -0.308384
     3  C   -0.475787
     4  H    0.150242
     5  H    0.151756
     6  H    0.144127
     7  H    0.160786
     8  H    0.157601
     9  H    0.154639
    10  H    0.164008
    11  C   -0.308698
    12  C   -0.298845
    13  C   -0.476504
    14  H    0.141799
    15  H    0.158296
    16  H    0.154453
    17  H    0.154197
    18  H    0.146566
    19  H    0.154372
    20  H    0.164447
    21  C   -0.176200
    22  C   -0.219450
    23  C   -0.171541
    24  C    0.159086
    25  C   -0.174291
    26  C   -0.212383
    27  H    0.230071
    28  H    0.223857
    29  H    0.275793
    30  H    0.276800
    31  H    0.227535
    32  N    0.488188
    33  O   -0.460202
    34  O   -0.460184
 Sum of Mulliken charges =  -0.00000

 Dipole moment (field-independent basis, Debye):
    X=              4.0655    Y=             -2.9956    Z=              0.9517  Tot=              5.1388
 Quadrupole moment (field-independent basis, Debye-Ang):
   XX=           -114.5488   YY=            -91.3595   ZZ=            -91.8268
   XY=              6.8865   XZ=             -0.8254   YZ=              2.3316

 Normal termination of Gaussian 16 at Thu May  6 17:21:15 2021.
