 Gaussian 16, Revision A.03,
 Gaussian 16:  EM64L-G16RevA.03 25-Dec-2016

 -------------
 #p 6-31g* mp2
 -------------

 ------------------------------------------------------
 Input file generated by CHIRIPA (05-May-2021 14:55:21)
 ------------------------------------------------------
 Symbolic Z-matrix:
 Charge =  0 Multiplicity = 1

                         Standard orientation:
 ---------------------------------------------------------------------
 Center     Atomic      Atomic             Coordinates (Angstroms)
 Number     Number       Type             X           Y           Z
 ---------------------------------------------------------------------
      1          6           0       -5.070549    0.582169    0.142622
      2          6           0       -4.091734    1.216058   -0.629794
      3          6           0       -2.823448    0.646287   -0.775941
      4          6           0       -2.567061   -0.563671   -0.132857
      5          6           0       -3.521251   -1.219551    0.643437
      6          6           0       -4.782691   -0.631473    0.775656
      7          1           0       -6.053125    1.031891    0.250743
      8          1           0       -4.312476    2.158660   -1.122562
      9          1           0       -2.047129    1.115563   -1.367994
     10          1           0       -3.271565   -2.158427    1.122590
     11          1           0       -5.540906   -1.126009    1.376146
     12          7           0       -1.228007   -1.176552   -0.280204
     13          8           0       -1.027154   -2.243166    0.296537
     14          8           0       -0.404665   -0.578710   -0.969646
     15          6           0        4.105853    0.145236    0.446727
     16          6           0        4.762411   -0.796684   -0.563078
     17          6           0        5.835640   -1.684446    0.067678
     18          1           0        4.879223    0.774259    0.908433
     19          1           0        3.661572   -0.449225    1.257051
     20          1           0        5.204123   -0.200696   -1.371969
     21          1           0        3.987363   -1.423406   -1.022573
     22          1           0        5.405685   -2.303594    0.861653
     23          1           0        6.629358   -1.073936    0.510272
     24          1           0        6.291882   -2.349809   -0.671914
     25          6           0        3.030795    1.039176   -0.168781
     26          6           0        2.374237    1.981095    0.841024
     27          6           0        1.301008    2.868858    0.210268
     28          1           0        3.475077    1.633636   -0.979106
     29          1           0        2.257425    0.410152   -0.630488
     30          1           0        3.149285    2.607817    1.300519
     31          1           0        1.932526    1.385107    1.649915
     32          1           0        0.507291    2.258347   -0.232327
     33          1           0        1.730963    3.488005   -0.583708
     34          1           0        0.844767    3.534220    0.949860
 ---------------------------------------------------------------------

 SCF Done:  E(RHF) =  -669.536690455     A.U. after   15 cycles
 E2 =    -0.2091887960D+01 EUMP2 =    -0.67162857841475D+03

 The electronic state is 1-A.
 Alpha  occ. eigenvalues --  -20.61103 -20.61096 -15.86110 -11.31358 -11.27912
 Alpha  occ. eigenvalues --  -11.27907 -11.27637 -11.26906 -11.26893 -11.20679
 Alpha  occ. eigenvalues --  -11.20526 -11.20363 -11.20264 -11.20180 -11.20008
 Alpha  occ. eigenvalues --   -1.60147  -1.39707  -1.19519  -1.08938  -1.07322
 Alpha  occ. eigenvalues --   -1.04904  -1.02570  -0.95792  -0.95025  -0.86310
 Alpha  occ. eigenvalues --   -0.86056  -0.82631  -0.78637  -0.77696  -0.77107
 Alpha  occ. eigenvalues --   -0.72341  -0.71451  -0.70629  -0.65180  -0.64908
 Alpha  occ. eigenvalues --   -0.63922  -0.62255  -0.59961  -0.58402  -0.56642
 Alpha  occ. eigenvalues --   -0.55413  -0.54309  -0.53237  -0.52995  -0.51788
 Alpha  occ. eigenvalues --   -0.51473  -0.49228  -0.49094  -0.48829  -0.46969
 Alpha  occ. eigenvalues --   -0.45691  -0.45177  -0.44678  -0.44366  -0.42776
 Alpha  occ. eigenvalues --   -0.37493  -0.36498
 Alpha virt. eigenvalues --    0.04784   0.11119   0.16278   0.21039   0.23956
 Alpha virt. eigenvalues --    0.24867   0.26488   0.27514   0.28009   0.28961
 Alpha virt. eigenvalues --    0.29092   0.30494   0.31537   0.32456   0.32764

 Mulliken charges:
               1
     1  C   -0.170298
     2  C   -0.218717
     3  C   -0.171364
     4  C    0.157439
     5  C   -0.170408
     6  C   -0.218592
     7  H    0.226310
     8  H    0.224517
     9  H    0.277826
    10  H    0.275843
    11  H    0.224036
    12  N    0.491132
    13  O   -0.457980
    14  O   -0.463131
    15  C   -0.297022
    16  C   -0.300582
    17  C   -0.475250
    18  H    0.143548
    19  H    0.151052
    20  H    0.148132
    21  H    0.160224
    22  H    0.155658
    23  H    0.151693
    24  H    0.157729
    25  C   -0.311543
    26  C   -0.295834
    27  C   -0.480962
    28  H    0.142525
    29  H    0.180575
    30  H    0.146953
    31  H    0.150983
    32  H    0.160426
    33  H    0.151955
    34  H    0.153127
 Sum of Mulliken charges =  -0.00000

 Dipole moment (field-independent basis, Debye):
    X=             -5.0480    Y=              1.9298    Z=              0.4376  Tot=              5.4220
 Quadrupole moment (field-independent basis, Debye-Ang):
   XX=            -71.7850   YY=            -95.2471   ZZ=            -93.9685
   XY=             -1.0891   XZ=             -2.3282   YZ=             -3.2795

 Normal termination of Gaussian 16 at Thu May  6 10:54:04 2021.
