 Gaussian 16, Revision A.03,
 Gaussian 16:  EM64L-G16RevA.03 25-Dec-2016

 -------------
 #p 6-31g* mp2
 -------------

 ------------------------------------------------------
 Input file generated by CHIRIPA (05-May-2021 14:51:12)
 ------------------------------------------------------
 Symbolic Z-matrix:
 Charge =  0 Multiplicity = 1

                         Standard orientation:
 ---------------------------------------------------------------------
 Center     Atomic      Atomic             Coordinates (Angstroms)
 Number     Number       Type             X           Y           Z
 ---------------------------------------------------------------------
      1          6           0       -3.549501   -0.711945   -0.120536
      2          6           0       -2.439168   -1.345683   -0.959298
      3          6           0       -2.318373   -2.853687   -0.737658
      4          1           0       -3.357941   -0.913602    0.942283
      5          1           0       -4.505134   -1.196893   -0.363402
      6          1           0       -1.486135   -0.858738   -0.715927
      7          1           0       -2.633291   -1.142330   -2.020232
      8          1           0       -3.254500   -3.357671   -0.998940
      9          1           0       -2.100826   -3.072468    0.312775
     10          1           0       -1.518675   -3.286232   -1.346958
     11          6           0       -3.682623    0.795253   -0.331158
     12          6           0       -4.792956    1.428991    0.507604
     13          6           0       -4.913751    2.936996    0.285964
     14          1           0       -2.726990    1.280202   -0.088291
     15          1           0       -3.874183    0.996910   -1.393977
     16          1           0       -4.598833    1.225638    1.568538
     17          1           0       -5.745989    0.942047    0.264233
     18          1           0       -5.131298    3.155777   -0.764469
     19          1           0       -3.977625    3.440980    0.547246
     20          1           0       -5.713450    3.369541    0.895264
     21          6           0        2.939809   -0.157007    0.561714
     22          6           0        2.493856   -1.619424    0.540538
     23          6           0        1.139181   -1.834196    1.216203
     24          1           0        2.988751    0.189736    1.603021
     25          1           0        2.178483    0.458491    0.062775
     26          1           0        3.256452   -2.232161    1.038149
     27          1           0        2.446154   -1.962782   -0.500829
     28          1           0        0.361896   -1.247436    0.716062
     29          1           0        1.176798   -1.518346    2.263783
     30          1           0        0.839679   -2.886554    1.189693
     31          6           0        4.292316    0.073698   -0.110021
     32          6           0        4.738268    1.536115   -0.088844
     33          6           0        6.092943    1.750888   -0.764509
     34          1           0        5.053641   -0.541799    0.388919
     35          1           0        4.243374   -0.273045   -1.151327
     36          1           0        4.785969    1.879474    0.952523
     37          1           0        3.975672    2.148852   -0.586455
     38          1           0        6.055326    1.435038   -1.812090
     39          1           0        6.870227    1.164127   -0.264368
     40          1           0        6.392446    2.803245   -0.738000
 ---------------------------------------------------------------------

 SCF Done:  E(RHF) =  -470.733156114     A.U. after   11 cycles
 E2 =    -0.1582837735D+01 EUMP2 =    -0.47231599384911D+03

 The electronic state is 1-A.
 Alpha  occ. eigenvalues --  -11.21614 -11.21612 -11.21595 -11.21587 -11.21422
 Alpha  occ. eigenvalues --  -11.21397 -11.21362 -11.21336 -11.21078 -11.21067
 Alpha  occ. eigenvalues --  -11.21059 -11.21025  -1.08449  -1.08417  -1.03566
 Alpha  occ. eigenvalues --   -1.03492  -0.96023  -0.95930  -0.87020  -0.86968
 Alpha  occ. eigenvalues --   -0.79622  -0.79568  -0.78268  -0.78227  -0.65155
 Alpha  occ. eigenvalues --   -0.64992  -0.61144  -0.60740  -0.59366  -0.59322
 Alpha  occ. eigenvalues --   -0.57614  -0.57564  -0.55428  -0.55095  -0.52706
 Alpha  occ. eigenvalues --   -0.52626  -0.52429  -0.52377  -0.49958  -0.49884
 Alpha  occ. eigenvalues --   -0.48001  -0.47838  -0.46764  -0.46488  -0.45851
 Alpha  occ. eigenvalues --   -0.45765  -0.45743  -0.45573  -0.43799  -0.43762
 Alpha virt. eigenvalues --    0.20952   0.23091   0.23638   0.25101   0.25931
 Alpha virt. eigenvalues --    0.26725   0.27034   0.27589   0.27919   0.29129
 Alpha virt. eigenvalues --    0.30572   0.30811   0.31536   0.32043   0.32377

 Mulliken charges:
               1
     1  C   -0.298519
     2  C   -0.304305
     3  C   -0.475871
     4  H    0.150304
     5  H    0.149622
     6  H    0.155046
     7  H    0.151951
     8  H    0.154645
     9  H    0.157363
    10  H    0.159903
    11  C   -0.298235
    12  C   -0.299662
    13  C   -0.475725
    14  H    0.149126
    15  H    0.149545
    16  H    0.152125
    17  H    0.151939
    18  H    0.155103
    19  H    0.155195
    20  H    0.160266
    21  C   -0.298319
    22  C   -0.299523
    23  C   -0.482483
    24  H    0.149621
    25  H    0.148968
    26  H    0.152015
    27  H    0.152041
    28  H    0.161242
    29  H    0.154608
    30  H    0.161770
    31  C   -0.298304
    32  C   -0.299683
    33  C   -0.475719
    34  H    0.149610
    35  H    0.149762
    36  H    0.151904
    37  H    0.151957
    38  H    0.155233
    39  H    0.155199
    40  H    0.160290
 Sum of Mulliken charges =  -0.00000

 Dipole moment (field-independent basis, Debye):
    X=              0.0012    Y=             -0.0119    Z=              0.0075  Tot=              0.0141
 Quadrupole moment (field-independent basis, Debye-Ang):
   XX=            -85.1004   YY=            -86.0264   ZZ=            -83.6227
   XY=             -0.0280   XZ=              1.3270   YZ=              0.1688

 Normal termination of Gaussian 16 at Wed May  5 21:30:42 2021.
