 Gaussian 16, Revision A.03,
 Gaussian 16:  EM64L-G16RevA.03 25-Dec-2016

 -------------
 #p 6-31g* mp2
 -------------

 ------------------------------------------------------
 Input file generated by CHIRIPA (05-May-2021 14:51:07)
 ------------------------------------------------------
 Symbolic Z-matrix:
 Charge =  0 Multiplicity = 1

                         Standard orientation:
 ---------------------------------------------------------------------
 Center     Atomic      Atomic             Coordinates (Angstroms)
 Number     Number       Type             X           Y           Z
 ---------------------------------------------------------------------
      1          6           0        4.310254   -0.580739    0.274816
      2          6           0        5.489389   -0.531789   -0.697412
      3          6           0        6.500249   -1.653600   -0.457624
      4          1           0        4.689289   -0.520845    1.304229
      5          1           0        3.808227   -1.553815    0.182701
      6          1           0        5.988206    0.441433   -0.604478
      7          1           0        5.107490   -0.591613   -1.724637
      8          1           0        6.023242   -2.632568   -0.570263
      9          1           0        6.908963   -1.593652    0.556260
     10          1           0        7.334847   -1.599630   -1.163593
     11          6           0        3.291113    0.534385    0.047705
     12          6           0        2.111978    0.485436    1.019934
     13          6           0        1.101119    1.607246    0.780145
     14          1           0        3.793141    1.507462    0.139820
     15          1           0        2.912079    0.474492   -0.981708
     16          1           0        2.493877    0.545260    2.047158
     17          1           0        1.613161   -0.487786    0.927000
     18          1           0        0.692405    1.547298   -0.233739
     19          1           0        1.578125    2.586214    0.892784
     20          1           0        0.266520    1.553276    1.486115
     21          6           0       -3.716007    0.716720   -0.469903
     22          6           0       -2.464605    1.448293    0.016695
     23          6           0       -2.309038    2.834377   -0.609693
     24          1           0       -3.676667    0.623960   -1.563883
     25          1           0       -4.601141    1.325683   -0.239475
     26          1           0       -1.582206    0.837496   -0.213341
     27          1           0       -2.506835    1.539153    1.109663
     28          1           0       -3.171272    3.464743   -0.369291
     29          1           0       -2.241388    2.759099   -1.699812
     30          1           0       -1.408058    3.339588   -0.247949
     31          6           0       -3.885361   -0.670366    0.147382
     32          6           0       -5.136763   -1.401939   -0.339217
     33          6           0       -5.292329   -2.788024    0.287172
     34          1           0       -3.000227   -1.279329   -0.083046
     35          1           0       -3.924700   -0.577606    1.241361
     36          1           0       -5.094533   -1.492799   -1.432184
     37          1           0       -6.019162   -0.791143   -0.109180
     38          1           0       -5.359979   -2.712747    1.377290
     39          1           0       -4.430096   -3.418389    0.046769
     40          1           0       -6.193310   -3.293234   -0.074572
 ---------------------------------------------------------------------

 SCF Done:  E(RHF) =  -470.732003675     A.U. after   11 cycles
 E2 =    -0.1583462556D+01 EUMP2 =    -0.47231546623169D+03

 The electronic state is 1-A.
 Alpha  occ. eigenvalues --  -11.21606 -11.21591 -11.21582 -11.21466 -11.21407
 Alpha  occ. eigenvalues --  -11.21362 -11.21348 -11.21288 -11.21075 -11.21060
 Alpha  occ. eigenvalues --  -11.20993 -11.20968  -1.08440  -1.08373  -1.03582
 Alpha  occ. eigenvalues --   -1.03427  -0.96053  -0.95859  -0.87008  -0.86941
 Alpha  occ. eigenvalues --   -0.79693  -0.79464  -0.78267  -0.78168  -0.65119
 Alpha  occ. eigenvalues --   -0.64975  -0.61107  -0.60745  -0.59546  -0.59131
 Alpha  occ. eigenvalues --   -0.57600  -0.57542  -0.55366  -0.55100  -0.52772
 Alpha  occ. eigenvalues --   -0.52538  -0.52457  -0.52234  -0.49993  -0.49823
 Alpha  occ. eigenvalues --   -0.47979  -0.47774  -0.46764  -0.46438  -0.45804
 Alpha  occ. eigenvalues --   -0.45750  -0.45709  -0.45550  -0.43776  -0.43695
 Alpha virt. eigenvalues --    0.21969   0.23083   0.23539   0.24831   0.26178
 Alpha virt. eigenvalues --    0.26712   0.26905   0.27313   0.27894   0.29228
 Alpha virt. eigenvalues --    0.29697   0.30893   0.31475   0.31779   0.32294

 Mulliken charges:
               1
     1  C   -0.298223
     2  C   -0.299619
     3  C   -0.475697
     4  H    0.149712
     5  H    0.149398
     6  H    0.151960
     7  H    0.151848
     8  H    0.155148
     9  H    0.155207
    10  H    0.160257
    11  C   -0.298467
    12  C   -0.301312
    13  C   -0.479014
    14  H    0.149623
    15  H    0.149440
    16  H    0.151934
    17  H    0.151709
    18  H    0.157651
    19  H    0.154081
    20  H    0.164944
    21  C   -0.297854
    22  C   -0.301612
    23  C   -0.479392
    24  H    0.149007
    25  H    0.148980
    26  H    0.157013
    27  H    0.150231
    28  H    0.154759
    29  H    0.153993
    30  H    0.165160
    31  C   -0.298085
    32  C   -0.299538
    33  C   -0.475655
    34  H    0.148941
    35  H    0.149387
    36  H    0.151812
    37  H    0.151965
    38  H    0.155135
    39  H    0.154989
    40  H    0.160184
 Sum of Mulliken charges =  -0.00000

 Dipole moment (field-independent basis, Debye):
    X=              0.0257    Y=              0.0151    Z=              0.0122  Tot=              0.0322
 Quadrupole moment (field-independent basis, Debye-Ang):
   XX=            -85.2495   YY=            -85.8954   ZZ=            -83.9102
   XY=              0.4540   XZ=             -0.0670   YZ=              1.1616

 Normal termination of Gaussian 16 at Thu May  6 03:39:01 2021.
