 Gaussian 16, Revision A.03,
 Gaussian 16:  EM64L-G16RevA.03 25-Dec-2016

 -------------
 #p 6-31g* mp2
 -------------

 ------------------------------------------------------
 Input file generated by CHIRIPA (05-May-2021 14:51:10)
 ------------------------------------------------------
 Symbolic Z-matrix:
 Charge =  0 Multiplicity = 1

                         Standard orientation:
 ---------------------------------------------------------------------
 Center     Atomic      Atomic             Coordinates (Angstroms)
 Number     Number       Type             X           Y           Z
 ---------------------------------------------------------------------
      1          6           0       -1.824400   -0.782081    0.439906
      2          6           0       -1.708562   -1.507369    1.780996
      3          6           0       -0.267223   -1.881056    2.128405
      4          1           0       -1.408488   -1.420070   -0.351886
      5          1           0       -1.205712    0.125594    0.467216
      6          1           0       -2.328374   -2.412680    1.751650
      7          1           0       -2.124973   -0.867659    2.569659
      8          1           0        0.359961   -0.985496    2.185093
      9          1           0        0.155404   -2.539296    1.362436
     10          1           0       -0.207516   -2.398538    3.090958
     11          6           0       -3.259238   -0.401949    0.078706
     12          6           0       -3.375076    0.323339   -1.262385
     13          6           0       -4.816415    0.697026   -1.609794
     14          1           0       -3.877926   -1.309624    0.051395
     15          1           0       -3.675150    0.236040    0.870497
     16          1           0       -2.958665   -0.316371   -2.051048
     17          1           0       -2.755264    1.228650   -1.233039
     18          1           0       -5.239042    1.355266   -0.843825
     19          1           0       -5.443600   -0.198534   -1.666482
     20          1           0       -4.876123    1.214508   -2.572347
     21          6           0        2.520529    1.120448    0.291817
     22          6           0        1.461635    2.198383    0.057743
     23          6           0        1.431272    3.248366    1.168782
     24          1           0        2.328830    0.630431    1.256223
     25          1           0        3.507105    1.597200    0.374097
     26          1           0        0.477525    1.719611   -0.025451
     27          1           0        1.655765    2.685760   -0.906307
     28          1           0        2.399777    3.752520    1.248953
     29          1           0        1.214842    2.780882    2.134814
     30          1           0        0.667213    4.009242    0.981323
     31          6           0        2.563111    0.063581   -0.810428
     32          6           0        3.622003   -1.014352   -0.576354
     33          6           0        3.652366   -2.064336   -1.687392
     34          1           0        1.576533   -0.413169   -0.892708
     35          1           0        2.754809    0.553598   -1.774835
     36          1           0        3.427873   -1.501730    0.387696
     37          1           0        4.606113   -0.535582   -0.493161
     38          1           0        3.868796   -1.596853   -2.653425
     39          1           0        2.683861   -2.568490   -1.767564
     40          1           0        4.416425   -2.825213   -1.499934
 ---------------------------------------------------------------------

 SCF Done:  E(RHF) =  -470.733241494     A.U. after   11 cycles
 E2 =    -0.1584344067D+01 EUMP2 =    -0.47231758556145D+03

 The electronic state is 1-A.
 Alpha  occ. eigenvalues --  -11.21689 -11.21639 -11.21593 -11.21544 -11.21477
 Alpha  occ. eigenvalues --  -11.21413 -11.21370 -11.21291 -11.21176 -11.21100
 Alpha  occ. eigenvalues --  -11.21097 -11.21041  -1.08513  -1.08390  -1.03596
 Alpha  occ. eigenvalues --   -1.03512  -0.96051  -0.95959  -0.87065  -0.86978
 Alpha  occ. eigenvalues --   -0.79660  -0.79577  -0.78385  -0.78151  -0.65264
 Alpha  occ. eigenvalues --   -0.64926  -0.61065  -0.60841  -0.59411  -0.59332
 Alpha  occ. eigenvalues --   -0.57661  -0.57570  -0.55415  -0.55184  -0.52740
 Alpha  occ. eigenvalues --   -0.52666  -0.52484  -0.52375  -0.50006  -0.49918
 Alpha  occ. eigenvalues --   -0.47997  -0.47913  -0.46746  -0.46649  -0.46156
 Alpha  occ. eigenvalues --   -0.45766  -0.45684  -0.45233  -0.43851  -0.43757
 Alpha virt. eigenvalues --    0.19430   0.22686   0.23457   0.24882   0.25049
 Alpha virt. eigenvalues --    0.25864   0.26731   0.27768   0.28677   0.30270
 Alpha virt. eigenvalues --    0.30558   0.31557   0.31719   0.32015   0.32212

 Mulliken charges:
               1
     1  C   -0.308512
     2  C   -0.299094
     3  C   -0.480054
     4  H    0.149814
     5  H    0.158804
     6  H    0.152475
     7  H    0.152214
     8  H    0.158065
     9  H    0.155493
    10  H    0.160956
    11  C   -0.297754
    12  C   -0.300278
    13  C   -0.475753
    14  H    0.149827
    15  H    0.149803
    16  H    0.152151
    17  H    0.152275
    18  H    0.155257
    19  H    0.155277
    20  H    0.160514
    21  C   -0.300663
    22  C   -0.308136
    23  C   -0.475314
    24  H    0.151846
    25  H    0.149672
    26  H    0.158449
    27  H    0.152436
    28  H    0.155665
    29  H    0.154348
    30  H    0.159931
    31  C   -0.300742
    32  C   -0.300310
    33  C   -0.475521
    34  H    0.153186
    35  H    0.149187
    36  H    0.153185
    37  H    0.151568
    38  H    0.155040
    39  H    0.154558
    40  H    0.160136
 Sum of Mulliken charges =  -0.00000

 Dipole moment (field-independent basis, Debye):
    X=             -0.0357    Y=             -0.0119    Z=              0.0058  Tot=              0.0380
 Quadrupole moment (field-independent basis, Debye-Ang):
   XX=            -85.2801   YY=            -84.4930   ZZ=            -84.9604
   XY=              0.9559   XZ=             -0.5673   YZ=             -0.3744

 Normal termination of Gaussian 16 at Thu May  6 02:13:30 2021.
