 Gaussian 16, Revision A.03,
 Gaussian 16:  EM64L-G16RevA.03 25-Dec-2016

 -------------
 #p 6-31g* mp2
 -------------

 ------------------------------------------------------
 Input file generated by CHIRIPA (05-May-2021 14:55:19)
 ------------------------------------------------------
 Symbolic Z-matrix:
 Charge =  0 Multiplicity = 1

                         Standard orientation:
 ---------------------------------------------------------------------
 Center     Atomic      Atomic             Coordinates (Angstroms)
 Number     Number       Type             X           Y           Z
 ---------------------------------------------------------------------
      1          6           0        1.163707   -1.361246    0.467899
      2          6           0        1.852800   -0.790460    1.543015
      3          6           0        3.011532   -0.039163    1.325204
      4          6           0        3.454987    0.121927    0.013454
      5          6           0        2.790480   -0.434181   -1.078546
      6          6           0        1.633917   -1.181602   -0.837150
      7          1           0        0.264419   -1.943367    0.646260
      8          1           0        1.489943   -0.928319    2.557596
      9          1           0        3.564463    0.413822    2.139138
     10          1           0        3.176584   -0.279317   -2.078726
     11          1           0        1.100799   -1.623719   -1.674026
     12          7           0        4.680537    0.915240   -0.229617
     13          8           0        5.050630    1.042437   -1.394731
     14          8           0        5.247823    1.394820    0.749579
     15          6           0       -3.553164   -0.446407   -0.100400
     16          6           0       -3.909574   -1.933313   -0.108473
     17          6           0       -2.677333   -2.836238   -0.172529
     18          1           0       -2.970510   -0.210634   -1.001438
     19          1           0       -2.899586   -0.237812    0.757923
     20          1           0       -4.563409   -2.138775   -0.965737
     21          1           0       -4.491611   -2.165534    0.792594
     22          1           0       -2.025595   -2.660290    0.689376
     23          1           0       -2.097800   -2.633381   -1.078946
     24          1           0       -2.955136   -3.894852   -0.177295
     25          6           0       -4.774521    0.468987   -0.036599
     26          6           0       -4.418111    1.955894   -0.028525
     27          6           0       -5.650352    2.858819    0.035531
     28          1           0       -5.428099    0.260392   -0.894921
     29          1           0       -5.357175    0.233215    0.864440
     30          1           0       -3.836073    2.188113   -0.929593
     31          1           0       -3.764276    2.161356    0.828739
     32          1           0       -6.229885    2.655960    0.941947
     33          1           0       -6.302090    2.682869   -0.826375
     34          1           0       -5.372549    3.917432    0.040296
 ---------------------------------------------------------------------

 SCF Done:  E(RHF) =  -669.535532246     A.U. after   15 cycles
 E2 =    -0.2091128062D+01 EUMP2 =    -0.67162666030716D+03

 The electronic state is 1-A.
 Alpha  occ. eigenvalues --  -20.60704 -20.60699 -15.85758 -11.31103 -11.27680
 Alpha  occ. eigenvalues --  -11.27676 -11.27353 -11.26679 -11.26667 -11.22570
 Alpha  occ. eigenvalues --  -11.22418 -11.22218 -11.22098 -11.21995 -11.21465
 Alpha  occ. eigenvalues --   -1.59781  -1.39335  -1.19274  -1.09189  -1.08665
 Alpha  occ. eigenvalues --   -1.04680  -1.04313  -0.96791  -0.95504  -0.87813
 Alpha  occ. eigenvalues --   -0.86074  -0.82346  -0.80393  -0.78957  -0.77398
 Alpha  occ. eigenvalues --   -0.71976  -0.71104  -0.70383  -0.65816  -0.64924
 Alpha  occ. eigenvalues --   -0.64688  -0.62034  -0.61712  -0.60171  -0.58392
 Alpha  occ. eigenvalues --   -0.56135  -0.55171  -0.53468  -0.53171  -0.53004
 Alpha  occ. eigenvalues --   -0.52771  -0.50740  -0.48751  -0.48732  -0.48670
 Alpha  occ. eigenvalues --   -0.47410  -0.46505  -0.46401  -0.44745  -0.44539
 Alpha  occ. eigenvalues --   -0.37238  -0.36290
 Alpha virt. eigenvalues --    0.05139   0.11361   0.16613   0.19790   0.22439
 Alpha virt. eigenvalues --    0.23890   0.24899   0.25853   0.27023   0.27198
 Alpha virt. eigenvalues --    0.29328   0.29772   0.31155   0.31410   0.32178

 Mulliken charges:
               1
     1  C   -0.175384
     2  C   -0.221178
     3  C   -0.170655
     4  C    0.158108
     5  C   -0.170806
     6  C   -0.222037
     7  H    0.236359
     8  H    0.222898
     9  H    0.275196
    10  H    0.275183
    11  H    0.223405
    12  N    0.488044
    13  O   -0.460737
    14  O   -0.460732
    15  C   -0.298785
    16  C   -0.299573
    17  C   -0.480365
    18  H    0.149757
    19  H    0.147275
    20  H    0.156017
    21  H    0.155069
    22  H    0.148328
    23  H    0.152045
    24  H    0.166698
    25  C   -0.298884
    26  C   -0.300161
    27  C   -0.476208
    28  H    0.151114
    29  H    0.150692
    30  H    0.153120
    31  H    0.152348
    32  H    0.155585
    33  H    0.155907
    34  H    0.162356
 Sum of Mulliken charges =  -0.00000

 Dipole moment (field-independent basis, Debye):
    X=             -4.5852    Y=             -2.7768    Z=              0.8306  Tot=              5.4245
 Quadrupole moment (field-independent basis, Debye-Ang):
   XX=           -125.1790   YY=            -96.4983   ZZ=            -88.8847
   XY=             -9.4590   XZ=              3.5757   YZ=              0.9756

 Normal termination of Gaussian 16 at Thu May  6 19:04:08 2021.
