 Gaussian 16, Revision A.03,
 Gaussian 16:  EM64L-G16RevA.03 25-Dec-2016

 -------------
 #p 6-31g* mp2
 -------------

 ------------------------------------------------------
 Input file generated by CHIRIPA (05-May-2021 14:51:10)
 ------------------------------------------------------
 Symbolic Z-matrix:
 Charge =  0 Multiplicity = 1

                         Standard orientation:
 ---------------------------------------------------------------------
 Center     Atomic      Atomic             Coordinates (Angstroms)
 Number     Number       Type             X           Y           Z
 ---------------------------------------------------------------------
      1          6           0       -4.727075    0.424863    0.023975
      2          6           0       -5.358171   -0.962292   -0.100540
      3          6           0       -6.882536   -0.930668    0.013943
      4          1           0       -5.014723    0.866389    0.987956
      5          1           0       -5.140741    1.079555   -0.755547
      6          1           0       -4.942412   -1.614559    0.678118
      7          1           0       -5.068830   -1.400645   -1.064254
      8          1           0       -7.314894   -0.302386   -0.771506
      9          1           0       -7.187758   -0.517516    0.980766
     10          1           0       -7.312902   -1.932774   -0.077863
     11          6           0       -3.203637    0.409635   -0.088428
     12          6           0       -2.572541    1.796790    0.036087
     13          6           0       -1.048176    1.765166   -0.078396
     14          1           0       -2.789971   -0.245056    0.691095
     15          1           0       -2.915989   -0.031890   -1.052408
     16          1           0       -2.861882    2.235143    0.999801
     17          1           0       -2.988299    2.449057   -0.742571
     18          1           0       -0.742954    1.352015   -1.045218
     19          1           0       -0.615818    1.136885    0.707053
     20          1           0       -0.617810    2.767272    0.013410
     21          6           0        4.584152   -0.099738    0.347997
     22          6           0        5.816278   -0.142837   -0.556432
     23          6           0        7.046162    0.496171    0.089206
     24          1           0        4.363279    0.944932    0.606496
     25          1           0        4.812651   -0.613707    1.291935
     26          1           0        5.585076    0.369855   -1.498932
     27          1           0        6.034129   -1.187514   -0.812962
     28          1           0        7.304615   -0.019617    1.019673
     29          1           0        6.853011    1.546601    0.329806
     30          1           0        7.915386    0.454441   -0.574548
     31          6           0        3.346561   -0.734760   -0.283544
     32          6           0        2.114434   -0.691661    0.620884
     33          6           0        0.884549   -1.330668   -0.024754
     34          1           0        3.118061   -0.220791   -1.227482
     35          1           0        3.567432   -1.779431   -0.542043
     36          1           0        1.896583    0.353016    0.877416
     37          1           0        2.345636   -1.204353    1.563386
     38          1           0        1.077701   -2.381100   -0.265353
     39          1           0        0.626097   -0.814882   -0.955220
     40          1           0        0.015326   -1.288939    0.639000
 ---------------------------------------------------------------------

 SCF Done:  E(RHF) =  -470.732164585     A.U. after   11 cycles
 E2 =    -0.1583582103D+01 EUMP2 =    -0.47231574668731D+03

 The electronic state is 1-A.
 Alpha  occ. eigenvalues --  -11.21587 -11.21580 -11.21573 -11.21527 -11.21392
 Alpha  occ. eigenvalues --  -11.21362 -11.21332 -11.21302 -11.21061 -11.21049
 Alpha  occ. eigenvalues --  -11.20993 -11.20942  -1.08426  -1.08373  -1.03567
 Alpha  occ. eigenvalues --   -1.03428  -0.96046  -0.95848  -0.87054  -0.86874
 Alpha  occ. eigenvalues --   -0.79616  -0.79510  -0.78227  -0.78198  -0.65061
 Alpha  occ. eigenvalues --   -0.65010  -0.60984  -0.60874  -0.59442  -0.59205
 Alpha  occ. eigenvalues --   -0.57668  -0.57468  -0.55261  -0.55212  -0.52698
 Alpha  occ. eigenvalues --   -0.52617  -0.52361  -0.52307  -0.49970  -0.49802
 Alpha  occ. eigenvalues --   -0.47889  -0.47804  -0.46716  -0.46458  -0.45796
 Alpha  occ. eigenvalues --   -0.45723  -0.45675  -0.45608  -0.43779  -0.43705
 Alpha virt. eigenvalues --    0.21545   0.22965   0.23507   0.25055   0.25312
 Alpha virt. eigenvalues --    0.26470   0.26902   0.27508   0.27827   0.29424
 Alpha virt. eigenvalues --    0.29898   0.30816   0.31339   0.31877   0.32364

 Mulliken charges:
               1
     1  C   -0.298283
     2  C   -0.299605
     3  C   -0.475701
     4  H    0.149514
     5  H    0.149537
     6  H    0.151893
     7  H    0.152110
     8  H    0.155144
     9  H    0.155113
    10  H    0.160250
    11  C   -0.298996
    12  C   -0.300116
    13  C   -0.478725
    14  H    0.149852
    15  H    0.150189
    16  H    0.151550
    17  H    0.151546
    18  H    0.155578
    19  H    0.161592
    20  H    0.158667
    21  C   -0.298310
    22  C   -0.299621
    23  C   -0.475680
    24  H    0.149766
    25  H    0.149341
    26  H    0.151892
    27  H    0.151849
    28  H    0.155109
    29  H    0.155160
    30  H    0.160141
    31  C   -0.297934
    32  C   -0.303779
    33  C   -0.476690
    34  H    0.149488
    35  H    0.149474
    36  H    0.155356
    37  H    0.151227
    38  H    0.154156
    39  H    0.157616
    40  H    0.160331
 Sum of Mulliken charges =  -0.00000

 Dipole moment (field-independent basis, Debye):
    X=             -0.0112    Y=              0.0051    Z=             -0.0060  Tot=              0.0137
 Quadrupole moment (field-independent basis, Debye-Ang):
   XX=            -87.0394   YY=            -84.2879   ZZ=            -83.6987
   XY=             -0.7442   XZ=             -0.0693   YZ=             -0.6149

 Normal termination of Gaussian 16 at Thu May  6 03:47:56 2021.
