 Gaussian 16, Revision A.03,
 Gaussian 16:  EM64L-G16RevA.03 25-Dec-2016

 -------------
 #p 6-31g* mp2
 -------------

 ------------------------------------------------------
 Input file generated by CHIRIPA (05-May-2021 14:51:10)
 ------------------------------------------------------
 Symbolic Z-matrix:
 Charge =  0 Multiplicity = 1

                         Standard orientation:
 ---------------------------------------------------------------------
 Center     Atomic      Atomic             Coordinates (Angstroms)
 Number     Number       Type             X           Y           Z
 ---------------------------------------------------------------------
      1          6           0        3.287713   -0.509866   -0.355076
      2          6           0        2.935425   -1.735571    0.488444
      3          6           0        1.979096   -2.690381   -0.226796
      4          1           0        2.364198    0.023413   -0.619042
      5          1           0        3.738369   -0.841465   -1.300774
      6          1           0        2.486833   -1.401715    1.432860
      7          1           0        3.859902   -2.265887    0.750594
      8          1           0        2.422177   -3.051649   -1.160479
      9          1           0        1.041307   -2.182566   -0.474337
     10          1           0        1.740609   -3.559535    0.394135
     11          6           0        4.242949    0.454075    0.346401
     12          6           0        4.595237    1.679780   -0.497119
     13          6           0        5.551565    2.634590    0.218121
     14          1           0        3.792292    0.785675    1.292099
     15          1           0        5.166464   -0.079204    0.610367
     16          1           0        3.670760    2.210097   -0.759269
     17          1           0        5.043829    1.345924   -1.441535
     18          1           0        6.489355    2.126776    0.465662
     19          1           0        5.108485    2.995859    1.151805
     20          1           0        5.790052    3.503744   -0.402810
     21          6           0       -3.381909   -0.521389   -0.362685
     22          6           0       -3.010504   -1.703749    0.532897
     23          6           0       -2.243825   -2.794436   -0.215701
     24          1           0       -3.986250   -0.883689   -1.205571
     25          1           0       -2.465719   -0.095908   -0.795070
     26          1           0       -3.927010   -2.126010    0.964558
     27          1           0       -2.407138   -1.338565    1.373853
     28          1           0       -1.313873   -2.394570   -0.632711
     29          1           0       -2.842379   -3.186489   -1.044332
     30          1           0       -1.988386   -3.630037    0.443374
     31          6           0       -4.148754    0.577180    0.371360
     32          6           0       -4.520157    1.759540   -0.524223
     33          6           0       -5.286837    2.850227    0.224377
     34          1           0       -5.064943    0.151698    0.803745
     35          1           0       -3.544412    0.939480    1.214246
     36          1           0       -5.123523    1.394356   -1.365178
     37          1           0       -3.603652    2.181801   -0.955883
     38          1           0       -4.688281    3.242280    1.053007
     39          1           0       -6.216789    2.450360    0.641386
     40          1           0       -5.542274    3.685828   -0.434700
 ---------------------------------------------------------------------

 SCF Done:  E(RHF) =  -470.733172863     A.U. after   11 cycles
 E2 =    -0.1582319251D+01 EUMP2 =    -0.47231549211318D+03

 The electronic state is 1-A.
 Alpha  occ. eigenvalues --  -11.21619 -11.21614 -11.21607 -11.21595 -11.21425
 Alpha  occ. eigenvalues --  -11.21417 -11.21365 -11.21357 -11.21086 -11.21082
 Alpha  occ. eigenvalues --  -11.21048 -11.21017  -1.08448  -1.08435  -1.03553
 Alpha  occ. eigenvalues --   -1.03516  -0.96021  -0.95945  -0.87058  -0.86941
 Alpha  occ. eigenvalues --   -0.79650  -0.79545  -0.78268  -0.78242  -0.65112
 Alpha  occ. eigenvalues --   -0.65040  -0.61065  -0.60820  -0.59374  -0.59323
 Alpha  occ. eigenvalues --   -0.57649  -0.57545  -0.55498  -0.55076  -0.52726
 Alpha  occ. eigenvalues --   -0.52621  -0.52506  -0.52311  -0.50155  -0.49696
 Alpha  occ. eigenvalues --   -0.47998  -0.47827  -0.46759  -0.46480  -0.45835
 Alpha  occ. eigenvalues --   -0.45769  -0.45742  -0.45651  -0.43816  -0.43761
 Alpha virt. eigenvalues --    0.21792   0.23080   0.23565   0.24933   0.26006
 Alpha virt. eigenvalues --    0.26852   0.27036   0.27486   0.27700   0.29041
 Alpha virt. eigenvalues --    0.29956   0.31319   0.31776   0.31819   0.32243

 Mulliken charges:
               1
     1  C   -0.298256
     2  C   -0.299524
     3  C   -0.479916
     4  H    0.148966
     5  H    0.149713
     6  H    0.151686
     7  H    0.151982
     8  H    0.155236
     9  H    0.159401
    10  H    0.160785
    11  C   -0.298280
    12  C   -0.299645
    13  C   -0.475713
    14  H    0.149424
    15  H    0.149794
    16  H    0.151777
    17  H    0.152020
    18  H    0.155250
    19  H    0.155150
    20  H    0.160303
    21  C   -0.298135
    22  C   -0.299735
    23  C   -0.480304
    24  H    0.149879
    25  H    0.148692
    26  H    0.151950
    27  H    0.151557
    28  H    0.160479
    29  H    0.155048
    30  H    0.160448
    31  C   -0.298266
    32  C   -0.299640
    33  C   -0.475703
    34  H    0.149660
    35  H    0.149451
    36  H    0.152046
    37  H    0.151778
    38  H    0.155104
    39  H    0.155245
    40  H    0.160294
 Sum of Mulliken charges =  -0.00000

 Dipole moment (field-independent basis, Debye):
    X=              0.0053    Y=             -0.0158    Z=             -0.0046  Tot=              0.0173
 Quadrupole moment (field-independent basis, Debye-Ang):
   XX=            -84.1270   YY=            -85.6756   ZZ=            -84.9019
   XY=             -0.0580   XZ=             -0.1423   YZ=             -0.3317

 Normal termination of Gaussian 16 at Thu May  6 03:47:39 2021.
