 Gaussian 16, Revision A.03,
 Gaussian 16:  EM64L-G16RevA.03 25-Dec-2016

 -------------
 #p 6-31g* mp2
 -------------

 ------------------------------------------------------
 Input file generated by CHIRIPA (05-May-2021 14:55:22)
 ------------------------------------------------------
 Symbolic Z-matrix:
 Charge =  0 Multiplicity = 1

                         Standard orientation:
 ---------------------------------------------------------------------
 Center     Atomic      Atomic             Coordinates (Angstroms)
 Number     Number       Type             X           Y           Z
 ---------------------------------------------------------------------
      1          6           0       -1.249850   -1.511582    1.846534
      2          6           0       -0.664314   -0.350060    1.332205
      3          6           0       -1.353445    0.444534    0.411191
      4          6           0       -2.632159    0.046070    0.024658
      5          6           0       -3.242449   -1.105606    0.519105
      6          6           0       -2.534784   -1.884990    1.439061
      7          1           0       -0.707318   -2.122934    2.561589
      8          1           0        0.333443   -0.057622    1.646856
      9          1           0       -0.923884    1.348667   -0.002860
     10          1           0       -4.238522   -1.371366    0.186497
     11          1           0       -2.992007   -2.786528    1.836831
     12          7           0       -3.371522    0.879220   -0.949818
     13          8           0       -4.496839    0.506428   -1.274356
     14          8           0       -2.811717    1.889260   -1.370623
     15          6           0        2.912447    0.818906   -0.241715
     16          6           0        3.552704    1.759471    0.779752
     17          6           0        2.940397    3.160336    0.758538
     18          1           0        3.018250    1.251698   -1.245926
     19          1           0        1.833961    0.751737   -0.042341
     20          1           0        4.629889    1.823762    0.579366
     21          1           0        3.445533    1.324297    1.781628
     22          1           0        1.869237    3.115969    0.980457
     23          1           0        3.060322    3.618273   -0.228637
     24          1           0        3.412855    3.816200    1.496430
     25          6           0        3.513929   -0.585325   -0.232561
     26          6           0        2.873672   -1.525889   -1.254028
     27          6           0        3.485978   -2.926754   -1.232813
     28          1           0        4.592415   -0.518155   -0.431934
     29          1           0        3.408126   -1.018116    0.771651
     30          1           0        2.980843   -1.090715   -2.255904
     31          1           0        1.796487   -1.590181   -1.053641
     32          1           0        3.366054   -3.384691   -0.245639
     33          1           0        4.557139   -2.882388   -1.454732
     34          1           0        3.013521   -3.582618   -1.970705
 ---------------------------------------------------------------------

 SCF Done:  E(RHF) =  -669.535288238     A.U. after   15 cycles
 E2 =    -0.2092561031D+01 EUMP2 =    -0.67162784926870D+03

 The electronic state is 1-A.
 Alpha  occ. eigenvalues --  -20.60781 -20.60775 -15.85836 -11.31226 -11.27806
 Alpha  occ. eigenvalues --  -11.27803 -11.27553 -11.26820 -11.26808 -11.22298
 Alpha  occ. eigenvalues --  -11.22132 -11.22078 -11.22015 -11.21660 -11.21520
 Alpha  occ. eigenvalues --   -1.59856  -1.39408  -1.19408  -1.09095  -1.08793
 Alpha  occ. eigenvalues --   -1.04819  -1.04111  -0.96567  -0.95625  -0.87576
 Alpha  occ. eigenvalues --   -0.86209  -0.82468  -0.80169  -0.78912  -0.77496
 Alpha  occ. eigenvalues --   -0.72053  -0.71179  -0.70514  -0.65857  -0.65056
 Alpha  occ. eigenvalues --   -0.64755  -0.62173  -0.61492  -0.59924  -0.58164
 Alpha  occ. eigenvalues --   -0.55883  -0.55306  -0.53235  -0.53131  -0.52996
 Alpha  occ. eigenvalues --   -0.52875  -0.50515  -0.48815  -0.48807  -0.48477
 Alpha  occ. eigenvalues --   -0.47220  -0.46416  -0.46378  -0.44808  -0.44386
 Alpha  occ. eigenvalues --   -0.37384  -0.36394
 Alpha virt. eigenvalues --    0.05010   0.11198   0.16365   0.18762   0.22860
 Alpha virt. eigenvalues --    0.23484   0.25266   0.25882   0.27295   0.28432
 Alpha virt. eigenvalues --    0.29257   0.30677   0.31193   0.31427   0.32103

 Mulliken charges:
               1
     1  C   -0.171730
     2  C   -0.220789
     3  C   -0.172393
     4  C    0.158302
     5  C   -0.170608
     6  C   -0.218600
     7  H    0.225929
     8  H    0.227458
     9  H    0.277092
    10  H    0.275895
    11  H    0.223728
    12  N    0.488242
    13  O   -0.460406
    14  O   -0.460032
    15  C   -0.304073
    16  C   -0.301197
    17  C   -0.475168
    18  H    0.156688
    19  H    0.142795
    20  H    0.156192
    21  H    0.147322
    22  H    0.150078
    23  H    0.160347
    24  H    0.163344
    25  C   -0.297946
    26  C   -0.302352
    27  C   -0.475605
    28  H    0.153114
    29  H    0.143666
    30  H    0.155580
    31  H    0.153686
    32  H    0.152209
    33  H    0.156542
    34  H    0.162692
 Sum of Mulliken charges =  -0.00000

 Dipole moment (field-independent basis, Debye):
    X=              2.6920    Y=             -2.9071    Z=              3.3319  Tot=              5.1769
 Quadrupole moment (field-independent basis, Debye-Ang):
   XX=           -104.8550   YY=            -94.1745   ZZ=            -94.7769
   XY=             11.6050   XZ=            -10.0174   YZ=             -0.4790

 Normal termination of Gaussian 16 at Thu May  6 04:39:04 2021.
