 Gaussian 16, Revision A.03,
 Gaussian 16:  EM64L-G16RevA.03 25-Dec-2016

 -------------
 #p 6-31g* mp2
 -------------

 ------------------------------------------------------
 Input file generated by CHIRIPA (05-May-2021 14:53:14)
 ------------------------------------------------------
 Symbolic Z-matrix:
 Charge =  0 Multiplicity = 1

                         Standard orientation:
 ---------------------------------------------------------------------
 Center     Atomic      Atomic             Coordinates (Angstroms)
 Number     Number       Type             X           Y           Z
 ---------------------------------------------------------------------
      1          6           0       -2.862819    0.452244   -0.576831
      2          6           0       -1.621631   -0.362391   -0.942628
      3          6           0       -0.457293    0.511713   -1.409588
      4          1           0       -3.174005    1.045443   -1.447591
      5          1           0       -2.602047    1.169964    0.213277
      6          1           0       -1.885004   -1.079310   -1.730841
      7          1           0       -1.313477   -0.953866   -0.070955
      8          1           0       -0.166376    1.217353   -0.624706
      9          1           0       -0.741150    1.091197   -2.294023
     10          1           0        0.419561   -0.091000   -1.665955
     11          6           0       -4.035327   -0.407569   -0.108138
     12          6           0       -5.276515    0.407066    0.257659
     13          6           0       -6.440853   -0.467039    0.724620
     14          1           0       -4.296099   -1.125290   -0.898246
     15          1           0       -3.724142   -1.000769    0.762622
     16          1           0       -5.584669    0.998541   -0.614014
     17          1           0       -5.013143    1.123984    1.045872
     18          1           0       -6.156997   -1.046523    1.609054
     19          1           0       -6.731771   -1.172679   -0.060263
     20          1           0       -7.317708    0.135674    0.980986
     21          6           0        2.506573    2.492324    0.445333
     22          6           0        2.100279    1.682687    1.511134
     23          6           0        2.199913    0.290935    1.423686
     24          6           0        2.712765   -0.260086    0.250380
     25          6           0        3.125911    0.519837   -0.828656
     26          6           0        3.017192    1.909344   -0.719108
     27          1           0        2.425646    3.572599    0.521847
     28          1           0        1.703346    2.132680    2.416670
     29          1           0        1.892739   -0.359452    2.233661
     30          1           0        3.517589    0.042202   -1.718528
     31          1           0        3.333496    2.535645   -1.548411
     32          7           0        2.823053   -1.732284    0.146105
     33          8           0        3.278256   -2.193201   -0.898395
     34          8           0        2.452203   -2.397398    1.110849
 ---------------------------------------------------------------------

 SCF Done:  E(RHF) =  -669.533996774     A.U. after   15 cycles
 E2 =    -0.2094285094D+01 EUMP2 =    -0.67162828186799D+03

 The electronic state is 1-A.
 Alpha  occ. eigenvalues --  -20.60823 -20.60813 -15.85867 -11.31193 -11.27818
 Alpha  occ. eigenvalues --  -11.27768 -11.27563 -11.26844 -11.26803 -11.21614
 Alpha  occ. eigenvalues --  -11.21451 -11.21375 -11.21312 -11.21061 -11.20868
 Alpha  occ. eigenvalues --   -1.59893  -1.39448  -1.19419  -1.08813  -1.08385
 Alpha  occ. eigenvalues --   -1.04821  -1.03469  -0.95936  -0.95638  -0.86955
 Alpha  occ. eigenvalues --   -0.86219  -0.82475  -0.79539  -0.78200  -0.77519
 Alpha  occ. eigenvalues --   -0.72089  -0.71225  -0.70532  -0.65069  -0.65026
 Alpha  occ. eigenvalues --   -0.64824  -0.62167  -0.60898  -0.59342  -0.57552
 Alpha  occ. eigenvalues --   -0.55397  -0.55326  -0.53469  -0.52913  -0.52393
 Alpha  occ. eigenvalues --   -0.52149  -0.49750  -0.48849  -0.48842  -0.47864
 Alpha  occ. eigenvalues --   -0.46537  -0.45736  -0.45667  -0.44855  -0.43737
 Alpha  occ. eigenvalues --   -0.37338  -0.36370
 Alpha virt. eigenvalues --    0.05004   0.11147   0.16496   0.21358   0.22865
 Alpha virt. eigenvalues --    0.24291   0.26660   0.27227   0.27475   0.28001
 Alpha virt. eigenvalues --    0.28299   0.30733   0.31423   0.31693   0.31924

 Mulliken charges:
               1
     1  C   -0.297657
     2  C   -0.300200
     3  C   -0.480247
     4  H    0.148527
     5  H    0.145325
     6  H    0.154080
     7  H    0.153545
     8  H    0.156378
     9  H    0.150444
    10  H    0.161081
    11  C   -0.298368
    12  C   -0.299312
    13  C   -0.475680
    14  H    0.151013
    15  H    0.150643
    16  H    0.151385
    17  H    0.149926
    18  H    0.155611
    19  H    0.156013
    20  H    0.159600
    21  C   -0.171458
    22  C   -0.219311
    23  C   -0.170810
    24  C    0.163758
    25  C   -0.172730
    26  C   -0.213126
    27  H    0.226078
    28  H    0.223661
    29  H    0.275572
    30  H    0.275527
    31  H    0.223943
    32  N    0.487974
    33  O   -0.460678
    34  O   -0.460507
 Sum of Mulliken charges =  -0.00000

 Dipole moment (field-independent basis, Debye):
    X=             -0.2680    Y=              5.1785    Z=              0.3893  Tot=              5.2000
 Quadrupole moment (field-independent basis, Debye-Ang):
   XX=            -97.6580   YY=            -98.2635   ZZ=            -89.7082
   XY=             14.4024   XZ=             -0.5108   YZ=              1.0163

 Normal termination of Gaussian 16 at Thu May  6 15:27:47 2021.
