 Gaussian 16, Revision A.03,
 Gaussian 16:  EM64L-G16RevA.03 25-Dec-2016

 -------------
 #p 6-31g* mp2
 -------------

 ------------------------------------------------------
 Input file generated by CHIRIPA (05-May-2021 14:51:13)
 ------------------------------------------------------
 Symbolic Z-matrix:
 Charge =  0 Multiplicity = 1

                         Standard orientation:
 ---------------------------------------------------------------------
 Center     Atomic      Atomic             Coordinates (Angstroms)
 Number     Number       Type             X           Y           Z
 ---------------------------------------------------------------------
      1          6           0       -4.375616    0.433427    0.176721
      2          6           0       -4.263143    1.934306   -0.092905
      3          6           0       -5.445833    2.725655    0.466385
      4          1           0       -5.310247    0.057622   -0.261661
      5          1           0       -4.449632    0.267171    1.260361
      6          1           0       -4.187968    2.097591   -1.175635
      7          1           0       -3.328577    2.306545    0.346004
      8          1           0       -5.520445    2.592284    1.550472
      9          1           0       -6.384719    2.382142    0.020188
     10          1           0       -5.344985    3.796209    0.262417
     11          6           0       -3.200687   -0.371162   -0.376367
     12          6           0       -3.313160   -1.872041   -0.106741
     13          6           0       -2.130470   -2.663390   -0.666031
     14          1           0       -3.126671   -0.204906   -1.460007
     15          1           0       -2.266056    0.004644    0.062015
     16          1           0       -4.247725   -2.244280   -0.545650
     17          1           0       -3.388334   -2.035325    0.975988
     18          1           0       -1.191583   -2.319877   -0.219834
     19          1           0       -2.055857   -2.530019   -1.750118
     20          1           0       -2.231318   -3.733944   -0.462063
     21          6           0        3.372672   -0.610692   -0.173893
     22          6           0        2.896656   -1.579894    0.908715
     23          6           0        2.066743   -2.733967    0.345553
     24          1           0        2.500120   -0.210265   -0.707987
     25          1           0        3.966564   -1.162997   -0.915275
     26          1           0        2.304997   -1.025668    1.648573
     27          1           0        3.770433   -1.977913    1.440420
     28          1           0        2.651365   -3.311943   -0.377469
     29          1           0        1.177603   -2.354288   -0.168135
     30          1           0        1.736819   -3.414608    1.136590
     31          6           0        4.203630    0.548426    0.373539
     32          6           0        4.679646    1.517629   -0.709069
     33          6           0        5.509561    2.671702   -0.145907
     34          1           0        3.609739    1.100732    1.114921
     35          1           0        5.076182    0.148000    0.907633
     36          1           0        3.805870    1.915648   -1.240775
     37          1           0        5.271305    0.963403   -1.448927
     38          1           0        6.398700    2.292023    0.367781
     39          1           0        4.924938    3.249678    0.577115
     40          1           0        5.839483    3.352342   -0.936944
 ---------------------------------------------------------------------

 SCF Done:  E(RHF) =  -470.733239914     A.U. after   11 cycles
 E2 =    -0.1582268699D+01 EUMP2 =    -0.47231550861298D+03

 The electronic state is 1-A.
 Alpha  occ. eigenvalues --  -11.21620 -11.21600 -11.21599 -11.21598 -11.21422
 Alpha  occ. eigenvalues --  -11.21403 -11.21362 -11.21344 -11.21085 -11.21071
 Alpha  occ. eigenvalues --  -11.21037 -11.21032  -1.08443  -1.08427  -1.03547
 Alpha  occ. eigenvalues --   -1.03514  -0.96013  -0.95946  -0.87050  -0.86943
 Alpha  occ. eigenvalues --   -0.79646  -0.79541  -0.78264  -0.78232  -0.65099
 Alpha  occ. eigenvalues --   -0.65038  -0.61041  -0.60835  -0.59356  -0.59334
 Alpha  occ. eigenvalues --   -0.57653  -0.57538  -0.55465  -0.55098  -0.52705
 Alpha  occ. eigenvalues --   -0.52645  -0.52516  -0.52290  -0.50130  -0.49715
 Alpha  occ. eigenvalues --   -0.48008  -0.47808  -0.46744  -0.46485  -0.45838
 Alpha  occ. eigenvalues --   -0.45753  -0.45729  -0.45646  -0.43798  -0.43772
 Alpha virt. eigenvalues --    0.22048   0.23051   0.23587   0.24788   0.26040
 Alpha virt. eigenvalues --    0.26834   0.26999   0.27607   0.27654   0.28894
 Alpha virt. eigenvalues --    0.30446   0.31690   0.31724   0.31869   0.32035

 Mulliken charges:
               1
     1  C   -0.298280
     2  C   -0.299638
     3  C   -0.475713
     4  H    0.149797
     5  H    0.149570
     6  H    0.151940
     7  H    0.151712
     8  H    0.155208
     9  H    0.155258
    10  H    0.160264
    11  C   -0.298215
    12  C   -0.299365
    13  C   -0.481560
    14  H    0.149523
    15  H    0.148847
    16  H    0.151932
    17  H    0.151905
    18  H    0.161082
    19  H    0.154910
    20  H    0.160777
    21  C   -0.298432
    22  C   -0.299485
    23  C   -0.481752
    24  H    0.149751
    25  H    0.149694
    26  H    0.151227
    27  H    0.151984
    28  H    0.155525
    29  H    0.161452
    30  H    0.160164
    31  C   -0.298257
    32  C   -0.299681
    33  C   -0.475699
    34  H    0.149322
    35  H    0.149669
    36  H    0.152014
    37  H    0.151978
    38  H    0.155173
    39  H    0.155124
    40  H    0.160274
 Sum of Mulliken charges =  -0.00000

 Dipole moment (field-independent basis, Debye):
    X=             -0.0008    Y=             -0.0129    Z=             -0.0080  Tot=              0.0152
 Quadrupole moment (field-independent basis, Debye-Ang):
   XX=            -84.8084   YY=            -85.7442   ZZ=            -84.1852
   XY=             -0.4179   XZ=              0.4329   YZ=             -0.2852

 Normal termination of Gaussian 16 at Thu May  6 03:59:16 2021.
