 Gaussian 16, Revision A.03,
 Gaussian 16:  EM64L-G16RevA.03 25-Dec-2016

 -------------
 #p 6-31g* mp2
 -------------

 ------------------------------------------------------
 Input file generated by CHIRIPA (05-May-2021 14:57:21)
 ------------------------------------------------------
 Symbolic Z-matrix:
 Charge =  0 Multiplicity = 1

                         Standard orientation:
 ---------------------------------------------------------------------
 Center     Atomic      Atomic             Coordinates (Angstroms)
 Number     Number       Type             X           Y           Z
 ---------------------------------------------------------------------
      1          6           0        0.801141    0.376298   -1.166757
      2          6           0        1.559270    1.388866   -0.569708
      3          6           0        2.835071    1.117674   -0.066383
      4          6           0        3.323926   -0.183094   -0.177349
      5          6           0        2.592872   -1.213365   -0.766749
      6          6           0        1.319448   -0.919301   -1.263202
      7          1           0       -0.189009    0.595849   -1.555082
      8          1           0        1.159294    2.395963   -0.493431
      9          1           0        3.443422    1.882666    0.400645
     10          1           0        3.018435   -2.207612   -0.828289
     11          1           0        0.732921   -1.707656   -1.726373
     12          7           0        4.673301   -0.482298    0.351860
     13          8           0        5.081317   -1.636447    0.241860
     14          8           0        5.297375    0.443000    0.866634
     15          6           0       -1.699697    2.223588    0.447569
     16          6           0       -2.616108    2.084921   -0.600040
     17          6           0       -3.398071    0.931362   -0.711315
     18          6           0       -3.237057   -0.068254    0.246878
     19          6           0       -2.332643    0.040365    1.302116
     20          6           0       -1.561134    1.202667    1.393635
     21          1           0       -1.096309    3.123096    0.526337
     22          1           0       -2.725841    2.876158   -1.336211
     23          1           0       -4.115139    0.797947   -1.512209
     24          1           0       -2.245631   -0.765486    2.020762
     25          1           0       -0.850236    1.307625    2.208284
     26          7           0       -4.059353   -1.294104    0.139533
     27          8           0       -3.898609   -2.160323    0.996541
     28          8           0       -4.849042   -1.365492   -0.799578
 ---------------------------------------------------------------------

 SCF Done:  E(RHF) =  -868.335446160     A.U. after   16 cycles
 E2 =    -0.2604125945D+01 EUMP2 =    -0.87093957210490D+03

 The electronic state is 1-A.
 Alpha  occ. eigenvalues --  -20.61657 -20.61645 -20.61038 -20.61027 -15.86711
 Alpha  occ. eigenvalues --  -15.86095 -11.32281 -11.31473 -11.28881 -11.28755
 Alpha  occ. eigenvalues --  -11.28602 -11.28145 -11.28053 -11.27943 -11.27788
 Alpha  occ. eigenvalues --  -11.27708 -11.27147 -11.26971  -1.60728  -1.60114
 Alpha  occ. eigenvalues --   -1.40273  -1.39666  -1.20481  -1.19673  -1.09861
 Alpha  occ. eigenvalues --   -1.09028  -1.05862  -1.05101  -0.96641  -0.95867
 Alpha  occ. eigenvalues --   -0.87248  -0.86493  -0.83433  -0.82720  -0.78437
 Alpha  occ. eigenvalues --   -0.77782  -0.72916  -0.72313  -0.72067  -0.71593
 Alpha  occ. eigenvalues --   -0.71443  -0.70764  -0.66092  -0.65830  -0.65321
 Alpha  occ. eigenvalues --   -0.65126  -0.63163  -0.62465  -0.56426  -0.55789
 Alpha  occ. eigenvalues --   -0.54158  -0.53909  -0.53209  -0.53143  -0.49695
 Alpha  occ. eigenvalues --   -0.49665  -0.49071  -0.49062  -0.45633  -0.45070
 Alpha  occ. eigenvalues --   -0.38803  -0.37885  -0.36992  -0.36570
 Alpha virt. eigenvalues --    0.04007   0.04784   0.09814   0.11253   0.15397
 Alpha virt. eigenvalues --    0.16243   0.19357   0.21828   0.25269   0.26410
 Alpha virt. eigenvalues --    0.28044   0.28743   0.29617   0.31604   0.31837

 Mulliken charges:
               1
     1  C   -0.166597
     2  C   -0.222834
     3  C   -0.173071
     4  C    0.156947
     5  C   -0.169688
     6  C   -0.222733
     7  H    0.232302
     8  H    0.211208
     9  H    0.273979
    10  H    0.277527
    11  H    0.227335
    12  N    0.488150
    13  O   -0.458885
    14  O   -0.461586
    15  C   -0.180025
    16  C   -0.227598
    17  C   -0.174707
    18  C    0.157364
    19  C   -0.170852
    20  C   -0.208851
    21  H    0.224798
    22  H    0.226432
    23  H    0.278755
    24  H    0.280304
    25  H    0.229848
    26  N    0.487537
    27  O   -0.456539
    28  O   -0.458518
 Sum of Mulliken charges =  -0.00000

 Dipole moment (field-independent basis, Debye):
    X=             -2.1037    Y=              5.1575    Z=             -1.3621  Tot=              5.7341
 Quadrupole moment (field-independent basis, Debye-Ang):
   XX=           -155.2966   YY=           -101.3668   ZZ=           -100.9186
   XY=            -10.3443   XZ=             -3.9185   YZ=              1.1900

 Normal termination of Gaussian 16 at Thu May  6 16:10:53 2021.
