 Gaussian 16, Revision A.03,
 Gaussian 16:  EM64L-G16RevA.03 25-Dec-2016

 -------------
 #p 6-31g* mp2
 -------------

 ------------------------------------------------------
 Input file generated by CHIRIPA (05-May-2021 14:57:27)
 ------------------------------------------------------
 Symbolic Z-matrix:
 Charge =  0 Multiplicity = 1

                         Standard orientation:
 ---------------------------------------------------------------------
 Center     Atomic      Atomic             Coordinates (Angstroms)
 Number     Number       Type             X           Y           Z
 ---------------------------------------------------------------------
      1          6           0        5.017228    2.262437    0.162941
      2          6           0        5.703992    1.137859   -0.306314
      3          6           0        5.071536   -0.107646   -0.363450
      4          6           0        3.745658   -0.192863    0.058538
      5          6           0        3.034655    0.909196    0.531011
      6          6           0        3.687096    2.144724    0.579371
      7          1           0        5.516297    3.226101    0.203917
      8          1           0        6.737048    1.226311   -0.630375
      9          1           0        5.579591   -0.994481   -0.722370
     10          1           0        2.005472    0.789775    0.847144
     11          1           0        3.151271    3.016386    0.944258
     12          7           0        3.065526   -1.506142    0.002696
     13          8           0        1.896903   -1.554836    0.380301
     14          8           0        3.713941   -2.461930   -0.417620
     15          6           0       -1.951379   -1.676328   -0.057697
     16          6           0       -1.733985   -0.359497   -0.476288
     17          6           0       -2.782881    0.564770   -0.485974
     18          6           0       -4.042053    0.136200   -0.068713
     19          6           0       -4.290265   -1.168828    0.353875
     20          6           0       -3.226578   -2.076085    0.355320
     21          1           0       -1.130826   -2.387713   -0.053374
     22          1           0       -0.744698   -0.046238   -0.797576
     23          1           0       -2.642480    1.590359   -0.805149
     24          1           0       -5.287488   -1.451589    0.668535
     25          1           0       -3.398333   -3.098109    0.680915
     26          7           0       -5.160302    1.105676   -0.074605
     27          8           0       -6.260302    0.703190    0.297743
     28          8           0       -4.915611    2.249679   -0.451459
 ---------------------------------------------------------------------

 SCF Done:  E(RHF) =  -868.340493878     A.U. after   16 cycles
 E2 =    -0.2598637847D+01 EUMP2 =    -0.87093913172470D+03

 The electronic state is 1-A.
 Alpha  occ. eigenvalues --  -20.61943 -20.61872 -20.60326 -20.60317 -15.86932
 Alpha  occ. eigenvalues --  -15.85374 -11.32009 -11.30540 -11.28561 -11.28510
 Alpha  occ. eigenvalues --  -11.28195 -11.27478 -11.27458 -11.27126 -11.27108
 Alpha  occ. eigenvalues --  -11.26564 -11.25989 -11.25963  -1.60963  -1.59406
 Alpha  occ. eigenvalues --   -1.40529  -1.38965  -1.20145  -1.18679  -1.09588
 Alpha  occ. eigenvalues --   -1.08054  -1.05503  -1.04071  -0.96475  -0.94930
 Alpha  occ. eigenvalues --   -0.86913  -0.85439  -0.83320  -0.81794  -0.78406
 Alpha  occ. eigenvalues --   -0.76914  -0.73176  -0.72263  -0.71592  -0.71242
 Alpha  occ. eigenvalues --   -0.70730  -0.69637  -0.65800  -0.65494  -0.64303
 Alpha  occ. eigenvalues --   -0.64034  -0.62856  -0.61434  -0.55996  -0.54372
 Alpha  occ. eigenvalues --   -0.53846  -0.53585  -0.52395  -0.52140  -0.49930
 Alpha  occ. eigenvalues --   -0.49879  -0.48363  -0.48328  -0.45991  -0.44417
 Alpha  occ. eigenvalues --   -0.38097  -0.37094  -0.36564  -0.35708
 Alpha virt. eigenvalues --    0.04079   0.05637   0.10546   0.11951   0.15635
 Alpha virt. eigenvalues --    0.17197   0.20437   0.22275   0.26015   0.27119
 Alpha virt. eigenvalues --    0.28474   0.29263   0.30472   0.31188   0.32517

 Mulliken charges:
               1
     1  C   -0.169649
     2  C   -0.218263
     3  C   -0.170194
     4  C    0.157931
     5  C   -0.173800
     6  C   -0.218240
     7  H    0.228990
     8  H    0.226301
     9  H    0.276934
    10  H    0.273558
    11  H    0.226737
    12  N    0.491292
    13  O   -0.473960
    14  O   -0.454598
    15  C   -0.172673
    16  C   -0.222521
    17  C   -0.173263
    18  C    0.157226
    19  C   -0.171608
    20  C   -0.220356
    21  H    0.246703
    22  H    0.224782
    23  H    0.270176
    24  H    0.273192
    25  H    0.222967
    26  N    0.488354
    27  O   -0.462019
    28  O   -0.463998
 Sum of Mulliken charges =  -0.00000

 Dipole moment (field-independent basis, Debye):
    X=              6.9214    Y=              1.0974    Z=              0.2203  Tot=              7.0113
 Quadrupole moment (field-independent basis, Debye-Ang):
   XX=           -113.6501   YY=           -104.4493   ZZ=           -105.1193
   XY=             32.7253   XZ=             -2.5957   YZ=              0.0904

 Normal termination of Gaussian 16 at Wed May  5 21:14:45 2021.
