 Gaussian 16, Revision A.03,
 Gaussian 16:  EM64L-G16RevA.03 25-Dec-2016

 -------------
 #p 6-31g* mp2
 -------------

 ------------------------------------------------------
 Input file generated by CHIRIPA (05-May-2021 14:57:22)
 ------------------------------------------------------
 Symbolic Z-matrix:
 Charge =  0 Multiplicity = 1

                         Standard orientation:
 ---------------------------------------------------------------------
 Center     Atomic      Atomic             Coordinates (Angstroms)
 Number     Number       Type             X           Y           Z
 ---------------------------------------------------------------------
      1          6           0       -5.786598    1.042701    0.315302
      2          6           0       -5.730050   -0.033366   -0.576553
      3          6           0       -4.554338   -0.776260   -0.719226
      4          6           0       -3.449073   -0.413799    0.049085
      5          6           0       -3.474133    0.652961    0.946127
      6          6           0       -4.660445    1.381832    1.072460
      7          1           0       -6.704037    1.614352    0.419787
      8          1           0       -6.603087   -0.299013   -1.165861
      9          1           0       -4.482960   -1.614037   -1.402200
     10          1           0       -2.587523    0.893820    1.519997
     11          1           0       -4.701468    2.217024    1.765869
     12          7           0       -2.198788   -1.192845   -0.093308
     13          8           0       -1.238831   -0.853296    0.595041
     14          8           0       -2.202447   -2.128260   -0.890568
     15          6           0        5.084271   -1.710880    0.509121
     16          6           0        5.667416   -0.445915    0.381357
     17          6           0        4.885260    0.667243    0.059395
     18          6           0        3.516971    0.478396   -0.128787
     19          6           0        2.906560   -0.769088   -0.008504
     20          6           0        3.708130   -1.868154    0.314125
     21          1           0        5.699409   -2.570135    0.759488
     22          1           0        6.735887   -0.320801    0.532230
     23          1           0        5.310761    1.657860   -0.045701
     24          1           0        1.838732   -0.862474   -0.164843
     25          1           0        3.252532   -2.849356    0.412699
     26          7           0        2.678662    1.649387   -0.469988
     27          8           0        1.475496    1.456559   -0.630760
     28          8           0        3.240633    2.737865   -0.570189
 ---------------------------------------------------------------------

 SCF Done:  E(RHF) =  -868.339870053     A.U. after   16 cycles
 E2 =    -0.2598761086D+01 EUMP2 =    -0.87093863113866D+03

 The electronic state is 1-A.
 Alpha  occ. eigenvalues --  -20.60757 -20.60688 -20.59922 -20.59881 -15.85735
 Alpha  occ. eigenvalues --  -15.84952 -11.30933 -11.30207 -11.27517 -11.27451
 Alpha  occ. eigenvalues --  -11.27237 -11.26885 -11.26607 -11.26593 -11.26503
 Alpha  occ. eigenvalues --  -11.26457 -11.25891 -11.25724  -1.59772  -1.58990
 Alpha  occ. eigenvalues --   -1.39327  -1.38537  -1.19097  -1.18404  -1.08532
 Alpha  occ. eigenvalues --   -1.07842  -1.04479  -1.03776  -0.95394  -0.94675
 Alpha  occ. eigenvalues --   -0.85887  -0.85188  -0.82232  -0.81497  -0.77288
 Alpha  occ. eigenvalues --   -0.76530  -0.71981  -0.71191  -0.71036  -0.70313
 Alpha  occ. eigenvalues --   -0.70219  -0.69515  -0.64761  -0.64493  -0.64057
 Alpha  occ. eigenvalues --   -0.63784  -0.61826  -0.61084  -0.55010  -0.54337
 Alpha  occ. eigenvalues --   -0.52813  -0.52576  -0.52149  -0.51856  -0.48740
 Alpha  occ. eigenvalues --   -0.48729  -0.47952  -0.47911  -0.44753  -0.43965
 Alpha  occ. eigenvalues --   -0.37077  -0.36436  -0.36069  -0.35383
 Alpha virt. eigenvalues --    0.05233   0.05967   0.11588   0.12261   0.16737
 Alpha virt. eigenvalues --    0.17448   0.21688   0.22418   0.27621   0.28317
 Alpha virt. eigenvalues --    0.28584   0.29392   0.31245   0.31903   0.32820

 Mulliken charges:
               1
     1  C   -0.170207
     2  C   -0.218855
     3  C   -0.170557
     4  C    0.158574
     5  C   -0.167676
     6  C   -0.218708
     7  H    0.225172
     8  H    0.222492
     9  H    0.274280
    10  H    0.279228
    11  H    0.224205
    12  N    0.490689
    13  O   -0.461114
    14  O   -0.463944
    15  C   -0.171034
    16  C   -0.219966
    17  C   -0.171913
    18  C    0.154818
    19  C   -0.176133
    20  C   -0.221584
    21  H    0.222389
    22  H    0.219420
    23  H    0.271953
    24  H    0.298133
    25  H    0.226323
    26  N    0.486968
    27  O   -0.455915
    28  O   -0.467036
 Sum of Mulliken charges =  -0.00000

 Dipole moment (field-independent basis, Debye):
    X=             -1.8062    Y=             -1.4272    Z=              1.7333  Tot=              2.8816
 Quadrupole moment (field-independent basis, Debye-Ang):
   XX=            -51.8082   YY=           -108.8779   ZZ=           -104.1381
   XY=            -17.4810   XZ=              3.7157   YZ=              3.5648

 Normal termination of Gaussian 16 at Thu May  6 19:32:59 2021.
