 Gaussian 16, Revision A.03,
 Gaussian 16:  EM64L-G16RevA.03 25-Dec-2016

 -------------
 #p 6-31g* mp2
 -------------

 ------------------------------------------------------
 Input file generated by CHIRIPA (05-May-2021 14:57:23)
 ------------------------------------------------------
 Symbolic Z-matrix:
 Charge =  0 Multiplicity = 1

                         Standard orientation:
 ---------------------------------------------------------------------
 Center     Atomic      Atomic             Coordinates (Angstroms)
 Number     Number       Type             X           Y           Z
 ---------------------------------------------------------------------
      1          6           0       -1.472745    2.392774    0.555493
      2          6           0       -2.481820    1.851690    1.358934
      3          6           0       -3.199196    0.728192    0.937423
      4          6           0       -2.879807    0.168661   -0.298784
      5          6           0       -1.880025    0.684613   -1.121899
      6          6           0       -1.175592    1.808539   -0.680181
      7          1           0       -0.920498    3.265700    0.890782
      8          1           0       -2.714750    2.303329    2.319044
      9          1           0       -3.985314    0.288883    1.539455
     10          1           0       -1.670562    0.212414   -2.074040
     11          1           0       -0.392448    2.226611   -1.306237
     12          7           0       -3.632409   -1.020962   -0.755715
     13          8           0       -3.331833   -1.495351   -1.848988
     14          8           0       -4.508624   -1.456475   -0.011932
     15          6           0        0.961564   -1.634136    1.462567
     16          6           0        2.067325   -2.314185    0.941660
     17          6           0        3.067493   -1.621052    0.253343
     18          6           0        2.929226   -0.242003    0.103685
     19          6           0        1.839484    0.463871    0.611124
     20          6           0        0.851366   -0.249719    1.295930
     21          1           0        0.189290   -2.180524    1.995905
     22          1           0        2.155540   -3.389315    1.069559
     23          1           0        3.934086   -2.122530   -0.160122
     24          1           0        1.779298    1.535887    0.467677
     25          1           0       -0.006277    0.281036    1.699406
     26          7           0        3.981680    0.502614   -0.623148
     27          8           0        3.836438    1.717327   -0.741530
     28          8           0        4.931907   -0.142568   -1.060695
 ---------------------------------------------------------------------

 SCF Done:  E(RHF) =  -868.336332689     A.U. after   16 cycles
 E2 =    -0.2604459173D+01 EUMP2 =    -0.87094079186152D+03

 The electronic state is 1-A.
 Alpha  occ. eigenvalues --  -20.61533 -20.61516 -20.61130 -20.61095 -15.86581
 Alpha  occ. eigenvalues --  -15.86159 -11.32110 -11.31417 -11.28706 -11.28574
 Alpha  occ. eigenvalues --  -11.28370 -11.27964 -11.27879 -11.27752 -11.27581
 Alpha  occ. eigenvalues --  -11.27548 -11.26889 -11.26772  -1.60601  -1.60190
 Alpha  occ. eigenvalues --   -1.40147  -1.39749  -1.20308  -1.19532  -1.09675
 Alpha  occ. eigenvalues --   -1.08938  -1.05690  -1.04905  -0.96461  -0.95809
 Alpha  occ. eigenvalues --   -0.87070  -0.86315  -0.83259  -0.82648  -0.78287
 Alpha  occ. eigenvalues --   -0.77740  -0.72789  -0.72379  -0.71933  -0.71514
 Alpha  occ. eigenvalues --   -0.71354  -0.70641  -0.65912  -0.65665  -0.65176
 Alpha  occ. eigenvalues --   -0.64914  -0.62989  -0.62347  -0.56158  -0.55446
 Alpha  occ. eigenvalues --   -0.54307  -0.53729  -0.53187  -0.52628  -0.49564
 Alpha  occ. eigenvalues --   -0.49539  -0.49151  -0.49112  -0.45515  -0.45179
 Alpha  occ. eigenvalues --   -0.38352  -0.37715  -0.37448  -0.36040
 Alpha virt. eigenvalues --    0.04143   0.04801   0.10178   0.11197   0.15542
 Alpha virt. eigenvalues --    0.16443   0.19982   0.21841   0.25664   0.27092
 Alpha virt. eigenvalues --    0.27896   0.29124   0.30239   0.30969   0.31621

 Mulliken charges:
               1
     1  C   -0.186461
     2  C   -0.224368
     3  C   -0.174942
     4  C    0.158210
     5  C   -0.166381
     6  C   -0.217181
     7  H    0.230510
     8  H    0.227132
     9  H    0.277731
    10  H    0.280737
    11  H    0.233818
    12  N    0.487477
    13  O   -0.456299
    14  O   -0.459852
    15  C   -0.174697
    16  C   -0.216853
    17  C   -0.172534
    18  C    0.158475
    19  C   -0.176585
    20  C   -0.216447
    21  H    0.228119
    22  H    0.225624
    23  H    0.275943
    24  H    0.263542
    25  H    0.230603
    26  N    0.488350
    27  O   -0.465799
    28  O   -0.457873
 Sum of Mulliken charges =  -0.00000

 Dipole moment (field-independent basis, Debye):
    X=             -1.2975    Y=              1.4602    Z=              4.0111  Tot=              4.4614
 Quadrupole moment (field-independent basis, Debye-Ang):
   XX=           -140.1533   YY=            -99.0765   ZZ=           -102.4282
   XY=            -21.3476   XZ=             -1.1578   YZ=             -1.2183

 Normal termination of Gaussian 16 at Thu May  6 14:38:39 2021.
