 Gaussian 16, Revision A.03,
 Gaussian 16:  EM64L-G16RevA.03 25-Dec-2016

 -------------
 #p 6-31g* mp2
 -------------

 ------------------------------------------------------
 Input file generated by CHIRIPA (05-May-2021 14:51:10)
 ------------------------------------------------------
 Symbolic Z-matrix:
 Charge =  0 Multiplicity = 1

                         Standard orientation:
 ---------------------------------------------------------------------
 Center     Atomic      Atomic             Coordinates (Angstroms)
 Number     Number       Type             X           Y           Z
 ---------------------------------------------------------------------
      1          6           0        4.353757   -0.300245    0.063504
      2          6           0        5.777527   -0.470492   -0.467420
      3          6           0        6.342442   -1.867241   -0.207116
      4          1           0        4.344637   -0.505751    1.142684
      5          1           0        3.703317   -1.052737   -0.403485
      6          1           0        6.424806    0.282988   -0.000608
      7          1           0        5.783294   -0.264369   -1.545425
      8          1           0        5.720544   -2.629892   -0.686915
      9          1           0        6.365701   -2.079424    0.866680
     10          1           0        7.361081   -1.966973   -0.594786
     11          6           0        3.775270    1.090882   -0.189172
     12          6           0        2.351500    1.261129    0.341752
     13          6           0        1.786585    2.657878    0.081448
     14          1           0        4.425710    1.843374    0.277817
     15          1           0        3.784390    1.296389   -1.268351
     16          1           0        2.345732    1.055006    1.419757
     17          1           0        1.704220    0.507649   -0.125060
     18          1           0        1.763326    2.870062   -0.992348
     19          1           0        2.408483    3.420529    0.561247
     20          1           0        0.767946    2.757611    0.469118
     21          6           0       -3.356479   -0.137473    0.187876
     22          6           0       -2.328389   -1.254059    0.372949
     23          6           0       -0.916651   -0.722411    0.622228
     24          1           0       -3.049245    0.499496   -0.652852
     25          1           0       -3.357110    0.502588    1.081026
     26          1           0       -2.330681   -1.892631   -0.519708
     27          1           0       -2.638208   -1.888555    1.213212
     28          1           0       -0.892293   -0.101961    1.523921
     29          1           0       -0.583020   -0.106059   -0.218846
     30          1           0       -0.197769   -1.537457    0.751718
     31          6           0       -4.772547   -0.653164   -0.062208
     32          6           0       -5.800638    0.463421   -0.247281
     33          6           0       -7.212376   -0.068227   -0.496559
     34          1           0       -4.771917   -1.293225   -0.955359
     35          1           0       -5.079782   -1.290133    0.778518
     36          1           0       -5.490819    1.097918   -1.087544
     37          1           0       -5.798345    1.101993    0.645376
     38          1           0       -7.546007   -0.684578    0.344513
     39          1           0       -7.236734   -0.688675   -1.398253
     40          1           0       -7.931257    0.746820   -0.626051
 ---------------------------------------------------------------------

 SCF Done:  E(RHF) =  -470.732858486     A.U. after   11 cycles
 E2 =    -0.1582798445D+01 EUMP2 =    -0.47231565693117D+03

 The electronic state is 1-A.
 Alpha  occ. eigenvalues --  -11.21606 -11.21596 -11.21562 -11.21428 -11.21412
 Alpha  occ. eigenvalues --  -11.21353 -11.21337 -11.21268 -11.21075 -11.21062
 Alpha  occ. eigenvalues --  -11.21043 -11.20989  -1.08438  -1.08354  -1.03553
 Alpha  occ. eigenvalues --   -1.03441  -0.96007  -0.95898  -0.87021  -0.86921
 Alpha  occ. eigenvalues --   -0.79702  -0.79432  -0.78275  -0.78130  -0.65088
 Alpha  occ. eigenvalues --   -0.64977  -0.61022  -0.60788  -0.59357  -0.59289
 Alpha  occ. eigenvalues --   -0.57687  -0.57435  -0.55329  -0.55160  -0.52712
 Alpha  occ. eigenvalues --   -0.52605  -0.52403  -0.52324  -0.50004  -0.49807
 Alpha  occ. eigenvalues --   -0.48012  -0.47749  -0.46756  -0.46427  -0.45863
 Alpha  occ. eigenvalues --   -0.45729  -0.45678  -0.45488  -0.43784  -0.43694
 Alpha virt. eigenvalues --    0.22023   0.23034   0.23592   0.24873   0.26241
 Alpha virt. eigenvalues --    0.26625   0.26947   0.27333   0.27968   0.29184
 Alpha virt. eigenvalues --    0.30541   0.31240   0.31683   0.31862   0.32164

 Mulliken charges:
               1
     1  C   -0.298148
     2  C   -0.299531
     3  C   -0.475654
     4  H    0.149525
     5  H    0.149223
     6  H    0.151874
     7  H    0.151770
     8  H    0.155025
     9  H    0.155099
    10  H    0.160104
    11  C   -0.297758
    12  C   -0.304605
    13  C   -0.476834
    14  H    0.148896
    15  H    0.148875
    16  H    0.151313
    17  H    0.160279
    18  H    0.154116
    19  H    0.154823
    20  H    0.160957
    21  C   -0.298461
    22  C   -0.300481
    23  C   -0.476555
    24  H    0.149688
    25  H    0.149411
    26  H    0.151654
    27  H    0.151837
    28  H    0.155934
    29  H    0.156993
    30  H    0.160504
    31  C   -0.298237
    32  C   -0.299651
    33  C   -0.475709
    34  H    0.149493
    35  H    0.149691
    36  H    0.151962
    37  H    0.151939
    38  H    0.155185
    39  H    0.155169
    40  H    0.160284
 Sum of Mulliken charges =  -0.00000

 Dipole moment (field-independent basis, Debye):
    X=             -0.0331    Y=             -0.0170    Z=              0.0089  Tot=              0.0383
 Quadrupole moment (field-independent basis, Debye-Ang):
   XX=            -86.3224   YY=            -85.7780   ZZ=            -82.9783
   XY=              0.3402   XZ=             -0.0950   YZ=              0.3661

 Normal termination of Gaussian 16 at Wed May  5 21:23:29 2021.
