 Gaussian 16, Revision A.03,
 Gaussian 16:  EM64L-G16RevA.03 25-Dec-2016

 -------------
 #p 6-31g* mp2
 -------------

 ------------------------------------------------------
 Input file generated by CHIRIPA (05-May-2021 14:57:26)
 ------------------------------------------------------
 Symbolic Z-matrix:
 Charge =  0 Multiplicity = 1

                         Standard orientation:
 ---------------------------------------------------------------------
 Center     Atomic      Atomic             Coordinates (Angstroms)
 Number     Number       Type             X           Y           Z
 ---------------------------------------------------------------------
      1          6           0       -4.919826   -2.341101   -0.150335
      2          6           0       -3.662642   -2.163870    0.436690
      3          6           0       -3.100842   -0.887845    0.540083
      4          6           0       -3.827115    0.193578    0.043756
      5          6           0       -5.081775    0.049342   -0.546425
      6          6           0       -5.624138   -1.235878   -0.639157
      7          1           0       -5.348696   -3.335920   -0.226512
      8          1           0       -3.113393   -3.020375    0.817176
      9          1           0       -2.129422   -0.722100    0.989850
     10          1           0       -5.605368    0.922384   -0.916647
     11          1           0       -6.600677   -1.370527   -1.095540
     12          7           0       -3.242650    1.549316    0.147571
     13          8           0       -3.902696    2.485811   -0.297347
     14          8           0       -2.135568    1.649776    0.671893
     15          6           0        2.320476    1.973480    0.110405
     16          6           0        3.669680    2.198160   -0.182315
     17          6           0        4.566823    1.128801   -0.260777
     18          6           0        4.078410   -0.158038   -0.039896
     19          6           0        2.739937   -0.414169    0.253664
     20          6           0        1.860720    0.670329    0.327078
     21          1           0        1.630517    2.810063    0.169395
     22          1           0        4.029540    3.209137   -0.351048
     23          1           0        5.616427    1.274262   -0.485700
     24          1           0        2.410788   -1.433190    0.416989
     25          1           0        0.813444    0.492855    0.554585
     26          7           0        5.018686   -1.298133   -0.120289
     27          8           0        4.563424   -2.422361    0.078425
     28          8           0        6.193131   -1.045926   -0.380491
 ---------------------------------------------------------------------

 SCF Done:  E(RHF) =  -868.339867434     A.U. after   16 cycles
 E2 =    -0.2598528722D+01 EUMP2 =    -0.87093839615601D+03

 The electronic state is 1-A.
 Alpha  occ. eigenvalues --  -20.61786 -20.61723 -20.60447 -20.60437 -15.86789
 Alpha  occ. eigenvalues --  -15.85492 -11.31915 -11.30695 -11.28503 -11.28414
 Alpha  occ. eigenvalues --  -11.28107 -11.27405 -11.27374 -11.27252 -11.27244
 Alpha  occ. eigenvalues --  -11.26800 -11.26186 -11.26093  -1.60811  -1.59524
 Alpha  occ. eigenvalues --   -1.40378  -1.39083  -1.20053  -1.18829  -1.09483
 Alpha  occ. eigenvalues --   -1.08219  -1.05424  -1.04215  -0.96366  -0.95093
 Alpha  occ. eigenvalues --   -0.86831  -0.85590  -0.83213  -0.81945  -0.78299
 Alpha  occ. eigenvalues --   -0.77041  -0.73025  -0.72111  -0.71713  -0.71157
 Alpha  occ. eigenvalues --   -0.70845  -0.69864  -0.65711  -0.65419  -0.64463
 Alpha  occ. eigenvalues --   -0.64171  -0.62786  -0.61567  -0.55911  -0.54600
 Alpha  occ. eigenvalues --   -0.53756  -0.53513  -0.52547  -0.52281  -0.49786
 Alpha  occ. eigenvalues --   -0.49735  -0.48481  -0.48450  -0.45830  -0.44526
 Alpha  occ. eigenvalues --   -0.38000  -0.37013  -0.36750  -0.35833
 Alpha virt. eigenvalues --    0.04213   0.05491   0.10639   0.11842   0.15760
 Alpha virt. eigenvalues --    0.17052   0.19897   0.22042   0.25162   0.27117
 Alpha virt. eigenvalues --    0.28690   0.29033   0.30137   0.31094   0.32600

 Mulliken charges:
               1
     1  C   -0.169658
     2  C   -0.218238
     3  C   -0.170996
     4  C    0.158663
     5  C   -0.170227
     6  C   -0.218168
     7  H    0.228864
     8  H    0.226302
     9  H    0.270204
    10  H    0.276862
    11  H    0.226107
    12  N    0.491292
    13  O   -0.455167
    14  O   -0.473455
    15  C   -0.172542
    16  C   -0.219164
    17  C   -0.172073
    18  C    0.158233
    19  C   -0.172982
    20  C   -0.224551
    21  H    0.236947
    22  H    0.222788
    23  H    0.273681
    24  H    0.269493
    25  H    0.234688
    26  N    0.488326
    27  O   -0.463763
    28  O   -0.461466
 Sum of Mulliken charges =  -0.00000

 Dipole moment (field-independent basis, Debye):
    X=             -5.8581    Y=             -0.6718    Z=             -0.1354  Tot=              5.8980
 Quadrupole moment (field-independent basis, Debye-Ang):
   XX=           -109.9921   YY=           -105.5892   ZZ=           -105.2618
   XY=             36.7259   XZ=              4.0784   YZ=             -2.2620

 Normal termination of Gaussian 16 at Thu May  6 19:47:13 2021.
