 Gaussian 16, Revision A.03,
 Gaussian 16:  EM64L-G16RevA.03 25-Dec-2016

 -------------
 #p 6-31g* mp2
 -------------

 ------------------------------------------------------
 Input file generated by CHIRIPA (05-May-2021 14:55:22)
 ------------------------------------------------------
 Symbolic Z-matrix:
 Charge =  0 Multiplicity = 1

                         Standard orientation:
 ---------------------------------------------------------------------
 Center     Atomic      Atomic             Coordinates (Angstroms)
 Number     Number       Type             X           Y           Z
 ---------------------------------------------------------------------
      1          6           0       -4.112754   -2.364758   -0.090646
      2          6           0       -5.088839   -1.444167   -0.485983
      3          6           0       -4.829088   -0.071156   -0.442195
      4          6           0       -3.576838    0.348189    0.004247
      5          6           0       -2.583733   -0.544329    0.404803
      6          6           0       -2.865515   -1.912698    0.352704
      7          1           0       -4.323091   -3.429543   -0.127890
      8          1           0       -6.058348   -1.792370   -0.830731
      9          1           0       -5.566557    0.663321   -0.742365
     10          1           0       -1.626630   -0.166958    0.743863
     11          1           0       -2.105569   -2.625357    0.660345
     12          7           0       -3.290190    1.799277    0.055003
     13          8           0       -2.179061    2.143168    0.452203
     14          8           0       -4.182071    2.565272   -0.303377
     15          6           0        5.260692   -0.109875   -0.437255
     16          6           0        6.546559    0.168702    0.341800
     17          6           0        7.781992    0.225123   -0.557264
     18          1           0        5.365905   -1.060213   -0.978305
     19          1           0        5.125534    0.670269   -1.199162
     20          1           0        6.678529   -0.610968    1.102928
     21          1           0        6.438201    1.118392    0.881210
     22          1           0        7.676289    1.014850   -1.308102
     23          1           0        7.917984   -0.724335   -1.085126
     24          1           0        8.689926    0.425329    0.020173
     25          6           0        4.016955   -0.169246    0.447798
     26          6           0        2.731088   -0.447823   -0.331257
     27          6           0        1.495655   -0.504244    0.567806
     28          1           0        4.152113   -0.949390    1.209704
     29          1           0        3.911741    0.781091    0.988847
     30          1           0        2.839446   -1.397514   -0.870668
     31          1           0        2.599118    0.331846   -1.092385
     32          1           0        1.359664    0.445214    1.095668
     33          1           0        1.601358   -1.293972    1.318645
     34          1           0        0.587722   -0.704451   -0.009631
 ---------------------------------------------------------------------

 SCF Done:  E(RHF) =  -669.535624164     A.U. after   15 cycles
 E2 =    -0.2091075735D+01 EUMP2 =    -0.67162669989839D+03

 The electronic state is 1-A.
 Alpha  occ. eigenvalues --  -20.60729 -20.60724 -15.85781 -11.31130 -11.27717
 Alpha  occ. eigenvalues --  -11.27650 -11.27461 -11.26734 -11.26712 -11.21771
 Alpha  occ. eigenvalues --  -11.21604 -11.21465 -11.21435 -11.21390 -11.21061
 Alpha  occ. eigenvalues --   -1.59804  -1.39357  -1.19311  -1.08711  -1.08504
 Alpha  occ. eigenvalues --   -1.04714  -1.03642  -0.96118  -0.95544  -0.87149
 Alpha  occ. eigenvalues --   -0.86108  -0.82377  -0.79715  -0.78302  -0.77420
 Alpha  occ. eigenvalues --   -0.72001  -0.71127  -0.70428  -0.65125  -0.64965
 Alpha  occ. eigenvalues --   -0.64722  -0.62106  -0.61024  -0.59476  -0.57711
 Alpha  occ. eigenvalues --   -0.55384  -0.55223  -0.53109  -0.52990  -0.52593
 Alpha  occ. eigenvalues --   -0.52506  -0.50032  -0.48759  -0.48753  -0.48024
 Alpha  occ. eigenvalues --   -0.46712  -0.45851  -0.45757  -0.44766  -0.43901
 Alpha  occ. eigenvalues --   -0.37299  -0.36311
 Alpha virt. eigenvalues --    0.05080   0.11312   0.16562   0.20908   0.22866
 Alpha virt. eigenvalues --    0.24126   0.26139   0.26599   0.27452   0.27970
 Alpha virt. eigenvalues --    0.29105   0.30479   0.31407   0.31720   0.31952

 Mulliken charges:
               1
     1  C   -0.170624
     2  C   -0.218830
     3  C   -0.170536
     4  C    0.158368
     5  C   -0.178172
     6  C   -0.221293
     7  H    0.225368
     8  H    0.223246
     9  H    0.275389
    10  H    0.286325
    11  H    0.224050
    12  N    0.487542
    13  O   -0.460442
    14  O   -0.460690
    15  C   -0.298627
    16  C   -0.299839
    17  C   -0.475810
    18  H    0.148731
    19  H    0.151239
    20  H    0.151299
    21  H    0.153257
    22  H    0.155959
    23  H    0.154624
    24  H    0.160482
    25  C   -0.299323
    26  C   -0.299089
    27  C   -0.483066
    28  H    0.148214
    29  H    0.152962
    30  H    0.150132
    31  H    0.157308
    32  H    0.166818
    33  H    0.151620
    34  H    0.153411
 Sum of Mulliken charges =  -0.00000

 Dipole moment (field-independent basis, Debye):
    X=             -0.9031    Y=             -5.0347    Z=             -0.1784  Tot=              5.1182
 Quadrupole moment (field-independent basis, Debye-Ang):
   XX=            -84.1236   YY=            -97.8127   ZZ=            -95.2320
   XY=             17.1712   XZ=              3.0082   YZ=             -0.5306

 Normal termination of Gaussian 16 at Thu May  6 04:39:28 2021.
