 Gaussian 16, Revision A.03,
 Gaussian 16:  EM64L-G16RevA.03 25-Dec-2016

 -------------
 #p 6-31g* mp2
 -------------

 ------------------------------------------------------
 Input file generated by CHIRIPA (05-May-2021 14:53:15)
 ------------------------------------------------------
 Symbolic Z-matrix:
 Charge =  0 Multiplicity = 1

                         Standard orientation:
 ---------------------------------------------------------------------
 Center     Atomic      Atomic             Coordinates (Angstroms)
 Number     Number       Type             X           Y           Z
 ---------------------------------------------------------------------
      1          6           0        4.449036   -0.352430   -0.158815
      2          6           0        4.213823   -1.659371    0.599187
      3          6           0        5.108733   -2.797336    0.107288
      4          1           0        4.274674   -0.520944   -1.230331
      5          1           0        5.503625   -0.061563   -0.055694
      6          1           0        3.159677   -1.946960    0.495819
      7          1           0        4.388579   -1.487678    1.669045
      8          1           0        6.165120   -2.535448    0.225869
      9          1           0        4.929235   -2.997339   -0.954023
     10          1           0        4.924040   -3.722105    0.662762
     11          6           0        3.561755    0.794619    0.321538
     12          6           0        3.796968    2.101559   -0.436463
     13          6           0        2.902059    3.239525    0.055436
     14          1           0        2.507166    0.503752    0.218417
     15          1           0        3.736117    0.963133    1.393054
     16          1           0        3.622213    1.929867   -1.506322
     17          1           0        4.851114    2.389149   -0.333095
     18          1           0        3.081556    3.439528    1.116747
     19          1           0        1.845672    2.977637   -0.063146
     20          1           0        3.086751    4.164293   -0.500039
     21          6           0       -0.637424   -0.336815   -0.424089
     22          6           0       -1.222669    0.899832   -0.133032
     23          6           0       -2.602282    1.002553    0.068622
     24          6           0       -3.370113   -0.156867   -0.028709
     25          6           0       -2.816535   -1.403301   -0.317229
     26          6           0       -1.434819   -1.482415   -0.515098
     27          1           0        0.435109   -0.407442   -0.579269
     28          1           0       -0.605865    1.791188   -0.061739
     29          1           0       -3.081402    1.947278    0.295242
     30          1           0       -3.457352   -2.274277   -0.381811
     31          1           0       -0.983041   -2.444137   -0.741000
     32          7           0       -4.831760   -0.060617    0.182769
     33          8           0       -5.486305   -1.096901    0.091542
     34          8           0       -5.295177    1.049286    0.435748
 ---------------------------------------------------------------------

 SCF Done:  E(RHF) =  -669.535291767     A.U. after   15 cycles
 E2 =    -0.2091840611D+01 EUMP2 =    -0.67162713237793D+03

 The electronic state is 1-A.
 Alpha  occ. eigenvalues --  -20.60741 -20.60736 -15.85795 -11.31162 -11.27732
 Alpha  occ. eigenvalues --  -11.27728 -11.27461 -11.26750 -11.26740 -11.22652
 Alpha  occ. eigenvalues --  -11.22566 -11.22557 -11.22373 -11.22176 -11.21854
 Alpha  occ. eigenvalues --   -1.59817  -1.39370  -1.19335  -1.09488  -1.08730
 Alpha  occ. eigenvalues --   -1.04739  -1.04521  -0.96975  -0.95567  -0.87985
 Alpha  occ. eigenvalues --   -0.86139  -0.82401  -0.80583  -0.79302  -0.77444
 Alpha  occ. eigenvalues --   -0.72013  -0.71140  -0.70476  -0.66141  -0.64987
 Alpha  occ. eigenvalues --   -0.64742  -0.62128  -0.61884  -0.60329  -0.58582
 Alpha  occ. eigenvalues --   -0.56338  -0.55223  -0.53629  -0.53392  -0.53066
 Alpha  occ. eigenvalues --   -0.52825  -0.50914  -0.48896  -0.48769  -0.48767
 Alpha  occ. eigenvalues --   -0.47630  -0.46825  -0.46755  -0.44789  -0.44775
 Alpha  occ. eigenvalues --   -0.37312  -0.36342
 Alpha virt. eigenvalues --    0.05083   0.11304   0.16525   0.17844   0.21878
 Alpha virt. eigenvalues --    0.23303   0.24883   0.25194   0.26272   0.27962
 Alpha virt. eigenvalues --    0.29385   0.30859   0.31039   0.31251   0.31595

 Mulliken charges:
               1
     1  C   -0.299442
     2  C   -0.299154
     3  C   -0.476353
     4  H    0.149166
     5  H    0.154214
     6  H    0.144746
     7  H    0.155626
     8  H    0.158078
     9  H    0.155243
    10  H    0.162627
    11  C   -0.302714
    12  C   -0.300820
    13  C   -0.477477
    14  H    0.140405
    15  H    0.155095
    16  H    0.152637
    17  H    0.157153
    18  H    0.159607
    19  H    0.146750
    20  H    0.165641
    21  C   -0.177189
    22  C   -0.225169
    23  C   -0.171694
    24  C    0.158699
    25  C   -0.170865
    26  C   -0.219406
    27  H    0.233287
    28  H    0.229067
    29  H    0.276119
    30  H    0.275483
    31  H    0.223566
    32  N    0.487986
    33  O   -0.460518
    34  O   -0.460392
 Sum of Mulliken charges =  -0.00000

 Dipole moment (field-independent basis, Debye):
    X=              5.4422    Y=             -0.2991    Z=             -0.7025  Tot=              5.4955
 Quadrupole moment (field-independent basis, Debye-Ang):
   XX=           -128.4908   YY=            -90.1623   ZZ=            -95.0083
   XY=              1.7528   XZ=              3.2520   YZ=              1.0054

 Normal termination of Gaussian 16 at Thu May  6 02:40:11 2021.
