 Gaussian 16, Revision A.03,
 Gaussian 16:  EM64L-G16RevA.03 25-Dec-2016

 -------------
 #p 6-31g* mp2
 -------------

 ------------------------------------------------------
 Input file generated by CHIRIPA (05-May-2021 14:53:18)
 ------------------------------------------------------
 Symbolic Z-matrix:
 Charge =  0 Multiplicity = 1

                         Standard orientation:
 ---------------------------------------------------------------------
 Center     Atomic      Atomic             Coordinates (Angstroms)
 Number     Number       Type             X           Y           Z
 ---------------------------------------------------------------------
      1          6           0       -2.014187    1.095865   -0.122389
      2          6           0       -1.869671    2.424199    0.621002
      3          6           0       -0.479898    3.041791    0.463192
      4          1           0       -1.254835    0.392446    0.245758
      5          1           0       -1.801727    1.255371   -1.188603
      6          1           0       -2.083692    2.262508    1.685270
      7          1           0       -2.629578    3.124475    0.251178
      8          1           0       -0.260292    3.231609   -0.592432
      9          1           0        0.288696    2.364744    0.849808
     10          1           0       -0.398627    3.990646    1.002571
     11          6           0       -3.398076    0.466103    0.025867
     12          6           0       -3.542592   -0.862230   -0.717524
     13          6           0       -4.932365   -1.479823   -0.559714
     14          1           0       -3.610536    0.306597    1.092081
     15          1           0       -4.157427    1.169522   -0.342280
     16          1           0       -2.782684   -1.562507   -0.347700
     17          1           0       -3.328571   -0.700539   -1.781792
     18          1           0       -5.700959   -0.802775   -0.946330
     19          1           0       -5.151971   -1.669640    0.495911
     20          1           0       -5.013636   -2.428678   -1.099092
     21          6           0        1.034311   -2.680705    0.993012
     22          6           0        1.446306   -2.659233   -0.343520
     23          6           0        2.045750   -1.517446   -0.883461
     24          6           0        2.218562   -0.409970   -0.054652
     25          6           0        1.818722   -0.400522    1.280762
     26          6           0        1.221505   -1.553269    1.799467
     27          1           0        0.569514   -3.571930    1.404203
     28          1           0        1.302196   -3.533352   -0.972164
     29          1           0        2.374090   -1.473610   -1.914813
     30          1           0        1.975723    0.486257    1.882750
     31          1           0        0.902528   -1.567092    2.837786
     32          7           0        2.851987    0.804591   -0.615022
     33          8           0        2.992967    1.767265    0.135992
     34          8           0        3.195493    0.770892   -1.794643
 ---------------------------------------------------------------------

 SCF Done:  E(RHF) =  -669.535763179     A.U. after   15 cycles
 E2 =    -0.2093539224D+01 EUMP2 =    -0.67162930240278D+03

 The electronic state is 1-A.
 Alpha  occ. eigenvalues --  -20.60885 -20.60865 -15.85902 -11.31296 -11.27879
 Alpha  occ. eigenvalues --  -11.27847 -11.27615 -11.26904 -11.26875 -11.21760
 Alpha  occ. eigenvalues --  -11.21423 -11.21345 -11.21279 -11.21226 -11.20480
 Alpha  occ. eigenvalues --   -1.59933  -1.39490  -1.19473  -1.08860  -1.08384
 Alpha  occ. eigenvalues --   -1.04880  -1.03441  -0.95866  -0.95689  -0.86872
 Alpha  occ. eigenvalues --   -0.86274  -0.82524  -0.79515  -0.78187  -0.77566
 Alpha  occ. eigenvalues --   -0.72131  -0.71247  -0.70579  -0.65129  -0.65035
 Alpha  occ. eigenvalues --   -0.64874  -0.62237  -0.60843  -0.59272  -0.57475
 Alpha  occ. eigenvalues --   -0.55386  -0.55148  -0.53233  -0.52971  -0.52541
 Alpha  occ. eigenvalues --   -0.52267  -0.49828  -0.48889  -0.48883  -0.47827
 Alpha  occ. eigenvalues --   -0.46582  -0.45740  -0.45649  -0.44738  -0.43689
 Alpha  occ. eigenvalues --   -0.37437  -0.36452
 Alpha virt. eigenvalues --    0.04933   0.11075   0.16428   0.21155   0.22850
 Alpha virt. eigenvalues --    0.24233   0.26432   0.26982   0.27396   0.27680
 Alpha virt. eigenvalues --    0.28619   0.30504   0.31482   0.31777   0.32021

 Mulliken charges:
               1
     1  C   -0.302565
     2  C   -0.300344
     3  C   -0.478416
     4  H    0.150289
     5  H    0.150890
     6  H    0.146676
     7  H    0.151383
     8  H    0.159979
     9  H    0.158394
    10  H    0.160348
    11  C   -0.297318
    12  C   -0.299101
    13  C   -0.475462
    14  H    0.146715
    15  H    0.150640
    16  H    0.147944
    17  H    0.152857
    18  H    0.156772
    19  H    0.153698
    20  H    0.158551
    21  C   -0.171220
    22  C   -0.217757
    23  C   -0.170332
    24  C    0.161842
    25  C   -0.173238
    26  C   -0.218978
    27  H    0.226274
    28  H    0.224193
    29  H    0.276059
    30  H    0.276213
    31  H    0.224193
    32  N    0.488545
    33  O   -0.458343
    34  O   -0.459381
 Sum of Mulliken charges =  -0.00000

 Dipole moment (field-independent basis, Debye):
    X=             -2.0417    Y=             -4.2651    Z=              1.9095  Tot=              5.0996
 Quadrupole moment (field-independent basis, Debye-Ang):
   XX=           -106.5127   YY=            -90.5844   ZZ=            -90.4907
   XY=             -9.5352   XZ=              4.4281   YZ=              1.1672

 Normal termination of Gaussian 16 at Wed May  5 18:50:40 2021.
