 Gaussian 16, Revision A.03,
 Gaussian 16:  EM64L-G16RevA.03 25-Dec-2016

 -------------
 #p 6-31g* mp2
 -------------

 ------------------------------------------------------
 Input file generated by CHIRIPA (05-May-2021 14:55:23)
 ------------------------------------------------------
 Symbolic Z-matrix:
 Charge =  0 Multiplicity = 1

                         Standard orientation:
 ---------------------------------------------------------------------
 Center     Atomic      Atomic             Coordinates (Angstroms)
 Number     Number       Type             X           Y           Z
 ---------------------------------------------------------------------
      1          6           0       -1.676240    1.974636   -0.144621
      2          6           0       -2.208811    1.388188   -1.297430
      3          6           0       -3.205220    0.412163   -1.202084
      4          6           0       -3.647727    0.044760    0.067756
      5          6           0       -3.136908    0.610561    1.234899
      6          6           0       -2.141169    1.584639    1.115642
      7          1           0       -0.902465    2.732080   -0.227975
      8          1           0       -1.849656    1.689108   -2.277481
      9          1           0       -3.634985   -0.058163   -2.078162
     10          1           0       -3.515118    0.289965    2.198016
     11          1           0       -1.729398    2.038372    2.012646
     12          7           0       -4.702227   -0.987483    0.181351
     13          8           0       -5.075032   -1.293755    1.311772
     14          8           0       -5.135971   -1.470739   -0.862185
     15          6           0        3.762807    0.063939   -0.032805
     16          6           0        2.618808   -0.836119   -0.500931
     17          6           0        1.257114   -0.143833   -0.435179
     18          1           0        3.565545    0.391064    0.997254
     19          1           0        3.781968    0.972194   -0.650948
     20          1           0        2.602677   -1.743038    0.117014
     21          1           0        2.818911   -1.161294   -1.529928
     22          1           0        1.249021    0.750986   -1.065922
     23          1           0        1.031557    0.165937    0.590378
     24          1           0        0.453710   -0.805207   -0.774277
     25          6           0        5.130460   -0.614048   -0.092722
     26          6           0        6.274460    0.286011    0.375404
     27          6           0        7.636153   -0.406275    0.309652
     28          1           0        5.111300   -1.522303    0.525421
     29          1           0        5.327722   -0.941173   -1.122781
     30          1           0        6.074356    0.611186    1.404402
     31          1           0        6.290591    1.192930   -0.242540
     32          1           0        7.861710   -0.716045   -0.715905
     33          1           0        7.644247   -1.301094    0.940395
     34          1           0        8.439557    0.255098    0.648750
 ---------------------------------------------------------------------

 SCF Done:  E(RHF) =  -669.535360660     A.U. after   15 cycles
 E2 =    -0.2091771834D+01 EUMP2 =    -0.67162713249370D+03

 The electronic state is 1-A.
 Alpha  occ. eigenvalues --  -20.60741 -20.60735 -15.85796 -11.31147 -11.27732
 Alpha  occ. eigenvalues --  -11.27728 -11.27468 -11.26735 -11.26725 -11.21985
 Alpha  occ. eigenvalues --  -11.21933 -11.21824 -11.21715 -11.21554 -11.21344
 Alpha  occ. eigenvalues --   -1.59817  -1.39371  -1.19330  -1.08820  -1.08721
 Alpha  occ. eigenvalues --   -1.04735  -1.03906  -0.96367  -0.95557  -0.87381
 Alpha  occ. eigenvalues --   -0.86133  -0.82394  -0.79973  -0.78632  -0.77442
 Alpha  occ. eigenvalues --   -0.72014  -0.71141  -0.70440  -0.65447  -0.64985
 Alpha  occ. eigenvalues --   -0.64740  -0.62086  -0.61305  -0.59724  -0.57975
 Alpha  occ. eigenvalues --   -0.55666  -0.55234  -0.53443  -0.52851  -0.52830
 Alpha  occ. eigenvalues --   -0.52595  -0.50318  -0.48772  -0.48769  -0.48293
 Alpha  occ. eigenvalues --   -0.47010  -0.46175  -0.46098  -0.44780  -0.44154
 Alpha  occ. eigenvalues --   -0.37236  -0.36327
 Alpha virt. eigenvalues --    0.05092   0.11266   0.16571   0.20952   0.22561
 Alpha virt. eigenvalues --    0.23996   0.26104   0.26805   0.27232   0.27402
 Alpha virt. eigenvalues --    0.28790   0.30635   0.31233   0.31528   0.31771

 Mulliken charges:
               1
     1  C   -0.163933
     2  C   -0.217451
     3  C   -0.171990
     4  C    0.158195
     5  C   -0.170861
     6  C   -0.219805
     7  H    0.225941
     8  H    0.223195
     9  H    0.275426
    10  H    0.275404
    11  H    0.223065
    12  N    0.488110
    13  O   -0.460635
    14  O   -0.460680
    15  C   -0.298028
    16  C   -0.301587
    17  C   -0.472210
    18  H    0.148217
    19  H    0.146941
    20  H    0.154456
    21  H    0.152447
    22  H    0.144706
    23  H    0.152976
    24  H    0.165558
    25  C   -0.298390
    26  C   -0.299710
    27  C   -0.475884
    28  H    0.150933
    29  H    0.150383
    30  H    0.151614
    31  H    0.151174
    32  H    0.155676
    33  H    0.156024
    34  H    0.160722
 Sum of Mulliken charges =  -0.00000

 Dipole moment (field-independent basis, Debye):
    X=              3.7465    Y=              3.6165    Z=             -0.3956  Tot=              5.2223
 Quadrupole moment (field-independent basis, Debye-Ang):
   XX=           -123.7899   YY=            -95.1160   ZZ=            -88.9515
   XY=            -12.9383   XZ=              1.8026   YZ=              0.3801

 Normal termination of Gaussian 16 at Thu May  6 10:59:31 2021.
