 Gaussian 16, Revision A.03,
 Gaussian 16:  EM64L-G16RevA.03 25-Dec-2016

 -------------
 #p 6-31g* mp2
 -------------

 ------------------------------------------------------
 Input file generated by CHIRIPA (05-May-2021 14:51:13)
 ------------------------------------------------------
 Symbolic Z-matrix:
 Charge =  0 Multiplicity = 1

                         Standard orientation:
 ---------------------------------------------------------------------
 Center     Atomic      Atomic             Coordinates (Angstroms)
 Number     Number       Type             X           Y           Z
 ---------------------------------------------------------------------
      1          6           0        2.483158   -0.582021    0.904335
      2          6           0        1.190147   -1.328751    0.574939
      3          6           0        0.433725   -1.780639    1.824506
      4          1           0        3.129363   -1.230865    1.511266
      5          1           0        2.245312    0.292077    1.526249
      6          1           0        1.430207   -2.200404   -0.047320
      7          1           0        0.547026   -0.678123   -0.031440
      8          1           0        0.165651   -0.919440    2.445048
      9          1           0        1.053850   -2.450370    2.429078
     10          1           0       -0.487321   -2.312305    1.565922
     11          6           0        3.250579   -0.123862   -0.334569
     12          6           0        4.543591    0.622868   -0.005174
     13          6           0        5.300012    1.074756   -1.254741
     14          1           0        3.488425   -0.997960   -0.956483
     15          1           0        2.604374    0.524981   -0.941501
     16          1           0        5.186711   -0.027760    0.601205
     17          1           0        4.303530    1.494521    0.617086
     18          1           0        4.679887    1.744487   -1.859313
     19          1           0        5.568086    0.213557   -1.875283
     20          1           0        6.221058    1.606421   -0.996156
     21          6           0       -2.997654    0.922698    0.206753
     22          6           0       -2.573181    2.291978   -0.325111
     23          6           0       -2.841175    3.421633    0.669801
     24          1           0       -4.067532    0.948425    0.455036
     25          1           0       -2.463709    0.720119    1.145507
     26          1           0       -3.106732    2.491312   -1.263304
     27          1           0       -1.504231    2.262933   -0.572336
     28          1           0       -2.296394    3.249738    1.603754
     29          1           0       -3.907999    3.479416    0.908861
     30          1           0       -2.530239    4.391551    0.269255
     31          6           0       -2.736084   -0.216815   -0.776518
     32          6           0       -3.160557   -1.586095   -0.244654
     33          6           0       -2.892562   -2.715750   -1.239567
     34          1           0       -3.270028   -0.014236   -1.715272
     35          1           0       -1.666205   -0.242541   -1.024800
     36          1           0       -4.229506   -1.557049    0.002572
     37          1           0       -2.627006   -1.785429    0.693539
     38          1           0       -1.825738   -2.773532   -1.478625
     39          1           0       -3.437343   -2.543855   -2.173518
     40          1           0       -3.203498   -3.685668   -0.839020
 ---------------------------------------------------------------------

 SCF Done:  E(RHF) =  -470.732856729     A.U. after   11 cycles
 E2 =    -0.1584099651D+01 EUMP2 =    -0.47231695637977D+03

 The electronic state is 1-A.
 Alpha  occ. eigenvalues --  -11.21684 -11.21639 -11.21629 -11.21560 -11.21466
 Alpha  occ. eigenvalues --  -11.21405 -11.21397 -11.21334 -11.21144 -11.21098
 Alpha  occ. eigenvalues --  -11.21096 -11.21057  -1.08507  -1.08417  -1.03614
 Alpha  occ. eigenvalues --   -1.03513  -0.96041  -0.95982  -0.87062  -0.86995
 Alpha  occ. eigenvalues --   -0.79704  -0.79561  -0.78345  -0.78200  -0.65296
 Alpha  occ. eigenvalues --   -0.64945  -0.61087  -0.60919  -0.59394  -0.59308
 Alpha  occ. eigenvalues --   -0.57661  -0.57556  -0.55385  -0.55214  -0.52759
 Alpha  occ. eigenvalues --   -0.52669  -0.52489  -0.52380  -0.50009  -0.49899
 Alpha  occ. eigenvalues --   -0.48044  -0.47901  -0.46799  -0.46577  -0.46022
 Alpha  occ. eigenvalues --   -0.45797  -0.45744  -0.45399  -0.43813  -0.43771
 Alpha virt. eigenvalues --    0.19487   0.23022   0.23716   0.24999   0.25187
 Alpha virt. eigenvalues --    0.26378   0.26842   0.27776   0.28750   0.29525
 Alpha virt. eigenvalues --    0.30027   0.31133   0.31656   0.31816   0.32501

 Mulliken charges:
               1
     1  C   -0.297964
     2  C   -0.305909
     3  C   -0.480877
     4  H    0.150068
     5  H    0.149484
     6  H    0.152246
     7  H    0.156933
     8  H    0.154775
     9  H    0.155849
    10  H    0.165769
    11  C   -0.298338
    12  C   -0.299710
    13  C   -0.475769
    14  H    0.149753
    15  H    0.149340
    16  H    0.152086
    17  H    0.152012
    18  H    0.155277
    19  H    0.155276
    20  H    0.160410
    21  C   -0.299387
    22  C   -0.299532
    23  C   -0.475645
    24  H    0.149853
    25  H    0.150595
    26  H    0.152178
    27  H    0.150758
    28  H    0.154952
    29  H    0.155433
    30  H    0.160228
    31  C   -0.303086
    32  C   -0.304885
    33  C   -0.477034
    34  H    0.149660
    35  H    0.154458
    36  H    0.152044
    37  H    0.157056
    38  H    0.156376
    39  H    0.155334
    40  H    0.159934
 Sum of Mulliken charges =  -0.00000

 Dipole moment (field-independent basis, Debye):
    X=              0.0185    Y=             -0.0122    Z=              0.0070  Tot=              0.0232
 Quadrupole moment (field-independent basis, Debye-Ang):
   XX=            -84.0718   YY=            -84.9763   ZZ=            -85.6530
   XY=             -0.7518   XZ=              0.9635   YZ=             -0.3189

 Normal termination of Gaussian 16 at Wed May  5 18:20:40 2021.
