 Gaussian 16, Revision A.03,
 Gaussian 16:  EM64L-G16RevA.03 25-Dec-2016

 -------------
 #p 6-31g* mp2
 -------------

 ------------------------------------------------------
 Input file generated by CHIRIPA (05-May-2021 14:53:13)
 ------------------------------------------------------
 Symbolic Z-matrix:
 Charge =  0 Multiplicity = 1

                         Standard orientation:
 ---------------------------------------------------------------------
 Center     Atomic      Atomic             Coordinates (Angstroms)
 Number     Number       Type             X           Y           Z
 ---------------------------------------------------------------------
      1          6           0        5.208677   -0.522284   -0.026819
      2          6           0        6.177540    0.474360   -0.663994
      3          6           0        7.600295   -0.074074   -0.777052
      4          1           0        5.577956   -0.796185    0.970957
      5          1           0        5.200302   -1.446225   -0.621509
      6          1           0        6.183044    1.396660   -0.069057
      7          1           0        5.805812    0.746067   -1.660291
      8          1           0        7.615640   -0.982277   -1.388224
      9          1           0        7.995015   -0.327989    0.212051
     10          1           0        8.276229    0.654649   -1.235240
     11          6           0        3.782345    0.011505    0.093075
     12          6           0        2.813483   -0.985138    0.730250
     13          6           0        1.390727   -0.436705    0.843308
     14          1           0        3.790720    0.935447    0.687766
     15          1           0        3.413067    0.285407   -0.904700
     16          1           0        3.185211   -1.256846    1.726548
     17          1           0        2.807979   -1.907438    0.135314
     18          1           0        0.996007   -0.182790   -0.145794
     19          1           0        1.375382    0.471499    1.454481
     20          1           0        0.714794   -1.165427    1.301497
     21          6           0       -2.071906    2.177271    0.590743
     22          6           0       -1.928999    0.966445    1.276309
     23          6           0       -2.721624   -0.135957    0.943134
     24          6           0       -3.651353    0.008322   -0.085494
     25          6           0       -3.817330    1.201408   -0.787124
     26          6           0       -3.013954    2.290688   -0.436974
     27          1           0       -1.452000    3.028545    0.856155
     28          1           0       -1.198211    0.875470    2.074880
     29          1           0       -2.631810   -1.085063    1.457478
     30          1           0       -4.554448    1.261614   -1.578611
     31          1           0       -3.127120    3.229802   -0.971111
     32          7           0       -4.496159   -1.151796   -0.447197
     33          8           0       -5.307963   -0.998952   -1.357279
     34          8           0       -4.330519   -2.191973    0.186231
 ---------------------------------------------------------------------

 SCF Done:  E(RHF) =  -669.535393400     A.U. after   15 cycles
 E2 =    -0.2091454092D+01 EUMP2 =    -0.67162684749155D+03

 The electronic state is 1-A.
 Alpha  occ. eigenvalues --  -20.60725 -20.60720 -15.85777 -11.31130 -11.27689
 Alpha  occ. eigenvalues --  -11.27677 -11.27421 -11.26717 -11.26667 -11.22091
 Alpha  occ. eigenvalues --  -11.21919 -11.21842 -11.21787 -11.21720 -11.21328
 Alpha  occ. eigenvalues --   -1.59800  -1.39354  -1.19297  -1.08847  -1.08694
 Alpha  occ. eigenvalues --   -1.04699  -1.03964  -0.96436  -0.95533  -0.87470
 Alpha  occ. eigenvalues --   -0.86087  -0.82364  -0.80038  -0.78648  -0.77408
 Alpha  occ. eigenvalues --   -0.71996  -0.71123  -0.70405  -0.65476  -0.64949
 Alpha  occ. eigenvalues --   -0.64702  -0.62063  -0.61352  -0.59804  -0.58034
 Alpha  occ. eigenvalues --   -0.55730  -0.55197  -0.53350  -0.52967  -0.52875
 Alpha  occ. eigenvalues --   -0.52613  -0.50366  -0.48754  -0.48752  -0.48345
 Alpha  occ. eigenvalues --   -0.47051  -0.46193  -0.46106  -0.44763  -0.44223
 Alpha  occ. eigenvalues --   -0.37269  -0.36260
 Alpha virt. eigenvalues --    0.05108   0.11325   0.16574   0.20704   0.22553
 Alpha virt. eigenvalues --    0.23908   0.25912   0.26416   0.26924   0.27886
 Alpha virt. eigenvalues --    0.28747   0.30222   0.31159   0.31342   0.32034

 Mulliken charges:
               1
     1  C   -0.298638
     2  C   -0.299833
     3  C   -0.475931
     4  H    0.150119
     5  H    0.151271
     6  H    0.151158
     7  H    0.152269
     8  H    0.156180
     9  H    0.155502
    10  H    0.160829
    11  C   -0.298593
    12  C   -0.301096
    13  C   -0.475340
    14  H    0.147319
    15  H    0.150418
    16  H    0.152363
    17  H    0.155887
    18  H    0.161382
    19  H    0.145535
    20  H    0.157692
    21  C   -0.172863
    22  C   -0.212692
    23  C   -0.172540
    24  C    0.158318
    25  C   -0.171506
    26  C   -0.218583
    27  H    0.225186
    28  H    0.226082
    29  H    0.274975
    30  H    0.275242
    31  H    0.223066
    32  N    0.488102
    33  O   -0.460662
    34  O   -0.460618
 Sum of Mulliken charges =  -0.00000

 Dipole moment (field-independent basis, Debye):
    X=              3.0907    Y=              4.0598    Z=              1.2293  Tot=              5.2484
 Quadrupole moment (field-independent basis, Debye-Ang):
   XX=           -117.0743   YY=            -93.5891   ZZ=            -92.1311
   XY=            -16.2022   XZ=             -2.8757   YZ=             -2.2485

 Normal termination of Gaussian 16 at Thu May  6 17:02:25 2021.
