 Gaussian 16, Revision A.03,
 Gaussian 16:  EM64L-G16RevA.03 25-Dec-2016

 -------------
 #p 6-31g* mp2
 -------------

 ------------------------------------------------------
 Input file generated by CHIRIPA (05-May-2021 14:55:22)
 ------------------------------------------------------
 Symbolic Z-matrix:
 Charge =  0 Multiplicity = 1

                         Standard orientation:
 ---------------------------------------------------------------------
 Center     Atomic      Atomic             Coordinates (Angstroms)
 Number     Number       Type             X           Y           Z
 ---------------------------------------------------------------------
      1          6           0        4.636013   -0.721716   -1.224921
      2          6           0        4.124865    0.579754   -1.262659
      3          6           0        3.040976    0.940515   -0.456691
      4          6           0        2.490098   -0.029770    0.378995
      5          6           0        2.976890   -1.334650    0.439097
      6          6           0        4.061407   -1.673087   -0.375661
      7          1           0        5.478248   -0.993293   -1.854430
      8          1           0        4.569112    1.320674   -1.921239
      9          1           0        2.625428    1.940840   -0.466050
     10          1           0        2.512977   -2.051394    1.105790
     11          1           0        4.456293   -2.684583   -0.344271
     12          7           0        1.342300    0.340335    1.236890
     13          8           0        0.874761   -0.532926    1.964529
     14          8           0        0.931930    1.496677    1.165425
     15          6           0       -3.734183   -0.487513   -0.659280
     16          6           0       -3.865514   -1.717329    0.239768
     17          6           0       -4.476749   -2.916874   -0.484992
     18          1           0       -4.725874   -0.217084   -1.047047
     19          1           0       -3.116782   -0.743738   -1.531381
     20          1           0       -4.481339   -1.458471    1.110612
     21          1           0       -2.873424   -1.984746    0.625593
     22          1           0       -3.860701   -3.203062   -1.343586
     23          1           0       -5.477752   -2.673796   -0.855812
     24          1           0       -4.561425   -3.784933    0.176190
     25          6           0       -3.124744    0.719878    0.051015
     26          6           0       -2.993414    1.949694   -0.848033
     27          6           0       -2.382178    3.149239   -0.123272
     28          1           0       -3.742145    0.976104    0.923115
     29          1           0       -2.133053    0.449449    0.438782
     30          1           0       -3.985504    2.217112   -1.233858
     31          1           0       -2.377589    1.690836   -1.718877
     32          1           0       -1.381175    2.906161    0.247546
     33          1           0       -2.998225    3.435427    0.735321
     34          1           0       -2.297502    4.017298   -0.784456
 ---------------------------------------------------------------------

 SCF Done:  E(RHF) =  -669.536582279     A.U. after   15 cycles
 E2 =    -0.2091536358D+01 EUMP2 =    -0.67162811863774D+03

 The electronic state is 1-A.
 Alpha  occ. eigenvalues --  -20.61085 -20.61079 -15.86106 -11.31376 -11.27932
 Alpha  occ. eigenvalues --  -11.27928 -11.27661 -11.26926 -11.26916 -11.20773
 Alpha  occ. eigenvalues --  -11.20545 -11.20512 -11.20469 -11.20170 -11.19699
 Alpha  occ. eigenvalues --   -1.60135  -1.39692  -1.19538  -1.08952  -1.07442
 Alpha  occ. eigenvalues --   -1.04926  -1.02561  -0.95801  -0.95002  -0.86329
 Alpha  occ. eigenvalues --   -0.86016  -0.82637  -0.78640  -0.77696  -0.77215
 Alpha  occ. eigenvalues --   -0.72323  -0.71447  -0.70646  -0.65195  -0.64927
 Alpha  occ. eigenvalues --   -0.64077  -0.62273  -0.59960  -0.58400  -0.56607
 Alpha  occ. eigenvalues --   -0.55432  -0.54280  -0.53261  -0.53016  -0.51732
 Alpha  occ. eigenvalues --   -0.51407  -0.49110  -0.49080  -0.48904  -0.46944
 Alpha  occ. eigenvalues --   -0.45705  -0.45098  -0.44775  -0.44585  -0.42815
 Alpha  occ. eigenvalues --   -0.37514  -0.36524
 Alpha virt. eigenvalues --    0.04784   0.11132   0.16268   0.21245   0.23795
 Alpha virt. eigenvalues --    0.25290   0.27191   0.27532   0.28048   0.28584
 Alpha virt. eigenvalues --    0.29042   0.30839   0.32094   0.32499   0.32656

 Mulliken charges:
               1
     1  C   -0.170371
     2  C   -0.218578
     3  C   -0.170584
     4  C    0.157735
     5  C   -0.170578
     6  C   -0.218611
     7  H    0.226363
     8  H    0.224238
     9  H    0.276092
    10  H    0.275998
    11  H    0.224149
    12  N    0.491352
    13  O   -0.458739
    14  O   -0.462824
    15  C   -0.297356
    16  C   -0.300072
    17  C   -0.475008
    18  H    0.146088
    19  H    0.144644
    20  H    0.152033
    21  H    0.157183
    22  H    0.152050
    23  H    0.153348
    24  H    0.158348
    25  C   -0.302253
    26  C   -0.297046
    27  C   -0.486574
    28  H    0.148749
    29  H    0.164296
    30  H    0.146347
    31  H    0.145224
    32  H    0.181027
    33  H    0.152431
    34  H    0.150898
 Sum of Mulliken charges =  -0.00000

 Dipole moment (field-independent basis, Debye):
    X=              4.4044    Y=             -1.3349    Z=             -2.8378  Tot=              5.4068
 Quadrupole moment (field-independent basis, Debye-Ang):
   XX=            -75.4403   YY=            -91.8275   ZZ=            -97.2910
   XY=             -3.9223   XZ=             -7.3300   YZ=             -2.5032

 Normal termination of Gaussian 16 at Wed May  5 17:31:14 2021.
