 Gaussian 16, Revision A.03,
 Gaussian 16:  EM64L-G16RevA.03 25-Dec-2016

 -------------
 #p 6-31g* mp2
 -------------

 ------------------------------------------------------
 Input file generated by CHIRIPA (05-May-2021 14:51:08)
 ------------------------------------------------------
 Symbolic Z-matrix:
 Charge =  0 Multiplicity = 1

                         Standard orientation:
 ---------------------------------------------------------------------
 Center     Atomic      Atomic             Coordinates (Angstroms)
 Number     Number       Type             X           Y           Z
 ---------------------------------------------------------------------
      1          6           0        2.687131    0.077882   -0.044458
      2          6           0        3.676941   -0.263939   -1.158648
      3          6           0        4.091591   -1.735599   -1.150059
      4          1           0        3.136794   -0.172184    0.926219
      5          1           0        1.795523   -0.555850   -0.148450
      6          1           0        4.565827    0.371216   -1.053405
      7          1           0        3.224943   -0.012852   -2.126775
      8          1           0        3.217881   -2.382763   -1.278160
      9          1           0        4.566383   -1.996512   -0.198692
     10          1           0        4.799389   -1.957972   -1.954691
     11          6           0        2.263164    1.545520   -0.039970
     12          6           0        1.273354    1.887340    1.074220
     13          6           0        0.858704    3.359001    1.065631
     14          1           0        3.154772    2.179252    0.064022
     15          1           0        1.813501    1.795585   -1.010647
     16          1           0        1.725352    1.636253    2.042347
     17          1           0        0.384468    1.252185    0.968977
     18          1           0        0.383912    3.619914    0.114264
     19          1           0        1.732414    4.006165    1.193732
     20          1           0        0.150906    3.581374    1.870263
     21          6           0       -2.187587   -1.518876    0.067585
     22          6           0       -1.169483   -1.719533    1.190610
     23          6           0       -0.603182   -3.139275    1.228422
     24          1           0       -3.007785   -2.239137    0.191858
     25          1           0       -1.711431   -1.750467   -0.895242
     26          1           0       -1.647021   -1.486298    2.150910
     27          1           0       -0.351708   -0.998584    1.063758
     28          1           0       -0.101979   -3.379358    0.285154
     29          1           0       -1.404651   -3.869844    1.378483
     30          1           0        0.122527   -3.260584    2.038664
     31          6           0       -2.762708   -0.104525    0.016844
     32          6           0       -3.780812    0.096131   -1.106183
     33          6           0       -4.347113    1.515873   -1.143994
     34          1           0       -3.238864    0.127065    0.979671
     35          1           0       -1.942510    0.615735   -0.107430
     36          1           0       -4.598587   -0.624818   -0.979330
     37          1           0       -3.303274   -0.137104   -2.066482
     38          1           0       -3.545644    2.246442   -1.294055
     39          1           0       -4.848316    1.755957   -0.200726
     40          1           0       -5.072822    1.637182   -1.954236
 ---------------------------------------------------------------------

 SCF Done:  E(RHF) =  -470.732725872     A.U. after   11 cycles
 E2 =    -0.1584407941D+01 EUMP2 =    -0.47231713381230D+03

 The electronic state is 1-A.
 Alpha  occ. eigenvalues --  -11.21638 -11.21637 -11.21599 -11.21563 -11.21444
 Alpha  occ. eigenvalues --  -11.21442 -11.21385 -11.21381 -11.21096 -11.21095
 Alpha  occ. eigenvalues --  -11.21087 -11.21072  -1.08506  -1.08430  -1.03561
 Alpha  occ. eigenvalues --   -1.03544  -0.96017  -0.95990  -0.87025  -0.87013
 Alpha  occ. eigenvalues --   -0.79668  -0.79588  -0.78439  -0.78129  -0.65360
 Alpha  occ. eigenvalues --   -0.64870  -0.60965  -0.60954  -0.59405  -0.59336
 Alpha  occ. eigenvalues --   -0.57660  -0.57567  -0.55348  -0.55242  -0.52719
 Alpha  occ. eigenvalues --   -0.52673  -0.52440  -0.52412  -0.49985  -0.49918
 Alpha  occ. eigenvalues --   -0.48051  -0.47900  -0.46926  -0.46661  -0.46189
 Alpha  occ. eigenvalues --   -0.45792  -0.45772  -0.44962  -0.43817  -0.43791
 Alpha virt. eigenvalues --    0.20164   0.22647   0.23760   0.24030   0.25920
 Alpha virt. eigenvalues --    0.26816   0.27050   0.27563   0.27778   0.29540
 Alpha virt. eigenvalues --    0.31214   0.31512   0.31749   0.32027   0.32310

 Mulliken charges:
               1
     1  C   -0.303553
     2  C   -0.299452
     3  C   -0.475637
     4  H    0.149891
     5  H    0.154258
     6  H    0.152238
     7  H    0.151705
     8  H    0.155007
     9  H    0.155468
    10  H    0.160369
    11  C   -0.297950
    12  C   -0.310567
    13  C   -0.474931
    14  H    0.149878
    15  H    0.148763
    16  H    0.152053
    17  H    0.162199
    18  H    0.154456
    19  H    0.155291
    20  H    0.160803
    21  C   -0.297976
    22  C   -0.311449
    23  C   -0.474991
    24  H    0.149997
    25  H    0.148473
    26  H    0.151945
    27  H    0.163503
    28  H    0.154327
    29  H    0.155179
    30  H    0.160857
    31  C   -0.302793
    32  C   -0.299505
    33  C   -0.475673
    34  H    0.149860
    35  H    0.153094
    36  H    0.152287
    37  H    0.151723
    38  H    0.155097
    39  H    0.155392
    40  H    0.160364
 Sum of Mulliken charges =  -0.00000

 Dipole moment (field-independent basis, Debye):
    X=              0.0048    Y=              0.0037    Z=              0.0209  Tot=              0.0218
 Quadrupole moment (field-independent basis, Debye-Ang):
   XX=            -83.9444   YY=            -86.7472   ZZ=            -84.0152
   XY=              1.2534   XZ=             -0.0091   YZ=             -0.0138

 Normal termination of Gaussian 16 at Wed May  5 22:56:28 2021.
