 Gaussian 16, Revision A.03,
 Gaussian 16:  EM64L-G16RevA.03 25-Dec-2016

 -------------
 #p 6-31g* mp2
 -------------

 ------------------------------------------------------
 Input file generated by CHIRIPA (05-May-2021 14:55:20)
 ------------------------------------------------------
 Symbolic Z-matrix:
 Charge =  0 Multiplicity = 1

                         Standard orientation:
 ---------------------------------------------------------------------
 Center     Atomic      Atomic             Coordinates (Angstroms)
 Number     Number       Type             X           Y           Z
 ---------------------------------------------------------------------
      1          6           0        0.904799   -1.050171    1.330341
      2          6           0        2.198214   -1.503495    1.609795
      3          6           0        3.301994   -0.948249    0.955639
      4          6           0        3.074860    0.063219    0.023633
      5          6           0        1.798381    0.536300   -0.276505
      6          6           0        0.709355   -0.033513    0.389741
      7          1           0        0.053087   -1.487157    1.843201
      8          1           0        2.352996   -2.292911    2.339803
      9          1           0        4.314062   -1.280294    1.152825
     10          1           0        1.675669    1.324646   -1.009220
     11          1           0       -0.294002    0.320526    0.170705
     12          7           0        4.235573    0.658743   -0.675292
     13          8           0        4.008804    1.548651   -1.492163
     14          8           0        5.350130    0.224332   -0.393006
     15          6           0       -3.977948   -0.599032   -0.472082
     16          6           0       -2.981132   -1.758450   -0.481818
     17          6           0       -3.569978   -3.039358   -1.073701
     18          1           0       -4.867977   -0.893845    0.100524
     19          1           0       -4.316727   -0.407265   -1.499627
     20          1           0       -2.643284   -1.947067    0.545265
     21          1           0       -2.093291   -1.460773   -1.054306
     22          1           0       -3.890449   -2.874208   -2.107445
     23          1           0       -4.443568   -3.363264   -0.498785
     24          1           0       -2.840461   -3.855235   -1.070903
     25          6           0       -3.403969    0.688456    0.116690
     26          6           0       -4.400784    1.847872    0.126427
     27          6           0       -3.811938    3.128781    0.718310
     28          1           0       -3.065190    0.496689    1.144235
     29          1           0       -2.513939    0.983267   -0.455916
     30          1           0       -5.288626    1.550197    0.698915
     31          1           0       -4.738632    2.036490   -0.900656
     32          1           0       -2.938349    3.452687    0.143395
     33          1           0       -3.491467    2.963630    1.752053
     34          1           0       -4.541456    3.944658    0.715512
 ---------------------------------------------------------------------

 SCF Done:  E(RHF) =  -669.535493664     A.U. after   15 cycles
 E2 =    -0.2092203190D+01 EUMP2 =    -0.67162769685387D+03

 The electronic state is 1-A.
 Alpha  occ. eigenvalues --  -20.60694 -20.60689 -15.85746 -11.31088 -11.27657
 Alpha  occ. eigenvalues --  -11.27636 -11.27371 -11.26668 -11.26571 -11.22675
 Alpha  occ. eigenvalues --  -11.22587 -11.22445 -11.22353 -11.21883 -11.21794
 Alpha  occ. eigenvalues --   -1.59770  -1.39325  -1.19251  -1.09453  -1.08646
 Alpha  occ. eigenvalues --   -1.04649  -1.04433  -0.96871  -0.95490  -0.87882
 Alpha  occ. eigenvalues --   -0.86050  -0.82326  -0.80516  -0.79339  -0.77366
 Alpha  occ. eigenvalues --   -0.71965  -0.71093  -0.70359  -0.66090  -0.64899
 Alpha  occ. eigenvalues --   -0.64642  -0.62008  -0.61820  -0.60242  -0.58498
 Alpha  occ. eigenvalues --   -0.56149  -0.55147  -0.53534  -0.53323  -0.52979
 Alpha  occ. eigenvalues --   -0.52723  -0.50805  -0.48824  -0.48727  -0.48722
 Alpha  occ. eigenvalues --   -0.47549  -0.46773  -0.46737  -0.44736  -0.44723
 Alpha  occ. eigenvalues --   -0.37223  -0.36250
 Alpha virt. eigenvalues --    0.05151   0.11328   0.16635   0.19524   0.22610
 Alpha virt. eigenvalues --    0.23129   0.24323   0.25188   0.27085   0.28314
 Alpha virt. eigenvalues --    0.29408   0.30669   0.30813   0.31354   0.31589

 Mulliken charges:
               1
     1  C   -0.174480
     2  C   -0.218673
     3  C   -0.171399
     4  C    0.158901
     5  C   -0.174360
     6  C   -0.226553
     7  H    0.226642
     8  H    0.222834
     9  H    0.275122
    10  H    0.275001
    11  H    0.237957
    12  N    0.488096
    13  O   -0.460782
    14  O   -0.460816
    15  C   -0.297826
    16  C   -0.303864
    17  C   -0.476026
    18  H    0.153220
    19  H    0.154012
    20  H    0.144665
    21  H    0.153315
    22  H    0.158940
    23  H    0.157129
    24  H    0.162328
    25  C   -0.304989
    26  C   -0.299160
    27  C   -0.476868
    28  H    0.146673
    29  H    0.145548
    30  H    0.155009
    31  H    0.155401
    32  H    0.155056
    33  H    0.155520
    34  H    0.164425
 Sum of Mulliken charges =  -0.00000

 Dipole moment (field-independent basis, Debye):
    X=             -4.3970    Y=             -2.0914    Z=              2.4014  Tot=              5.4290
 Quadrupole moment (field-independent basis, Debye-Ang):
   XX=           -117.3809   YY=            -94.1799   ZZ=            -93.2005
   XY=             -9.2004   XZ=              9.1313   YZ=             -2.2152

 Normal termination of Gaussian 16 at Wed May  5 22:09:52 2021.
