 Gaussian 16, Revision A.03,
 Gaussian 16:  EM64L-G16RevA.03 25-Dec-2016

 -------------
 #p 6-31g* mp2
 -------------

 ------------------------------------------------------
 Input file generated by CHIRIPA (05-May-2021 14:51:07)
 ------------------------------------------------------
 Symbolic Z-matrix:
 Charge =  0 Multiplicity = 1

                         Standard orientation:
 ---------------------------------------------------------------------
 Center     Atomic      Atomic             Coordinates (Angstroms)
 Number     Number       Type             X           Y           Z
 ---------------------------------------------------------------------
      1          6           0       -3.080224    0.390514   -0.168266
      2          6           0       -3.087090   -0.920580    0.618482
      3          6           0       -4.204094   -1.867750    0.179206
      4          1           0       -4.052615    0.887602   -0.048669
      5          1           0       -2.972957    0.167099   -1.238768
      6          1           0       -3.192922   -0.694689    1.687308
      7          1           0       -2.114502   -1.414511    0.497154
      8          1           0       -4.098988   -2.122139   -0.880435
      9          1           0       -5.183535   -1.398227    0.316481
     10          1           0       -4.190505   -2.798685    0.754563
     11          6           0       -1.969227    1.347855    0.259415
     12          6           0       -1.962361    2.658949   -0.527332
     13          6           0       -0.845357    3.606119   -0.088057
     14          1           0       -2.076494    1.571270    1.329917
     15          1           0       -0.996835    0.850768    0.139818
     16          1           0       -2.934949    3.152880   -0.406005
     17          1           0       -1.856529    2.433058   -1.596158
     18          1           0        0.134084    3.136596   -0.225331
     19          1           0       -0.950463    3.860508    0.971585
     20          1           0       -0.858946    4.537054   -0.663413
     21          6           0        1.894782   -1.212549   -0.307689
     22          6           0        1.816371   -2.695537    0.056430
     23          6           0        0.550501   -3.368589   -0.474953
     24          1           0        1.009508   -0.696845    0.088903
     25          1           0        1.853973   -1.107875   -1.400746
     26          1           0        1.858709   -2.797469    1.148416
     27          1           0        2.702029   -3.207734   -0.340911
     28          1           0        0.505007   -3.296436   -1.566432
     29          1           0       -0.343104   -2.883839   -0.068642
     30          1           0        0.514904   -4.428190   -0.203221
     31          6           0        3.154670   -0.525820    0.216540
     32          6           0        3.233080    0.957168   -0.147580
     33          6           0        4.498950    1.630220    0.383804
     34          1           0        3.195478   -0.630494    1.309596
     35          1           0        4.039943   -1.041524   -0.180053
     36          1           0        2.347421    1.469365    0.249761
     37          1           0        3.190741    1.059100   -1.239565
     38          1           0        5.392555    1.145470   -0.022507
     39          1           0        4.544443    1.558066    1.475282
     40          1           0        4.534546    2.689821    0.112071
 ---------------------------------------------------------------------

 SCF Done:  E(RHF) =  -470.733104104     A.U. after   11 cycles
 E2 =    -0.1584453658D+01 EUMP2 =    -0.47231755776204D+03

 The electronic state is 1-A.
 Alpha  occ. eigenvalues --  -11.21648 -11.21644 -11.21612 -11.21599 -11.21455
 Alpha  occ. eigenvalues --  -11.21408 -11.21394 -11.21349 -11.21103 -11.21091
 Alpha  occ. eigenvalues --  -11.21068 -11.21066  -1.08490  -1.08427  -1.03581
 Alpha  occ. eigenvalues --   -1.03523  -0.96030  -0.95970  -0.87050  -0.86983
 Alpha  occ. eigenvalues --   -0.79686  -0.79555  -0.78408  -0.78154  -0.65265
 Alpha  occ. eigenvalues --   -0.64923  -0.61118  -0.60807  -0.59408  -0.59324
 Alpha  occ. eigenvalues --   -0.57712  -0.57529  -0.55428  -0.55153  -0.52708
 Alpha  occ. eigenvalues --   -0.52673  -0.52507  -0.52349  -0.50106  -0.49775
 Alpha  occ. eigenvalues --   -0.48120  -0.47803  -0.46857  -0.46546  -0.46266
 Alpha  occ. eigenvalues --   -0.45787  -0.45750  -0.45091  -0.43824  -0.43783
 Alpha virt. eigenvalues --    0.19855   0.21964   0.23538   0.24455   0.25180
 Alpha virt. eigenvalues --    0.26679   0.26989   0.27173   0.27848   0.29367
 Alpha virt. eigenvalues --    0.31323   0.31488   0.31747   0.31830   0.32172

 Mulliken charges:
               1
     1  C   -0.297131
     2  C   -0.309146
     3  C   -0.475274
     4  H    0.149828
     5  H    0.149885
     6  H    0.151905
     7  H    0.159160
     8  H    0.155665
     9  H    0.155289
    10  H    0.160337
    11  C   -0.306832
    12  C   -0.298908
    13  C   -0.480016
    14  H    0.149152
    15  H    0.156885
    16  H    0.152000
    17  H    0.152209
    18  H    0.159119
    19  H    0.154906
    20  H    0.160419
    21  C   -0.306994
    22  C   -0.298747
    23  C   -0.483906
    24  H    0.156834
    25  H    0.149272
    26  H    0.152160
    27  H    0.152276
    28  H    0.155102
    29  H    0.162524
    30  H    0.160868
    31  C   -0.297638
    32  C   -0.304590
    33  C   -0.475557
    34  H    0.149847
    35  H    0.150069
    36  H    0.155767
    37  H    0.151868
    38  H    0.155292
    39  H    0.155437
    40  H    0.160665
 Sum of Mulliken charges =  -0.00000

 Dipole moment (field-independent basis, Debye):
    X=              0.0144    Y=             -0.0104    Z=             -0.0028  Tot=              0.0180
 Quadrupole moment (field-independent basis, Debye-Ang):
   XX=            -85.3908   YY=            -85.5655   ZZ=            -83.6858
   XY=             -1.4938   XZ=             -1.2438   YZ=              0.1200

 Normal termination of Gaussian 16 at Wed May  5 21:15:39 2021.
