 Gaussian 16, Revision A.03,
 Gaussian 16:  EM64L-G16RevA.03 25-Dec-2016

 -------------
 #p 6-31g* mp2
 -------------

 ------------------------------------------------------
 Input file generated by CHIRIPA (05-May-2021 14:51:12)
 ------------------------------------------------------
 Symbolic Z-matrix:
 Charge =  0 Multiplicity = 1

                         Standard orientation:
 ---------------------------------------------------------------------
 Center     Atomic      Atomic             Coordinates (Angstroms)
 Number     Number       Type             X           Y           Z
 ---------------------------------------------------------------------
      1          6           0        4.774449   -0.529255    0.360408
      2          6           0        5.712203   -0.805294   -0.815349
      3          6           0        6.805569   -1.818219   -0.474279
      4          1           0        5.363124   -0.162562    1.212431
      5          1           0        4.313465   -1.473362    0.682203
      6          1           0        6.170226    0.139266   -1.135721
      7          1           0        5.121203   -1.171191   -1.664733
      8          1           0        6.364851   -2.774742   -0.175223
      9          1           0        7.419835   -1.456839    0.356794
     10          1           0        7.464510   -2.000711   -1.328885
     11          6           0        3.676075    0.481378    0.034948
     12          6           0        2.738321    0.757416    1.210705
     13          6           0        1.644956    1.770342    0.869635
     14          1           0        4.137059    1.425484   -0.286847
     15          1           0        3.087400    0.114684   -0.817074
     16          1           0        3.329321    1.123313    2.060089
     17          1           0        2.280298   -0.187144    1.531077
     18          1           0        1.030690    1.408961    0.038562
     19          1           0        2.085673    2.726864    0.570580
     20          1           0        0.986014    1.952833    1.724242
     21          6           0       -4.949406   -0.205168   -0.278656
     22          6           0       -5.248635   -1.529525    0.424568
     23          6           0       -6.701342   -1.974675    0.253455
     24          1           0       -5.620831    0.570868    0.113647
     25          1           0       -5.179427   -0.305898   -1.348394
     26          1           0       -5.016808   -1.426749    1.492421
     27          1           0       -4.576290   -2.302454    0.030680
     28          1           0       -6.942015   -2.104980   -0.806591
     29          1           0       -7.385036   -1.224299    0.663454
     30          1           0       -6.893276   -2.923523    0.764052
     31          6           0       -3.501119    0.253045   -0.116700
     32          6           0       -3.201889    1.577403   -0.819925
     33          6           0       -1.749183    2.022552   -0.648811
     34          1           0       -3.271096    0.353776    0.953038
     35          1           0       -2.829693   -0.522990   -0.509004
     36          1           0       -3.874234    2.350332   -0.426037
     37          1           0       -3.433716    1.474626   -1.887777
     38          1           0       -1.065489    1.272176   -1.058810
     39          1           0       -1.508510    2.152857    0.411235
     40          1           0       -1.557248    2.971400   -1.159409
 ---------------------------------------------------------------------

 SCF Done:  E(RHF) =  -470.732363221     A.U. after   11 cycles
 E2 =    -0.1582748290D+01 EUMP2 =    -0.47231511151156D+03

 The electronic state is 1-A.
 Alpha  occ. eigenvalues --  -11.21601 -11.21577 -11.21561 -11.21509 -11.21397
 Alpha  occ. eigenvalues --  -11.21363 -11.21338 -11.21303 -11.21071 -11.21053
 Alpha  occ. eigenvalues --  -11.21000 -11.20880  -1.08420  -1.08377  -1.03535
 Alpha  occ. eigenvalues --   -1.03447  -0.96031  -0.95854  -0.87106  -0.86817
 Alpha  occ. eigenvalues --   -0.79699  -0.79421  -0.78249  -0.78174  -0.65053
 Alpha  occ. eigenvalues --   -0.65011  -0.60941  -0.60859  -0.59336  -0.59285
 Alpha  occ. eigenvalues --   -0.57637  -0.57500  -0.55309  -0.55176  -0.52816
 Alpha  occ. eigenvalues --   -0.52622  -0.52459  -0.52126  -0.49957  -0.49797
 Alpha  occ. eigenvalues --   -0.48011  -0.47708  -0.46635  -0.46508  -0.45827
 Alpha  occ. eigenvalues --   -0.45701  -0.45691  -0.45575  -0.43772  -0.43706
 Alpha virt. eigenvalues --    0.22442   0.23012   0.23656   0.24865   0.26065
 Alpha virt. eigenvalues --    0.26543   0.26948   0.27533   0.27654   0.29346
 Alpha virt. eigenvalues --    0.29368   0.31114   0.31658   0.32037   0.32455

 Mulliken charges:
               1
     1  C   -0.298184
     2  C   -0.299585
     3  C   -0.475669
     4  H    0.149624
     5  H    0.149367
     6  H    0.151895
     7  H    0.151760
     8  H    0.155109
     9  H    0.155162
    10  H    0.160143
    11  C   -0.298202
    12  C   -0.299960
    13  C   -0.478954
    14  H    0.149467
    15  H    0.149023
    16  H    0.151146
    17  H    0.151324
    18  H    0.163427
    19  H    0.154129
    20  H    0.158462
    21  C   -0.298211
    22  C   -0.299610
    23  C   -0.475695
    24  H    0.149682
    25  H    0.149492
    26  H    0.151904
    27  H    0.151797
    28  H    0.155169
    29  H    0.155203
    30  H    0.160214
    31  C   -0.298065
    32  C   -0.300489
    33  C   -0.476276
    34  H    0.149444
    35  H    0.149091
    36  H    0.151711
    37  H    0.151469
    38  H    0.154122
    39  H    0.159182
    40  H    0.160380
 Sum of Mulliken charges =  -0.00000

 Dipole moment (field-independent basis, Debye):
    X=             -0.0257    Y=              0.0222    Z=             -0.0084  Tot=              0.0350
 Quadrupole moment (field-independent basis, Debye-Ang):
   XX=            -86.3387   YY=            -84.6447   ZZ=            -84.0325
   XY=              0.4612   XZ=             -0.2159   YZ=              0.7270

 Normal termination of Gaussian 16 at Wed May  5 16:49:32 2021.
