 Gaussian 16, Revision A.03,
 Gaussian 16:  EM64L-G16RevA.03 25-Dec-2016

 -------------
 #p 6-31g* mp2
 -------------

 ------------------------------------------------------
 Input file generated by CHIRIPA (05-May-2021 14:55:20)
 ------------------------------------------------------
 Symbolic Z-matrix:
 Charge =  0 Multiplicity = 1

                         Standard orientation:
 ---------------------------------------------------------------------
 Center     Atomic      Atomic             Coordinates (Angstroms)
 Number     Number       Type             X           Y           Z
 ---------------------------------------------------------------------
      1          6           0       -2.849683    1.630743    1.061980
      2          6           0       -2.754150    0.447955    1.802524
      3          6           0       -2.292729   -0.728649    1.204826
      4          6           0       -1.933743   -0.686356   -0.141513
      5          6           0       -2.017665    0.476384   -0.905896
      6          6           0       -2.481785    1.641164   -0.287488
      7          1           0       -3.209174    2.540164    1.534330
      8          1           0       -3.039165    0.436910    2.850708
      9          1           0       -2.208835   -1.658178    1.754696
     10          1           0       -1.726180    0.456296   -1.948993
     11          1           0       -2.554936    2.558281   -0.865061
     12          7           0       -1.443829   -1.925715   -0.785232
     13          8           0       -1.133782   -1.862200   -1.972865
     14          8           0       -1.379158   -2.937173   -0.089956
     15          6           0        2.527462    1.371446    0.153764
     16          6           0        1.505882    2.047738   -0.761107
     17          6           0        1.415176    3.556784   -0.532309
     18          1           0        2.260282    1.569590    1.200807
     19          1           0        3.513688    1.827839   -0.008905
     20          1           0        0.522147    1.589265   -0.597757
     21          1           0        1.775418    1.847802   -1.806091
     22          1           0        2.383984    4.032987   -0.714629
     23          1           0        1.123592    3.772980    0.500571
     24          1           0        0.679060    4.020037   -1.196681
     25          6           0        2.629623   -0.137284   -0.063088
     26          6           0        3.651203   -0.813576    0.851783
     27          6           0        3.741910   -2.322621    0.622985
     28          1           0        1.643397   -0.593675    0.099582
     29          1           0        2.896804   -0.335426   -1.110130
     30          1           0        3.381668   -0.613639    1.896767
     31          1           0        4.634938   -0.355101    0.688434
     32          1           0        4.033493   -2.538817   -0.409894
     33          1           0        2.773102   -2.798824    0.805305
     34          1           0        4.478025   -2.785874    1.287357
 ---------------------------------------------------------------------

 SCF Done:  E(RHF) =  -669.534868833     A.U. after   15 cycles
 E2 =    -0.2093876815D+01 EUMP2 =    -0.67162874564769D+03

 The electronic state is 1-A.
 Alpha  occ. eigenvalues --  -20.60850 -20.60839 -15.85906 -11.31296 -11.27872
 Alpha  occ. eigenvalues --  -11.27849 -11.27607 -11.26876 -11.26863 -11.21542
 Alpha  occ. eigenvalues --  -11.21336 -11.21292 -11.21279 -11.21093 -11.20538
 Alpha  occ. eigenvalues --   -1.59924  -1.39476  -1.19485  -1.08862  -1.08267
 Alpha  occ. eigenvalues --   -1.04891  -1.03376  -0.95831  -0.95693  -0.86844
 Alpha  occ. eigenvalues --   -0.86271  -0.82522  -0.79463  -0.78062  -0.77558
 Alpha  occ. eigenvalues --   -0.72118  -0.71254  -0.70572  -0.65128  -0.64910
 Alpha  occ. eigenvalues --   -0.64868  -0.62225  -0.60795  -0.59249  -0.57437
 Alpha  occ. eigenvalues --   -0.55368  -0.55117  -0.53274  -0.52962  -0.52534
 Alpha  occ. eigenvalues --   -0.52237  -0.49754  -0.48880  -0.48871  -0.47761
 Alpha  occ. eigenvalues --   -0.46487  -0.45598  -0.45511  -0.44860  -0.43630
 Alpha  occ. eigenvalues --   -0.37452  -0.36378
 Alpha virt. eigenvalues --    0.04948   0.11122   0.16404   0.21087   0.22957
 Alpha virt. eigenvalues --    0.24348   0.26576   0.26838   0.27323   0.28263
 Alpha virt. eigenvalues --    0.28571   0.30584   0.31570   0.31923   0.32344

 Mulliken charges:
               1
     1  C   -0.170768
     2  C   -0.218512
     3  C   -0.171863
     4  C    0.160751
     5  C   -0.175441
     6  C   -0.216012
     7  H    0.226426
     8  H    0.223935
     9  H    0.276040
    10  H    0.277603
    11  H    0.225174
    12  N    0.488853
    13  O   -0.459358
    14  O   -0.460873
    15  C   -0.297028
    16  C   -0.309268
    17  C   -0.474116
    18  H    0.147119
    19  H    0.148919
    20  H    0.158949
    21  H    0.152701
    22  H    0.157235
    23  H    0.152700
    24  H    0.152650
    25  C   -0.297446
    26  C   -0.299719
    27  C   -0.477027
    28  H    0.147537
    29  H    0.153955
    30  H    0.149037
    31  H    0.150322
    32  H    0.157235
    33  H    0.162441
    34  H    0.157848
 Sum of Mulliken charges =  -0.00000

 Dipole moment (field-independent basis, Debye):
    X=             -1.8120    Y=              4.2344    Z=              2.2343  Tot=              5.1192
 Quadrupole moment (field-independent basis, Debye-Ang):
   XX=            -88.2488   YY=           -101.5314   ZZ=            -91.3518
   XY=             -7.0583   XZ=             -5.4632   YZ=             -4.6552

 Normal termination of Gaussian 16 at Wed May  5 20:32:17 2021.
