 Gaussian 16, Revision A.03,
 Gaussian 16:  EM64L-G16RevA.03 25-Dec-2016

 -------------
 #p 6-31g* mp2
 -------------

 ------------------------------------------------------
 Input file generated by CHIRIPA (05-May-2021 14:57:26)
 ------------------------------------------------------
 Symbolic Z-matrix:
 Charge =  0 Multiplicity = 1

                         Standard orientation:
 ---------------------------------------------------------------------
 Center     Atomic      Atomic             Coordinates (Angstroms)
 Number     Number       Type             X           Y           Z
 ---------------------------------------------------------------------
      1          6           0        2.646467    2.322136   -0.260776
      2          6           0        3.994025    1.948987   -0.223770
      3          6           0        4.355423    0.601280   -0.136442
      4          6           0        3.338773   -0.351267   -0.087798
      5          6           0        1.987354   -0.011074   -0.122799
      6          6           0        1.649191    1.342641   -0.210261
      7          1           0        2.374749    3.371400   -0.328666
      8          1           0        4.770653    2.707516   -0.262844
      9          1           0        5.390880    0.284532   -0.106144
     10          1           0        1.235625   -0.789967   -0.082206
     11          1           0        0.601844    1.629512   -0.238828
     12          7           0        3.709071   -1.781204    0.004723
     13          8           0        2.794444   -2.601189    0.046191
     14          8           0        4.906925   -2.054927    0.034021
     15          6           0       -1.984126    2.217231    0.628029
     16          6           0       -2.002594    1.159610    1.543244
     17          6           0       -2.715995   -0.009578    1.262871
     18          6           0       -3.402806   -0.087582    0.052293
     19          6           0       -3.403605    0.948920   -0.879883
     20          6           0       -2.683457    2.108702   -0.578485
     21          1           0       -1.427319    3.121831    0.853996
     22          1           0       -1.460405    1.241109    2.481024
     23          1           0       -2.747234   -0.843558    1.953463
     24          1           0       -3.953783    0.838319   -1.806429
     25          1           0       -2.670890    2.928472   -1.291132
     26          7           0       -4.161623   -1.320370   -0.255654
     27          8           0       -4.758516   -1.364305   -1.329164
     28          8           0       -4.145121   -2.219351    0.582320
 ---------------------------------------------------------------------

 SCF Done:  E(RHF) =  -868.336658891     A.U. after   16 cycles
 E2 =    -0.2601489028D+01 EUMP2 =    -0.87093814791843D+03

 The electronic state is 1-A.
 Alpha  occ. eigenvalues --  -20.61288 -20.61276 -20.60950 -20.60942 -15.86345
 Alpha  occ. eigenvalues --  -15.86003 -11.32002 -11.31468 -11.28570 -11.28546
 Alpha  occ. eigenvalues --  -11.28434 -11.28039 -11.28014 -11.27851 -11.27713
 Alpha  occ. eigenvalues --  -11.27673 -11.27102 -11.26990  -1.60353  -1.60023
 Alpha  occ. eigenvalues --   -1.39897  -1.39573  -1.20218  -1.19648  -1.09590
 Alpha  occ. eigenvalues --   -1.09041  -1.05626  -1.05053  -0.96358  -0.95858
 Alpha  occ. eigenvalues --   -0.87015  -0.86465  -0.83156  -0.82673  -0.78130
 Alpha  occ. eigenvalues --   -0.77702  -0.72556  -0.72218  -0.71681  -0.71350
 Alpha  occ. eigenvalues --   -0.71346  -0.70792  -0.65851  -0.65608  -0.65299
 Alpha  occ. eigenvalues --   -0.65079  -0.62929  -0.62418  -0.56183  -0.55626
 Alpha  occ. eigenvalues --   -0.54099  -0.53694  -0.53398  -0.52991  -0.49339
 Alpha  occ. eigenvalues --   -0.49294  -0.48986  -0.48969  -0.45237  -0.44956
 Alpha  occ. eigenvalues --   -0.38249  -0.37672  -0.37264  -0.36622
 Alpha virt. eigenvalues --    0.04324   0.04817   0.10306   0.11037   0.15653
 Alpha virt. eigenvalues --    0.16287   0.20121   0.21603   0.26492   0.26604
 Alpha virt. eigenvalues --    0.27585   0.28559   0.30298   0.31076   0.31885

 Mulliken charges:
               1
     1  C   -0.174650
     2  C   -0.217959
     3  C   -0.171319
     4  C    0.159438
     5  C   -0.175464
     6  C   -0.227110
     7  H    0.220886
     8  H    0.223513
     9  H    0.276484
    10  H    0.277840
    11  H    0.231093
    12  N    0.487796
    13  O   -0.458288
    14  O   -0.459913
    15  C   -0.187187
    16  C   -0.218389
    17  C   -0.171985
    18  C    0.160051
    19  C   -0.169942
    20  C   -0.218701
    21  H    0.224891
    22  H    0.228766
    23  H    0.281074
    24  H    0.279200
    25  H    0.225602
    26  N    0.487950
    27  O   -0.457812
    28  O   -0.455864
 Sum of Mulliken charges =  -0.00000

 Dipole moment (field-independent basis, Debye):
    X=              1.0824    Y=              9.1497    Z=              0.7868  Tot=              9.2470
 Quadrupole moment (field-independent basis, Debye-Ang):
   XX=           -126.3255   YY=           -109.4025   ZZ=           -101.6357
   XY=              3.0947   XZ=             -3.1969   YZ=             -2.2304

 Normal termination of Gaussian 16 at Fri May  7 01:59:50 2021.
