 Gaussian 16, Revision A.03,
 Gaussian 16:  EM64L-G16RevA.03 25-Dec-2016

 -------------
 #p 6-31g* mp2
 -------------

 ------------------------------------------------------
 Input file generated by CHIRIPA (05-May-2021 14:55:24)
 ------------------------------------------------------
 Symbolic Z-matrix:
 Charge =  0 Multiplicity = 1

                         Standard orientation:
 ---------------------------------------------------------------------
 Center     Atomic      Atomic             Coordinates (Angstroms)
 Number     Number       Type             X           Y           Z
 ---------------------------------------------------------------------
      1          6           0        1.070081    0.856078    1.367824
      2          6           0        1.742652   -0.334370    1.662784
      3          6           0        2.930329   -0.661410    1.001713
      4          6           0        3.419264    0.229019    0.047057
      5          6           0        2.772236    1.422667   -0.268934
      6          6           0        1.586110    1.729258    0.404604
      7          1           0        0.148067    1.102188    1.886202
      8          1           0        1.344228   -1.014385    2.410369
      9          1           0        3.471369   -1.576332    1.210548
     10          1           0        3.193963    2.080601   -1.019059
     11          1           0        1.065916    2.654477    0.173489
     12          7           0        4.675784   -0.106379   -0.659389
     13          8           0        5.085803    0.694924   -1.496309
     14          8           0        5.226833   -1.164216   -0.362805
     15          6           0       -4.619932    0.154784    0.027335
     16          6           0       -6.000289   -0.015306   -0.608014
     17          6           0       -7.006329    1.029748   -0.124751
     18          1           0       -4.716405    0.095139    1.120075
     19          1           0       -4.241515    1.161345   -0.198563
     20          1           0       -6.375394   -1.021735   -0.382151
     21          1           0       -5.900493    0.044560   -1.699377
     22          1           0       -6.657755    2.039608   -0.364082
     23          1           0       -7.135354    0.967254    0.960629
     24          1           0       -7.986298    0.889583   -0.591523
     25          6           0       -3.603233   -0.882585   -0.445863
     26          6           0       -2.222876   -0.712494    0.189486
     27          6           0       -1.216837   -1.757548   -0.293777
     28          1           0       -3.981650   -1.889146   -0.219966
     29          1           0       -3.506761   -0.822939   -1.538603
     30          1           0       -2.322674   -0.772361    1.280849
     31          1           0       -1.847773    0.293934   -0.036378
     32          1           0       -1.087812   -1.695055   -1.379156
     33          1           0       -1.565411   -2.767408   -0.054446
     34          1           0       -0.236869   -1.617384    0.172995
 ---------------------------------------------------------------------

 SCF Done:  E(RHF) =  -669.534714487     A.U. after   15 cycles
 E2 =    -0.2093082778D+01 EUMP2 =    -0.67162779726544D+03

 The electronic state is 1-A.
 Alpha  occ. eigenvalues --  -20.60795 -20.60790 -15.85851 -11.31239 -11.27824
 Alpha  occ. eigenvalues --  -11.27820 -11.27537 -11.26825 -11.26810 -11.22316
 Alpha  occ. eigenvalues --  -11.22054 -11.21960 -11.21902 -11.21485 -11.21412
 Alpha  occ. eigenvalues --   -1.59871  -1.39423  -1.19429  -1.08992  -1.08805
 Alpha  occ. eigenvalues --   -1.04841  -1.04044  -0.96466  -0.95633  -0.87481
 Alpha  occ. eigenvalues --   -0.86226  -0.82473  -0.80132  -0.78812  -0.77517
 Alpha  occ. eigenvalues --   -0.72069  -0.71194  -0.70512  -0.65612  -0.65076
 Alpha  occ. eigenvalues --   -0.64842  -0.62183  -0.61443  -0.59892  -0.58140
 Alpha  occ. eigenvalues --   -0.55740  -0.55313  -0.53595  -0.53012  -0.52921
 Alpha  occ. eigenvalues --   -0.52519  -0.50399  -0.48832  -0.48822  -0.48431
 Alpha  occ. eigenvalues --   -0.47177  -0.46341  -0.46273  -0.44825  -0.44307
 Alpha  occ. eigenvalues --   -0.37335  -0.36398
 Alpha virt. eigenvalues --    0.05002   0.11118   0.16427   0.20630   0.22519
 Alpha virt. eigenvalues --    0.24107   0.25915   0.26309   0.26917   0.27873
 Alpha virt. eigenvalues --    0.28763   0.30586   0.30848   0.31864   0.32101

 Mulliken charges:
               1
     1  C   -0.165347
     2  C   -0.223870
     3  C   -0.170312
     4  C    0.158764
     5  C   -0.170215
     6  C   -0.219785
     7  H    0.228968
     8  H    0.225113
     9  H    0.276210
    10  H    0.275900
    11  H    0.223699
    12  N    0.488129
    13  O   -0.460349
    14  O   -0.460180
    15  C   -0.298270
    16  C   -0.300011
    17  C   -0.475920
    18  H    0.148265
    19  H    0.147381
    20  H    0.153114
    21  H    0.153268
    22  H    0.154841
    23  H    0.155001
    24  H    0.161937
    25  C   -0.298099
    26  C   -0.300191
    27  C   -0.482883
    28  H    0.151453
    29  H    0.152299
    30  H    0.144379
    31  H    0.147088
    32  H    0.158373
    33  H    0.154459
    34  H    0.166791
 Sum of Mulliken charges =  -0.00000

 Dipole moment (field-independent basis, Debye):
    X=             -4.4172    Y=              1.1876    Z=              2.4542  Tot=              5.1909
 Quadrupole moment (field-independent basis, Debye-Ang):
   XX=           -126.1110   YY=            -90.8934   ZZ=            -93.1614
   XY=              3.5128   XZ=              8.7556   YZ=             -2.5529

 Normal termination of Gaussian 16 at Thu May  6 17:40:07 2021.
