 Gaussian 16, Revision A.03,
 Gaussian 16:  EM64L-G16RevA.03 25-Dec-2016

 -------------
 #p 6-31g* mp2
 -------------

 ------------------------------------------------------
 Input file generated by CHIRIPA (05-May-2021 14:55:22)
 ------------------------------------------------------
 Symbolic Z-matrix:
 Charge =  0 Multiplicity = 1

                         Standard orientation:
 ---------------------------------------------------------------------
 Center     Atomic      Atomic             Coordinates (Angstroms)
 Number     Number       Type             X           Y           Z
 ---------------------------------------------------------------------
      1          6           0        2.345523    2.669403    0.000241
      2          6           0        3.217290    2.070667   -0.915215
      3          6           0        3.513235    0.707182   -0.826484
      4          6           0        2.917012   -0.030939    0.194783
      5          6           0        2.044442    0.536707    1.121978
      6          6           0        1.762909    1.901865    1.014128
      7          1           0        2.121224    3.729240   -0.076113
      8          1           0        3.671212    2.664287   -1.703640
      9          1           0        4.184592    0.218171   -1.521872
     10          1           0        1.607299   -0.080962    1.897096
     11          1           0        1.085513    2.364179    1.726481
     12          7           0        3.222688   -1.475285    0.298839
     13          8           0        2.684456   -2.103687    1.207714
     14          8           0        3.994720   -1.951611   -0.530447
     15          6           0       -3.127029   -0.718853   -0.516317
     16          6           0       -1.711501   -0.177932   -0.312189
     17          6           0       -0.637681   -1.096779   -0.895649
     18          1           0       -3.202894   -1.712995   -0.054939
     19          1           0       -3.307210   -0.858548   -1.591220
     20          1           0       -1.534532   -0.037993    0.761922
     21          1           0       -1.639052    0.815120   -0.773940
     22          1           0       -0.786218   -1.227681   -1.972404
     23          1           0       -0.681104   -2.085640   -0.427815
     24          1           0        0.366558   -0.690955   -0.738572
     25          6           0       -4.211552    0.188659    0.061575
     26          6           0       -5.627081   -0.352262   -0.142553
     27          6           0       -6.700901    0.566585    0.440907
     28          1           0       -4.031371    0.328354    1.136478
     29          1           0       -4.135688    1.182802   -0.399803
     30          1           0       -5.699529   -1.345313    0.319199
     31          1           0       -5.804049   -0.492201   -1.216665
     32          1           0       -6.657477    1.555446   -0.026927
     33          1           0       -6.552363    0.697487    1.517663
     34          1           0       -7.705139    0.160761    0.283830
 ---------------------------------------------------------------------

 SCF Done:  E(RHF) =  -669.534274406     A.U. after   15 cycles
 E2 =    -0.2093600182D+01 EUMP2 =    -0.67162787458746D+03

 The electronic state is 1-A.
 Alpha  occ. eigenvalues --  -20.60791 -20.60778 -15.85832 -11.31194 -11.27808
 Alpha  occ. eigenvalues --  -11.27783 -11.27555 -11.26822 -11.26811 -11.21687
 Alpha  occ. eigenvalues --  -11.21683 -11.21506 -11.21403 -11.21182 -11.20799
 Alpha  occ. eigenvalues --   -1.59857  -1.39410  -1.19425  -1.08804  -1.08496
 Alpha  occ. eigenvalues --   -1.04821  -1.03561  -0.95999  -0.95625  -0.87018
 Alpha  occ. eigenvalues --   -0.86207  -0.82457  -0.79638  -0.78321  -0.77498
 Alpha  occ. eigenvalues --   -0.72056  -0.71202  -0.70515  -0.65129  -0.65060
 Alpha  occ. eigenvalues --   -0.64807  -0.62162  -0.60953  -0.59448  -0.57692
 Alpha  occ. eigenvalues --   -0.55321  -0.55253  -0.53531  -0.52898  -0.52533
 Alpha  occ. eigenvalues --   -0.52118  -0.49919  -0.48817  -0.48808  -0.47946
 Alpha  occ. eigenvalues --   -0.46676  -0.45856  -0.45791  -0.44805  -0.43835
 Alpha  occ. eigenvalues --   -0.37330  -0.36387
 Alpha virt. eigenvalues --    0.04999   0.11205   0.16472   0.21144   0.22823
 Alpha virt. eigenvalues --    0.24242   0.26266   0.26992   0.27797   0.27910
 Alpha virt. eigenvalues --    0.28381   0.30911   0.31413   0.31852   0.31887

 Mulliken charges:
               1
     1  C   -0.171495
     2  C   -0.217686
     3  C   -0.171984
     4  C    0.155909
     5  C   -0.173806
     6  C   -0.213939
     7  H    0.225969
     8  H    0.223726
     9  H    0.276077
    10  H    0.275845
    11  H    0.224257
    12  N    0.491694
    13  O   -0.460235
    14  O   -0.460475
    15  C   -0.298645
    16  C   -0.297118
    17  C   -0.482044
    18  H    0.152324
    19  H    0.150323
    20  H    0.144555
    21  H    0.148381
    22  H    0.154468
    23  H    0.163174
    24  H    0.163120
    25  C   -0.297847
    26  C   -0.299735
    27  C   -0.475662
    28  H    0.147788
    29  H    0.147529
    30  H    0.153287
    31  H    0.152401
    32  H    0.154210
    33  H    0.154716
    34  H    0.160919
 Sum of Mulliken charges =  -0.00000

 Dipole moment (field-independent basis, Debye):
    X=             -1.0129    Y=              5.0507    Z=             -0.3748  Tot=              5.1649
 Quadrupole moment (field-independent basis, Debye-Ang):
   XX=           -100.6093   YY=            -95.5784   ZZ=            -91.4014
   XY=             15.9170   XZ=             -3.6898   YZ=              0.0119

 Normal termination of Gaussian 16 at Thu May  6 14:14:47 2021.
