 Gaussian 16, Revision A.03,
 Gaussian 16:  EM64L-G16RevA.03 25-Dec-2016

 -------------
 #p 6-31g* mp2
 -------------

 ------------------------------------------------------
 Input file generated by CHIRIPA (05-May-2021 14:57:26)
 ------------------------------------------------------
 Symbolic Z-matrix:
 Charge =  0 Multiplicity = 1

                         Standard orientation:
 ---------------------------------------------------------------------
 Center     Atomic      Atomic             Coordinates (Angstroms)
 Number     Number       Type             X           Y           Z
 ---------------------------------------------------------------------
      1          6           0        3.672474    1.954726   -1.308292
      2          6           0        3.700987    2.052155    0.086776
      3          6           0        3.298735    0.975036    0.882109
      4          6           0        2.871781   -0.189719    0.246228
      5          6           0        2.832008   -0.317515   -1.141352
      6          6           0        3.238840    0.772287   -1.916831
      7          1           0        3.986733    2.796384   -1.918415
      8          1           0        4.037283    2.969220    0.562111
      9          1           0        3.310780    1.023352    1.964208
     10          1           0        2.491814   -1.244689   -1.586362
     11          1           0        3.215645    0.693781   -3.000041
     12          7           0        2.443510   -1.336730    1.077702
     13          8           0        2.071549   -2.351907    0.493151
     14          8           0        2.487901   -1.198862    2.298218
     15          6           0       -4.144557    2.077861    0.669248
     16          6           0       -4.875395    0.971860    0.222976
     17          6           0       -4.219826   -0.184325   -0.210628
     18          6           0       -2.826142   -0.200137   -0.184447
     19          6           0       -2.069986    0.885592    0.254544
     20          6           0       -2.746650    2.031279    0.683583
     21          1           0       -4.662013    2.971936    1.004310
     22          1           0       -5.961114    1.005207    0.210743
     23          1           0       -4.760905   -1.054854   -0.561096
     24          1           0       -0.988579    0.822529    0.255142
     25          1           0       -2.176481    2.888715    1.029643
     26          7           0       -2.120954   -1.418581   -0.641068
     27          8           0       -0.892365   -1.407335   -0.608212
     28          8           0       -2.810169   -2.361773   -1.023178
 ---------------------------------------------------------------------

 SCF Done:  E(RHF) =  -868.336951573     A.U. after   16 cycles
 E2 =    -0.2600847812D+01 EUMP2 =    -0.87093779938486D+03

 The electronic state is 1-A.
 Alpha  occ. eigenvalues --  -20.60447 -20.60419 -20.60049 -20.59890 -15.85488
 Alpha  occ. eigenvalues --  -15.85019 -11.30987 -11.30691 -11.27587 -11.27569
 Alpha  occ. eigenvalues --  -11.27370 -11.27353 -11.27194 -11.27134 -11.26636
 Alpha  occ. eigenvalues --  -11.26615 -11.26436 -11.26325  -1.59501  -1.59031
 Alpha  occ. eigenvalues --   -1.39056  -1.38571  -1.19176  -1.18901  -1.08547
 Alpha  occ. eigenvalues --   -1.08245  -1.04603  -1.04337  -0.95360  -0.95021
 Alpha  occ. eigenvalues --   -0.85996  -0.85716  -0.82199  -0.81843  -0.77232
 Alpha  occ. eigenvalues --   -0.76825  -0.71752  -0.71230  -0.70834  -0.70335
 Alpha  occ. eigenvalues --   -0.70257  -0.69996  -0.64832  -0.64614  -0.64537
 Alpha  occ. eigenvalues --   -0.64340  -0.61954  -0.61658  -0.55106  -0.54848
 Alpha  occ. eigenvalues --   -0.52920  -0.52741  -0.52637  -0.52422  -0.48476
 Alpha  occ. eigenvalues --   -0.48457  -0.48043  -0.47961  -0.44476  -0.43832
 Alpha  occ. eigenvalues --   -0.37166  -0.36920  -0.36210  -0.35959
 Alpha virt. eigenvalues --    0.05326   0.05710   0.11441   0.11689   0.16778
 Alpha virt. eigenvalues --    0.17126   0.21499   0.21800   0.27356   0.27698
 Alpha virt. eigenvalues --    0.28300   0.28759   0.30862   0.31359   0.32458

 Mulliken charges:
               1
     1  C   -0.172735
     2  C   -0.220828
     3  C   -0.175961
     4  C    0.156716
     5  C   -0.164805
     6  C   -0.220920
     7  H    0.222864
     8  H    0.219811
     9  H    0.273166
    10  H    0.285499
    11  H    0.223260
    12  N    0.488069
    13  O   -0.443698
    14  O   -0.469248
    15  C   -0.171167
    16  C   -0.218500
    17  C   -0.170846
    18  C    0.159401
    19  C   -0.169762
    20  C   -0.218416
    21  H    0.224458
    22  H    0.222873
    23  H    0.275800
    24  H    0.273185
    25  H    0.221430
    26  N    0.489465
    27  O   -0.458848
    28  O   -0.460262
 Sum of Mulliken charges =  -0.00000

 Dipole moment (field-independent basis, Debye):
    X=             -1.0728    Y=              7.9598    Z=             -1.4540  Tot=              8.1623
 Quadrupole moment (field-independent basis, Debye-Ang):
   XX=            -79.7250   YY=           -106.6938   ZZ=           -104.5697
   XY=              1.8636   XZ=            -10.8049   YZ=              3.6180

 Normal termination of Gaussian 16 at Fri May  7 06:37:04 2021.
