 Gaussian 16, Revision A.03,
 Gaussian 16:  EM64L-G16RevA.03 25-Dec-2016

 -------------
 #p 6-31g* mp2
 -------------

 ------------------------------------------------------
 Input file generated by CHIRIPA (05-May-2021 14:57:25)
 ------------------------------------------------------
 Symbolic Z-matrix:
 Charge =  0 Multiplicity = 1

                         Standard orientation:
 ---------------------------------------------------------------------
 Center     Atomic      Atomic             Coordinates (Angstroms)
 Number     Number       Type             X           Y           Z
 ---------------------------------------------------------------------
      1          6           0       -2.082057    1.101203    0.328648
      2          6           0       -2.156813   -0.293050    0.245045
      3          6           0       -3.389101   -0.928525    0.065640
      4          6           0       -4.531759   -0.135353   -0.026563
      5          6           0       -4.489849    1.255763    0.052999
      6          6           0       -3.246760    1.869805    0.232527
      7          1           0       -1.120590    1.586531    0.468062
      8          1           0       -1.253932   -0.892490    0.319364
      9          1           0       -3.475714   -2.006156   -0.002377
     10          1           0       -5.407197    1.826616   -0.024560
     11          1           0       -3.191716    2.952784    0.297109
     12          7           0       -5.842044   -0.796757   -0.216556
     13          8           0       -6.834111   -0.075432   -0.294854
     14          8           0       -5.852169   -2.023966   -0.283577
     15          6           0        2.877331    2.098938    0.027913
     16          6           0        4.203621    2.174201   -0.410046
     17          6           0        5.009848    1.032253   -0.432394
     18          6           0        4.454875   -0.174025   -0.007908
     19          6           0        3.137070   -0.281197    0.433900
     20          6           0        2.349219    0.873639    0.447748
     21          1           0        2.258171    2.991037    0.041972
     22          1           0        4.616424    3.124442   -0.736668
     23          1           0        6.039805    1.062120   -0.766632
     24          1           0        2.753639   -1.242593    0.753457
     25          1           0        1.319538    0.812211    0.788378
     26          7           0        5.298664   -1.389776   -0.027069
     27          8           0        4.786034   -2.440563    0.352001
     28          8           0        6.456680   -1.268875   -0.420794
 ---------------------------------------------------------------------

 SCF Done:  E(RHF) =  -868.336023522     A.U. after   16 cycles
 E2 =    -0.2599875317D+01 EUMP2 =    -0.87093589883909D+03

 The electronic state is 1-A.
 Alpha  occ. eigenvalues --  -20.61390 -20.61381 -20.61209 -20.61203 -15.86451
 Alpha  occ. eigenvalues --  -15.86268 -11.31976 -11.31790 -11.28641 -11.28536
 Alpha  occ. eigenvalues --  -11.28410 -11.28370 -11.28364 -11.28302 -11.27786
 Alpha  occ. eigenvalues --  -11.27574 -11.27506 -11.27466  -1.60461  -1.60280
 Alpha  occ. eigenvalues --   -1.40010  -1.39829  -1.20185  -1.19995  -1.09559
 Alpha  occ. eigenvalues --   -1.09393  -1.05627  -1.05414  -0.96359  -0.96196
 Alpha  occ. eigenvalues --   -0.87033  -0.86825  -0.83199  -0.83013  -0.78214
 Alpha  occ. eigenvalues --   -0.78002  -0.72667  -0.72485  -0.71786  -0.71604
 Alpha  occ. eigenvalues --   -0.71324  -0.71195  -0.65851  -0.65758  -0.65636
 Alpha  occ. eigenvalues --   -0.65393  -0.62992  -0.62740  -0.56179  -0.56013
 Alpha  occ. eigenvalues --   -0.53925  -0.53739  -0.53731  -0.53522  -0.49439
 Alpha  occ. eigenvalues --   -0.49409  -0.49258  -0.49227  -0.45380  -0.45199
 Alpha  occ. eigenvalues --   -0.38177  -0.38025  -0.37222  -0.37000
 Alpha virt. eigenvalues --    0.04354   0.04525   0.10400   0.10642   0.15774
 Alpha virt. eigenvalues --    0.15963   0.17087   0.22124   0.24655   0.25347
 Alpha virt. eigenvalues --    0.27754   0.29020   0.29998   0.30653   0.32188

 Mulliken charges:
               1
     1  C   -0.171687
     2  C   -0.217763
     3  C   -0.169594
     4  C    0.159300
     5  C   -0.169891
     6  C   -0.217736
     7  H    0.216175
     8  H    0.219805
     9  H    0.278699
    10  H    0.277628
    11  H    0.223840
    12  N    0.487880
    13  O   -0.458870
    14  O   -0.458142
    15  C   -0.170413
    16  C   -0.218007
    17  C   -0.169387
    18  C    0.159560
    19  C   -0.170360
    20  C   -0.221472
    21  H    0.222993
    22  H    0.226280
    23  H    0.278557
    24  H    0.275485
    25  H    0.216222
    26  N    0.487982
    27  O   -0.459305
    28  O   -0.457780
 Sum of Mulliken charges =  -0.00000

 Dipole moment (field-independent basis, Debye):
    X=              1.6846    Y=              6.5526    Z=              0.6551  Tot=              6.7973
 Quadrupole moment (field-independent basis, Debye-Ang):
   XX=           -167.5073   YY=           -101.8441   ZZ=           -105.9415
   XY=              8.7350   XZ=             -4.5125   YZ=             -1.4248

 Normal termination of Gaussian 16 at Wed May  5 17:56:26 2021.
