 Gaussian 16, Revision A.03,
 Gaussian 16:  EM64L-G16RevA.03 25-Dec-2016

 -------------
 #p 6-31g* mp2
 -------------

 ------------------------------------------------------
 Input file generated by CHIRIPA (05-May-2021 14:55:22)
 ------------------------------------------------------
 Symbolic Z-matrix:
 Charge =  0 Multiplicity = 1

                         Standard orientation:
 ---------------------------------------------------------------------
 Center     Atomic      Atomic             Coordinates (Angstroms)
 Number     Number       Type             X           Y           Z
 ---------------------------------------------------------------------
      1          6           0       -5.692955    0.031811    0.104475
      2          6           0       -4.878231    1.094236   -0.300493
      3          6           0       -3.493065    0.930515   -0.395672
      4          6           0       -2.953745   -0.314790   -0.076866
      5          6           0       -3.738987   -1.392495    0.329629
      6          6           0       -5.121740   -1.205981    0.417691
      7          1           0       -6.768048    0.167847    0.175648
      8          1           0       -5.319088    2.056638   -0.544364
      9          1           0       -2.838961    1.736081   -0.706525
     10          1           0       -3.270481   -2.340109    0.566162
     11          1           0       -5.752016   -2.032848    0.732474
     12          7           0       -1.488609   -0.500179   -0.173861
     13          8           0       -1.037984   -1.607220    0.112554
     14          8           0       -0.818604    0.465064   -0.534464
     15          6           0        4.013473    1.123636    0.094604
     16          6           0        2.568037    1.583625    0.287242
     17          6           0        2.431386    3.106170    0.318516
     18          1           0        4.632663    1.532212    0.904922
     19          1           0        4.404044    1.547054   -0.841112
     20          1           0        2.179858    1.158339    1.221622
     21          1           0        1.952181    1.173749   -0.523521
     22          1           0        2.792735    3.544688   -0.617289
     23          1           0        3.021706    3.529190    1.137770
     24          1           0        1.389993    3.413020    0.457089
     25          6           0        4.166283   -0.395991    0.061249
     26          6           0        5.611720   -0.855981   -0.131389
     27          6           0        5.748370   -2.378525   -0.162662
     28          1           0        3.775712   -0.819410    0.996966
     29          1           0        3.547094   -0.804567   -0.749069
     30          1           0        6.227576   -0.446104    0.679375
     31          1           0        5.999898   -0.430695   -1.065769
     32          1           0        5.158050   -2.801545   -0.981916
     33          1           0        5.387021   -2.817043    0.773143
     34          1           0        6.789764   -2.685375   -0.301235
 ---------------------------------------------------------------------

 SCF Done:  E(RHF) =  -669.535947747     A.U. after   15 cycles
 E2 =    -0.2091050213D+01 EUMP2 =    -0.67162699795998D+03

 The electronic state is 1-A.
 Alpha  occ. eigenvalues --  -20.60950 -20.60937 -15.85979 -11.31303 -11.27866
 Alpha  occ. eigenvalues --  -11.27862 -11.27603 -11.26873 -11.26864 -11.20619
 Alpha  occ. eigenvalues --  -11.20201 -11.20131 -11.20067 -11.19877 -11.19817
 Alpha  occ. eigenvalues --   -1.60006  -1.39563  -1.19471  -1.08875  -1.07163
 Alpha  occ. eigenvalues --   -1.04867  -1.02303  -0.95717  -0.94816  -0.86268
 Alpha  occ. eigenvalues --   -0.85841  -0.82552  -0.78358  -0.77603  -0.76908
 Alpha  occ. eigenvalues --   -0.72197  -0.71321  -0.70579  -0.65127  -0.64870
 Alpha  occ. eigenvalues --   -0.63806  -0.62215  -0.59710  -0.58181  -0.56388
 Alpha  occ. eigenvalues --   -0.55371  -0.54131  -0.53199  -0.52959  -0.51541
 Alpha  occ. eigenvalues --   -0.51230  -0.49039  -0.48952  -0.48753  -0.46646
 Alpha  occ. eigenvalues --   -0.45373  -0.44983  -0.44456  -0.44321  -0.42560
 Alpha  occ. eigenvalues --   -0.37450  -0.36469
 Alpha virt. eigenvalues --    0.04925   0.11186   0.16423   0.21315   0.24053
 Alpha virt. eigenvalues --    0.25423   0.27236   0.27902   0.28157   0.28858
 Alpha virt. eigenvalues --    0.29122   0.30884   0.32306   0.32541   0.32995

 Mulliken charges:
               1
     1  C   -0.170606
     2  C   -0.218532
     3  C   -0.170898
     4  C    0.157709
     5  C   -0.170596
     6  C   -0.218588
     7  H    0.226017
     8  H    0.223872
     9  H    0.275695
    10  H    0.275886
    11  H    0.223837
    12  N    0.490441
    13  O   -0.459077
    14  O   -0.461247
    15  C   -0.298615
    16  C   -0.302030
    17  C   -0.475140
    18  H    0.143312
    19  H    0.144727
    20  H    0.150336
    21  H    0.176888
    22  H    0.150121
    23  H    0.148357
    24  H    0.158509
    25  C   -0.297394
    26  C   -0.298825
    27  C   -0.474822
    28  H    0.150418
    29  H    0.155479
    30  H    0.148735
    31  H    0.149258
    32  H    0.155795
    33  H    0.154753
    34  H    0.156226
 Sum of Mulliken charges =  -0.00000

 Dipole moment (field-independent basis, Debye):
    X=             -5.5474    Y=              0.5201    Z=              0.2752  Tot=              5.5785
 Quadrupole moment (field-independent basis, Debye-Ang):
   XX=            -66.4806   YY=            -92.5967   ZZ=            -94.2596
   XY=              0.1335   XZ=             -0.8619   YZ=             -2.0384

 Normal termination of Gaussian 16 at Thu May  6 04:39:59 2021.
