 Gaussian 16, Revision A.03,
 Gaussian 16:  EM64L-G16RevA.03 25-Dec-2016

 -------------
 #p 6-31g* mp2
 -------------

 ------------------------------------------------------
 Input file generated by CHIRIPA (05-May-2021 14:55:22)
 ------------------------------------------------------
 Symbolic Z-matrix:
 Charge =  0 Multiplicity = 1

                         Standard orientation:
 ---------------------------------------------------------------------
 Center     Atomic      Atomic             Coordinates (Angstroms)
 Number     Number       Type             X           Y           Z
 ---------------------------------------------------------------------
      1          6           0       -4.487281   -1.341755   -1.335039
      2          6           0       -3.758352   -2.085489   -0.401207
      3          6           0       -2.899430   -1.448356    0.499273
      4          6           0       -2.793146   -0.059758    0.437721
      5          6           0       -3.506071    0.708922   -0.481060
      6          6           0       -4.359040    0.050622   -1.371920
      7          1           0       -5.152200   -1.844917   -2.030817
      8          1           0       -3.855958   -3.166952   -0.370270
      9          1           0       -2.323360   -1.999706    1.232467
     10          1           0       -3.387833    1.785674   -0.487724
     11          1           0       -4.923904    0.630776   -2.096072
     12          7           0       -1.886995    0.625951    1.385927
     13          8           0       -1.811036    1.850408    1.311289
     14          8           0       -1.269871   -0.074032    2.185813
     15          6           0        3.029358    0.392098   -0.465105
     16          6           0        2.779775    1.882569   -0.697901
     17          6           0        1.300573    2.208819   -0.906023
     18          1           0        2.644273   -0.176025   -1.322945
     19          1           0        2.453629    0.063534    0.411236
     20          1           0        3.356889    2.208535   -1.572717
     21          1           0        3.165671    2.447225    0.160506
     22          1           0        0.713618    1.911139   -0.031111
     23          1           0        0.905921    1.671092   -1.774182
     24          1           0        1.144926    3.279581   -1.070656
     25          6           0        4.503418    0.050195   -0.255395
     26          6           0        4.753000   -1.440274   -0.022599
     27          6           0        6.232202   -1.766525    0.185523
     28          1           0        5.079148    0.378760   -1.131737
     29          1           0        4.888502    0.618319    0.602445
     30          1           0        4.367104   -2.004932   -0.881006
     31          1           0        4.175887   -1.766240    0.852217
     32          1           0        6.626855   -1.228798    1.053682
     33          1           0        6.819158   -1.468845   -0.689389
     34          1           0        6.387850   -2.837286    0.350155
 ---------------------------------------------------------------------

 SCF Done:  E(RHF) =  -669.536282743     A.U. after   15 cycles
 E2 =    -0.2091117701D+01 EUMP2 =    -0.67162740044405D+03

 The electronic state is 1-A.
 Alpha  occ. eigenvalues --  -20.60936 -20.60918 -15.85949 -11.31251 -11.27817
 Alpha  occ. eigenvalues --  -11.27809 -11.27556 -11.26821 -11.26811 -11.21143
 Alpha  occ. eigenvalues --  -11.20831 -11.20820 -11.20694 -11.20670 -11.20093
 Alpha  occ. eigenvalues --   -1.59989  -1.39544  -1.19421  -1.08830  -1.07805
 Alpha  occ. eigenvalues --   -1.04815  -1.02890  -0.95676  -0.95332  -0.86351
 Alpha  occ. eigenvalues --   -0.86216  -0.82510  -0.78971  -0.77617  -0.77561
 Alpha  occ. eigenvalues --   -0.72172  -0.71306  -0.70532  -0.65077  -0.64820
 Alpha  occ. eigenvalues --   -0.64430  -0.62162  -0.60277  -0.58726  -0.56952
 Alpha  occ. eigenvalues --   -0.55325  -0.54609  -0.53146  -0.52908  -0.52032
 Alpha  occ. eigenvalues --   -0.51769  -0.49303  -0.48937  -0.48905  -0.47294
 Alpha  occ. eigenvalues --   -0.46022  -0.45190  -0.45097  -0.44805  -0.43148
 Alpha  occ. eigenvalues --   -0.37399  -0.36414
 Alpha virt. eigenvalues --    0.04937   0.11240   0.16424   0.21367   0.23488
 Alpha virt. eigenvalues --    0.24957   0.27261   0.27285   0.28017   0.28259
 Alpha virt. eigenvalues --    0.28689   0.30894   0.32047   0.32305   0.32542

 Mulliken charges:
               1
     1  C   -0.170530
     2  C   -0.218666
     3  C   -0.170684
     4  C    0.158877
     5  C   -0.170228
     6  C   -0.218722
     7  H    0.225844
     8  H    0.223663
     9  H    0.275661
    10  H    0.276295
    11  H    0.223756
    12  N    0.487370
    13  O   -0.458203
    14  O   -0.460057
    15  C   -0.300415
    16  C   -0.298433
    17  C   -0.483206
    18  H    0.144859
    19  H    0.157228
    20  H    0.147150
    21  H    0.153861
    22  H    0.174132
    23  H    0.145615
    24  H    0.158438
    25  C   -0.297737
    26  C   -0.299537
    27  C   -0.475350
    28  H    0.147215
    29  H    0.150664
    30  H    0.149328
    31  H    0.153780
    32  H    0.155636
    33  H    0.153919
    34  H    0.158478
 Sum of Mulliken charges =  -0.00000

 Dipole moment (field-independent basis, Debye):
    X=             -3.3943    Y=             -2.4002    Z=             -3.1980  Tot=              5.2449
 Quadrupole moment (field-independent basis, Debye-Ang):
   XX=            -78.8231   YY=            -90.9018   ZZ=            -96.7452
   XY=              6.2690   XZ=              8.8628   YZ=             -2.4671

 Normal termination of Gaussian 16 at Thu May  6 12:32:52 2021.
