 Gaussian 16, Revision A.03,
 Gaussian 16:  EM64L-G16RevA.03 25-Dec-2016

 -------------
 #p 6-31g* mp2
 -------------

 ------------------------------------------------------
 Input file generated by CHIRIPA (05-May-2021 14:51:13)
 ------------------------------------------------------
 Symbolic Z-matrix:
 Charge =  0 Multiplicity = 1

                         Standard orientation:
 ---------------------------------------------------------------------
 Center     Atomic      Atomic             Coordinates (Angstroms)
 Number     Number       Type             X           Y           Z
 ---------------------------------------------------------------------
      1          6           0        4.485335    0.068663    0.215043
      2          6           0        5.403800   -1.045821   -0.287285
      3          6           0        6.855621   -0.859604    0.154679
      4          1           0        4.859677    1.035413   -0.148560
      5          1           0        4.533520    0.107423    1.312117
      6          1           0        5.352837   -1.083374   -1.383008
      7          1           0        5.027119   -2.010048    0.077397
      8          1           0        6.926777   -0.843914    1.247058
      9          1           0        7.254345    0.088025   -0.221646
     10          1           0        7.494682   -1.667397   -0.215361
     11          6           0        3.030685   -0.103505   -0.218637
     12          6           0        2.112220    1.010979    0.283691
     13          6           0        0.660399    0.824762   -0.158273
     14          1           0        2.982500   -0.142265   -1.315711
     15          1           0        2.656343   -1.070255    0.144966
     16          1           0        2.488901    1.975206   -0.080991
     17          1           0        2.163183    1.048533    1.379414
     18          1           0        0.261674   -0.122867    0.218051
     19          1           0        0.589243    0.809072   -1.250652
     20          1           0        0.021338    1.632556    0.211767
     21          6           0       -3.616072    0.680910    0.352608
     22          6           0       -3.002020    1.735020   -0.569225
     23          6           0       -2.723810    3.056873    0.147082
     24          1           0       -4.550373    1.073452    0.776799
     25          1           0       -2.938202    0.504634    1.199256
     26          1           0       -3.680206    1.908246   -1.414607
     27          1           0       -2.069171    1.339848   -0.991420
     28          1           0       -2.029199    2.905139    0.979605
     29          1           0       -3.649389    3.476767    0.554014
     30          1           0       -2.285058    3.796034   -0.530412
     31          6           0       -3.899947   -0.646068   -0.349014
     32          6           0       -4.514001   -1.700178    0.572819
     33          6           0       -4.792211   -3.022031   -0.143488
     34          1           0       -4.577819   -0.469792   -1.195662
     35          1           0       -2.965647   -1.038611   -0.773205
     36          1           0       -5.446849   -1.305007    0.995014
     37          1           0       -3.835813   -1.873404    1.418201
     38          1           0       -3.866630   -3.441925   -0.550420
     39          1           0       -5.486821   -2.870298   -0.976012
     40          1           0       -5.230961   -3.761193    0.534006
 ---------------------------------------------------------------------

 SCF Done:  E(RHF) =  -470.732524121     A.U. after   11 cycles
 E2 =    -0.1583491400D+01 EUMP2 =    -0.47231601552120D+03

 The electronic state is 1-A.
 Alpha  occ. eigenvalues --  -11.21643 -11.21624 -11.21559 -11.21438 -11.21431
 Alpha  occ. eigenvalues --  -11.21377 -11.21329 -11.21265 -11.21123 -11.21089
 Alpha  occ. eigenvalues --  -11.21041 -11.21038  -1.08470  -1.08353  -1.03599
 Alpha  occ. eigenvalues --   -1.03445  -0.96053  -0.95907  -0.87058  -0.86943
 Alpha  occ. eigenvalues --   -0.79689  -0.79490  -0.78286  -0.78155  -0.65097
 Alpha  occ. eigenvalues --   -0.65012  -0.61028  -0.60962  -0.59337  -0.59254
 Alpha  occ. eigenvalues --   -0.57638  -0.57535  -0.55348  -0.55208  -0.52688
 Alpha  occ. eigenvalues --   -0.52618  -0.52449  -0.52333  -0.49974  -0.49874
 Alpha  occ. eigenvalues --   -0.47954  -0.47841  -0.46709  -0.46518  -0.45865
 Alpha  occ. eigenvalues --   -0.45749  -0.45691  -0.45579  -0.43788  -0.43691
 Alpha virt. eigenvalues --    0.21212   0.22990   0.23688   0.25003   0.25795
 Alpha virt. eigenvalues --    0.26536   0.26847   0.27653   0.27846   0.29217
 Alpha virt. eigenvalues --    0.30648   0.30976   0.31763   0.31841   0.32251

 Mulliken charges:
               1
     1  C   -0.298292
     2  C   -0.299631
     3  C   -0.475721
     4  H    0.149755
     5  H    0.149563
     6  H    0.151966
     7  H    0.151925
     8  H    0.155211
     9  H    0.155232
    10  H    0.160328
    11  C   -0.298687
    12  C   -0.300065
    13  C   -0.482698
    14  H    0.149592
    15  H    0.149462
    16  H    0.152372
    17  H    0.151848
    18  H    0.154989
    19  H    0.155003
    20  H    0.168577
    21  C   -0.297824
    22  C   -0.307388
    23  C   -0.477934
    24  H    0.149036
    25  H    0.149502
    26  H    0.151326
    27  H    0.163119
    28  H    0.154540
    29  H    0.155666
    30  H    0.160074
    31  C   -0.298830
    32  C   -0.299536
    33  C   -0.475647
    34  H    0.149307
    35  H    0.150229
    36  H    0.151832
    37  H    0.151565
    38  H    0.155051
    39  H    0.155146
    40  H    0.160035
 Sum of Mulliken charges =  -0.00000

 Dipole moment (field-independent basis, Debye):
    X=              0.0396    Y=              0.0083    Z=             -0.0136  Tot=              0.0427
 Quadrupole moment (field-independent basis, Debye-Ang):
   XX=            -85.3045   YY=            -85.4888   ZZ=            -84.2122
   XY=             -0.4287   XZ=             -0.2750   YZ=             -0.9459

 Normal termination of Gaussian 16 at Thu May  6 00:48:21 2021.
