 Gaussian 16, Revision A.03,
 Gaussian 16:  EM64L-G16RevA.03 25-Dec-2016

 -------------
 #p 6-31g* mp2
 -------------

 ------------------------------------------------------
 Input file generated by CHIRIPA (05-May-2021 14:53:16)
 ------------------------------------------------------
 Symbolic Z-matrix:
 Charge =  0 Multiplicity = 1

                         Standard orientation:
 ---------------------------------------------------------------------
 Center     Atomic      Atomic             Coordinates (Angstroms)
 Number     Number       Type             X           Y           Z
 ---------------------------------------------------------------------
      1          6           0       -4.932909   -0.271165   -0.387900
      2          6           0       -5.856372   -0.229851    0.830087
      3          6           0       -7.335583   -0.165577    0.448513
      4          1           0       -5.114760    0.617108   -1.008260
      5          1           0       -5.191309   -1.142226   -1.005862
      6          1           0       -5.595394    0.640095    1.446285
      7          1           0       -5.672167   -1.118229    1.447719
      8          1           0       -7.618077   -1.039571   -0.147248
      9          1           0       -7.540868    0.728743   -0.148690
     10          1           0       -7.977799   -0.136814    1.334284
     11          6           0       -3.450960   -0.335572   -0.022650
     12          6           0       -2.527497   -0.376886   -1.240637
     13          6           0       -1.048287   -0.441160   -0.859063
     14          1           0       -3.192560    0.535489    0.595312
     15          1           0       -3.269109   -1.223845    0.597710
     16          1           0       -2.711703    0.511492   -1.858269
     17          1           0       -2.788475   -1.246832   -1.856836
     18          1           0       -0.843001   -1.335480   -0.261860
     19          1           0       -0.765792    0.432834   -0.263302
     20          1           0       -0.406070   -0.469923   -1.744834
     21          6           0        5.068828   -1.535654    0.085575
     22          6           0        4.407553   -1.259198    1.286744
     23          6           0        3.411970   -0.279127    1.339885
     24          6           0        3.101524    0.408381    0.167602
     25          6           0        3.742379    0.155839   -1.044345
     26          6           0        4.734720   -0.828500   -1.074092
     27          1           0        5.840962   -2.298654    0.053380
     28          1           0        4.664950   -1.806806    2.188917
     29          1           0        2.884159   -0.044899    2.256384
     30          1           0        3.463929    0.718336   -1.927227
     31          1           0        5.246612   -1.041082   -2.008340
     32          7           0        2.049260    1.448197    0.211477
     33          8           0        1.794215    2.039866   -0.835192
     34          8           0        1.499467    1.651847    1.291703
 ---------------------------------------------------------------------

 SCF Done:  E(RHF) =  -669.536206168     A.U. after   15 cycles
 E2 =    -0.2091447481D+01 EUMP2 =    -0.67162765364850D+03

 The electronic state is 1-A.
 Alpha  occ. eigenvalues --  -20.60845 -20.60837 -15.85864 -11.31208 -11.27775
 Alpha  occ. eigenvalues --  -11.27771 -11.27520 -11.26788 -11.26778 -11.21124
 Alpha  occ. eigenvalues --  -11.20879 -11.20831 -11.20682 -11.20673 -11.20179
 Alpha  occ. eigenvalues --   -1.59902  -1.39456  -1.19377  -1.08779  -1.07816
 Alpha  occ. eigenvalues --   -1.04778  -1.02909  -0.95621  -0.95359  -0.86385
 Alpha  occ. eigenvalues --   -0.86178  -0.82457  -0.78997  -0.77624  -0.77507
 Alpha  occ. eigenvalues --   -0.72093  -0.71220  -0.70491  -0.65034  -0.64785
 Alpha  occ. eigenvalues --   -0.64441  -0.62127  -0.60293  -0.58742  -0.56969
 Alpha  occ. eigenvalues --   -0.55288  -0.54628  -0.53103  -0.52873  -0.52070
 Alpha  occ. eigenvalues --   -0.51784  -0.49325  -0.48855  -0.48815  -0.47298
 Alpha  occ. eigenvalues --   -0.46004  -0.45174  -0.45069  -0.44860  -0.43166
 Alpha  occ. eigenvalues --   -0.37352  -0.36379
 Alpha virt. eigenvalues --    0.04990   0.11269   0.16479   0.21395   0.23491
 Alpha virt. eigenvalues --    0.24982   0.27279   0.27305   0.28085   0.28173
 Alpha virt. eigenvalues --    0.28685   0.30933   0.32068   0.32163   0.32364

 Mulliken charges:
               1
     1  C   -0.298047
     2  C   -0.299394
     3  C   -0.475404
     4  H    0.150113
     5  H    0.147192
     6  H    0.153298
     7  H    0.150450
     8  H    0.153875
     9  H    0.155232
    10  H    0.158999
    11  C   -0.298977
    12  C   -0.298499
    13  C   -0.485315
    14  H    0.155429
    15  H    0.146604
    16  H    0.154509
    17  H    0.147044
    18  H    0.147476
    19  H    0.175235
    20  H    0.156909
    21  C   -0.170602
    22  C   -0.218681
    23  C   -0.170669
    24  C    0.160249
    25  C   -0.170834
    26  C   -0.218639
    27  H    0.225646
    28  H    0.223485
    29  H    0.275721
    30  H    0.275590
    31  H    0.223470
    32  N    0.489106
    33  O   -0.459488
    34  O   -0.461086
 Sum of Mulliken charges =  -0.00000

 Dipole moment (field-independent basis, Debye):
    X=              3.8561    Y=             -3.5319    Z=             -0.1205  Tot=              5.2306
 Quadrupole moment (field-independent basis, Debye-Ang):
   XX=            -74.0873   YY=            -97.4130   ZZ=            -90.1860
   XY=            -10.2252   XZ=             -0.8319   YZ=             -1.8040

 Normal termination of Gaussian 16 at Thu May  6 01:08:12 2021.
