 Gaussian 16, Revision A.03,
 Gaussian 16:  EM64L-G16RevA.03 25-Dec-2016

 -------------
 #p 6-31g* mp2
 -------------

 ------------------------------------------------------
 Input file generated by CHIRIPA (05-May-2021 14:53:12)
 ------------------------------------------------------
 Symbolic Z-matrix:
 Charge =  0 Multiplicity = 1

                         Standard orientation:
 ---------------------------------------------------------------------
 Center     Atomic      Atomic             Coordinates (Angstroms)
 Number     Number       Type             X           Y           Z
 ---------------------------------------------------------------------
      1          6           0        4.452302   -0.570876    0.279146
      2          6           0        5.506667    0.444865   -0.161954
      3          6           0        6.870618    0.199434    0.483953
      4          1           0        4.353383   -0.535714    1.372729
      5          1           0        4.800695   -1.582576    0.029184
      6          1           0        5.155771    1.454445    0.087516
      7          1           0        5.602950    0.407415   -1.254631
      8          1           0        7.246035   -0.795841    0.224937
      9          1           0        6.796315    0.257138    1.574710
     10          1           0        7.609264    0.936915    0.154736
     11          6           0        3.083454   -0.338663   -0.358082
     12          6           0        2.029089   -1.354404    0.083018
     13          6           0        0.665138   -1.108974   -0.562889
     14          1           0        2.735061    0.673037   -0.108120
     15          1           0        3.182372   -0.373825   -1.451665
     16          1           0        1.932806   -1.316954    1.175695
     17          1           0        2.379985   -2.363984   -0.166452
     18          1           0        0.739441   -1.166677   -1.653646
     19          1           0        0.289721   -0.113698   -0.303873
     20          1           0       -0.073509   -1.846454   -0.233672
     21          6           0       -4.265108   -1.781043    0.267004
     22          6           0       -3.783166   -1.391043   -0.986851
     23          6           0       -3.049826   -0.209341   -1.129485
     24          6           0       -2.815901    0.561821    0.008002
     25          6           0       -3.282750    0.200078    1.270731
     26          6           0       -4.013804   -0.985639    1.389815
     27          1           0       -4.833895   -2.700576    0.368659
     28          1           0       -3.976810   -2.006791   -1.860579
     29          1           0       -2.664968    0.116251   -2.088281
     30          1           0       -3.073679    0.834661    2.123382
     31          1           0       -4.386854   -1.286038    2.364822
     32          7           0       -2.040757    1.814962   -0.130532
     33          8           0       -1.848208    2.476818    0.887067
     34          8           0       -1.640425    2.111587   -1.254091
 ---------------------------------------------------------------------

 SCF Done:  E(RHF) =  -669.535536134     A.U. after   15 cycles
 E2 =    -0.2092150802D+01 EUMP2 =    -0.67162768693609D+03

 The electronic state is 1-A.
 Alpha  occ. eigenvalues --  -20.60817 -20.60803 -15.85846 -11.31160 -11.27746
 Alpha  occ. eigenvalues --  -11.27734 -11.27497 -11.26760 -11.26750 -11.21337
 Alpha  occ. eigenvalues --  -11.21248 -11.21050 -11.20952 -11.20836 -11.20781
 Alpha  occ. eigenvalues --   -1.59887  -1.39439  -1.19349  -1.08758  -1.08090
 Alpha  occ. eigenvalues --   -1.04748  -1.03231  -0.95687  -0.95595  -0.86712
 Alpha  occ. eigenvalues --   -0.86146  -0.82430  -0.79301  -0.77891  -0.77478
 Alpha  occ. eigenvalues --   -0.72074  -0.71225  -0.70465  -0.65007  -0.64757
 Alpha  occ. eigenvalues --   -0.64717  -0.62098  -0.60631  -0.59058  -0.57288
 Alpha  occ. eigenvalues --   -0.55262  -0.54979  -0.53183  -0.52844  -0.52286
 Alpha  occ. eigenvalues --   -0.52104  -0.49629  -0.48833  -0.48830  -0.47617
 Alpha  occ. eigenvalues --   -0.46330  -0.45450  -0.45355  -0.44808  -0.43476
 Alpha  occ. eigenvalues --   -0.37308  -0.36332
 Alpha virt. eigenvalues --    0.05044   0.11282   0.16542   0.21407   0.23192
 Alpha virt. eigenvalues --    0.24523   0.26965   0.27223   0.27679   0.28048
 Alpha virt. eigenvalues --    0.28513   0.30841   0.31532   0.31939   0.32098

 Mulliken charges:
               1
     1  C   -0.298167
     2  C   -0.299852
     3  C   -0.475569
     4  H    0.149150
     5  H    0.147319
     6  H    0.154647
     7  H    0.151731
     8  H    0.153822
     9  H    0.154829
    10  H    0.160060
    11  C   -0.299522
    12  C   -0.299676
    13  C   -0.478181
    14  H    0.157013
    15  H    0.149475
    16  H    0.151177
    17  H    0.149080
    18  H    0.154056
    19  H    0.159062
    20  H    0.156704
    21  C   -0.170941
    22  C   -0.219260
    23  C   -0.167785
    24  C    0.157828
    25  C   -0.171202
    26  C   -0.218775
    27  H    0.225516
    28  H    0.223469
    29  H    0.275902
    30  H    0.275356
    31  H    0.223278
    32  N    0.488830
    33  O   -0.460364
    34  O   -0.459011
 Sum of Mulliken charges =  -0.00000

 Dipole moment (field-independent basis, Debye):
    X=             -2.7882    Y=             -4.3337    Z=              0.4653  Tot=              5.1741
 Quadrupole moment (field-independent basis, Debye-Ang):
   XX=            -81.3203   YY=           -100.0890   ZZ=            -89.4782
   XY=             11.1930   XZ=             -2.5636   YZ=              1.6794

 Normal termination of Gaussian 16 at Thu May  6 10:23:47 2021.
