 Gaussian 16, Revision A.03,
 Gaussian 16:  EM64L-G16RevA.03 25-Dec-2016

 -------------
 #p 6-31g* mp2
 -------------

 ------------------------------------------------------
 Input file generated by CHIRIPA (05-May-2021 14:55:23)
 ------------------------------------------------------
 Symbolic Z-matrix:
 Charge =  0 Multiplicity = 1

                         Standard orientation:
 ---------------------------------------------------------------------
 Center     Atomic      Atomic             Coordinates (Angstroms)
 Number     Number       Type             X           Y           Z
 ---------------------------------------------------------------------
      1          6           0        4.258417    2.188781    0.445379
      2          6           0        5.006567    1.214574   -0.223734
      3          6           0        4.419905    0.002294   -0.598906
      4          6           0        3.076726   -0.203393   -0.287696
      5          6           0        2.304961    0.747670    0.377997
      6          6           0        2.912374    1.952636    0.743584
      7          1           0        4.722210    3.127668    0.733099
      8          1           0        6.052115    1.395230   -0.456628
      9          1           0        4.975835   -0.769166   -1.117760
     10          1           0        1.264738    0.538745    0.596414
     11          1           0        2.328913    2.707408    1.263137
     12          7           0        2.444669   -1.482908   -0.679800
     13          8           0        1.259611   -1.639773   -0.394021
     14          8           0        3.146287   -2.304699   -1.265486
     15          6           0       -3.334844   -0.076127    0.475983
     16          6           0       -3.105585   -0.932358    1.721894
     17          6           0       -1.626798   -1.056108    2.090231
     18          1           0       -2.780666   -0.510994   -0.367060
     19          1           0       -2.913019    0.924405    0.644491
     20          1           0       -3.528942   -1.930549    1.551605
     21          1           0       -3.660527   -0.495510    2.562024
     22          1           0       -1.194879   -0.069490    2.286783
     23          1           0       -1.062545   -1.512684    1.270622
     24          1           0       -1.485817   -1.672286    2.983712
     25          6           0       -4.808251    0.056963    0.095083
     26          6           0       -5.037511    0.913193   -1.150828
     27          6           0       -6.516297    1.036943   -1.519164
     28          1           0       -5.230076   -0.943570   -0.073425
     29          1           0       -5.362430    0.491829    0.938126
     30          1           0       -4.482568    0.476345   -1.990958
     31          1           0       -4.614154    1.911384   -0.980539
     32          1           0       -7.080551    1.493519   -0.699556
     33          1           0       -6.948217    0.050326   -1.715716
     34          1           0       -6.657278    1.653121   -2.412646
 ---------------------------------------------------------------------

 SCF Done:  E(RHF) =  -669.536178106     A.U. after   15 cycles
 E2 =    -0.2091121911D+01 EUMP2 =    -0.67162730001712D+03

 The electronic state is 1-A.
 Alpha  occ. eigenvalues --  -20.60860 -20.60849 -15.85905 -11.31208 -11.27781
 Alpha  occ. eigenvalues --  -11.27753 -11.27522 -11.26787 -11.26773 -11.21356
 Alpha  occ. eigenvalues --  -11.21152 -11.21081 -11.20982 -11.20866 -11.20454
 Alpha  occ. eigenvalues --   -1.59925  -1.39481  -1.19381  -1.08789  -1.08080
 Alpha  occ. eigenvalues --   -1.04776  -1.03162  -0.95656  -0.95584  -0.86625
 Alpha  occ. eigenvalues --   -0.86176  -0.82470  -0.79237  -0.77903  -0.77507
 Alpha  occ. eigenvalues --   -0.72135  -0.71240  -0.70492  -0.65042  -0.64782
 Alpha  occ. eigenvalues --   -0.64704  -0.62123  -0.60549  -0.58987  -0.57220
 Alpha  occ. eigenvalues --   -0.55287  -0.54879  -0.53110  -0.52875  -0.52302
 Alpha  occ. eigenvalues --   -0.52023  -0.49553  -0.48881  -0.48864  -0.47533
 Alpha  occ. eigenvalues --   -0.46256  -0.45441  -0.45340  -0.44886  -0.43425
 Alpha  occ. eigenvalues --   -0.37365  -0.36377
 Alpha virt. eigenvalues --    0.05006   0.11275   0.16501   0.20922   0.23181
 Alpha virt. eigenvalues --    0.24175   0.26298   0.27063   0.27655   0.28001
 Alpha virt. eigenvalues --    0.29397   0.31078   0.31562   0.31927   0.32409

 Mulliken charges:
               1
     1  C   -0.170455
     2  C   -0.218826
     3  C   -0.170670
     4  C    0.157218
     5  C   -0.172780
     6  C   -0.219466
     7  H    0.225659
     8  H    0.223464
     9  H    0.275510
    10  H    0.280626
    11  H    0.223648
    12  N    0.493860
    13  O   -0.466724
    14  O   -0.459688
    15  C   -0.299275
    16  C   -0.298637
    17  C   -0.487924
    18  H    0.157330
    19  H    0.142608
    20  H    0.153944
    21  H    0.147998
    22  H    0.140638
    23  H    0.185116
    24  H    0.158799
    25  C   -0.297972
    26  C   -0.299502
    27  C   -0.475517
    28  H    0.150770
    29  H    0.147822
    30  H    0.153752
    31  H    0.149359
    32  H    0.154149
    33  H    0.155837
    34  H    0.159330
 Sum of Mulliken charges =  -0.00000

 Dipole moment (field-independent basis, Debye):
    X=              2.3418    Y=              4.3661    Z=              1.2824  Tot=              5.1177
 Quadrupole moment (field-independent basis, Debye-Ang):
   XX=            -78.8389   YY=            -95.9275   ZZ=            -95.6834
   XY=             12.6110   XZ=              1.4268   YZ=             -0.2875

 Normal termination of Gaussian 16 at Wed May  5 23:56:34 2021.
