 Gaussian 16, Revision A.03,
 Gaussian 16:  EM64L-G16RevA.03 25-Dec-2016

 -------------
 #p 6-31g* mp2
 -------------

 ------------------------------------------------------
 Input file generated by CHIRIPA (05-May-2021 14:57:22)
 ------------------------------------------------------
 Symbolic Z-matrix:
 Charge =  0 Multiplicity = 1

                         Standard orientation:
 ---------------------------------------------------------------------
 Center     Atomic      Atomic             Coordinates (Angstroms)
 Number     Number       Type             X           Y           Z
 ---------------------------------------------------------------------
      1          6           0       -3.855675   -2.250067   -0.792107
      2          6           0       -2.632387   -1.652081   -0.471949
      3          6           0       -2.582767   -0.322289   -0.043303
      4          6           0       -3.781085    0.383270    0.054214
      5          6           0       -5.015472   -0.184537   -0.257513
      6          6           0       -5.041223   -1.515681   -0.684057
      7          1           0       -3.884950   -3.283607   -1.124274
      8          1           0       -1.710091   -2.219998   -0.554925
      9          1           0       -1.649499    0.165341    0.210954
     10          1           0       -5.918170    0.407054   -0.164921
     11          1           0       -5.992687   -1.977497   -0.932025
     12          7           0       -3.741188    1.791777    0.506891
     13          8           0       -4.811001    2.391878    0.584464
     14          8           0       -2.640861    2.268994    0.775554
     15          6           0        1.961028   -1.707186    0.800155
     16          6           0        3.252982   -1.826925    1.322685
     17          6           0        4.272872   -0.970204    0.897951
     18          6           0        3.964252   -0.000698   -0.054992
     19          6           0        2.686961    0.143625   -0.594425
     20          6           0        1.682631   -0.724026   -0.155048
     21          1           0        1.174796   -2.376953    1.135785
     22          1           0        3.472078   -2.589533    2.064624
     23          1           0        5.281808   -1.040823    1.285869
     24          1           0        2.499007    0.913614   -1.332807
     25          1           0        0.680200   -0.628720   -0.562593
     26          7           0        5.035728    0.912061   -0.512390
     27          8           0        4.738123    1.757935   -1.352964
     28          8           0        6.152866    0.764323   -0.021662
 ---------------------------------------------------------------------

 SCF Done:  E(RHF) =  -868.336299937     A.U. after   16 cycles
 E2 =    -0.2600202883D+01 EUMP2 =    -0.87093650281923D+03

 The electronic state is 1-A.
 Alpha  occ. eigenvalues --  -20.61353 -20.61345 -20.60940 -20.60933 -15.86413
 Alpha  occ. eigenvalues --  -15.86000 -11.31945 -11.31505 -11.28630 -11.28482
 Alpha  occ. eigenvalues --  -11.28292 -11.28130 -11.28100 -11.27987 -11.27697
 Alpha  occ. eigenvalues --  -11.27507 -11.27291 -11.27144  -1.60424  -1.60011
 Alpha  occ. eigenvalues --   -1.39974  -1.39560  -1.20137  -1.19722  -1.09489
 Alpha  occ. eigenvalues --   -1.09111  -1.05593  -1.05151  -0.96300  -0.95909
 Alpha  occ. eigenvalues --   -0.86965  -0.86571  -0.83151  -0.82739  -0.78190
 Alpha  occ. eigenvalues --   -0.77734  -0.72626  -0.72219  -0.71751  -0.71335
 Alpha  occ. eigenvalues --   -0.71241  -0.70867  -0.65811  -0.65607  -0.65390
 Alpha  occ. eigenvalues --   -0.65230  -0.63009  -0.62404  -0.56045  -0.55713
 Alpha  occ. eigenvalues --   -0.53876  -0.53711  -0.53448  -0.53255  -0.49397
 Alpha  occ. eigenvalues --   -0.49373  -0.48991  -0.48959  -0.45344  -0.44934
 Alpha  occ. eigenvalues --   -0.38094  -0.37735  -0.37192  -0.36740
 Alpha virt. eigenvalues --    0.04381   0.04811   0.10468   0.10817   0.15811
 Alpha virt. eigenvalues --    0.16213   0.17583   0.22139   0.24732   0.26188
 Alpha virt. eigenvalues --    0.27955   0.29037   0.30695   0.30820   0.32372

 Mulliken charges:
               1
     1  C   -0.169991
     2  C   -0.220197
     3  C   -0.176403
     4  C    0.160781
     5  C   -0.169275
     6  C   -0.218133
     7  H    0.227661
     8  H    0.215771
     9  H    0.273188
    10  H    0.278513
    11  H    0.226582
    12  N    0.488128
    13  O   -0.457441
    14  O   -0.459588
    15  C   -0.170857
    16  C   -0.218072
    17  C   -0.169403
    18  C    0.159119
    19  C   -0.168265
    20  C   -0.222762
    21  H    0.220570
    22  H    0.224676
    23  H    0.277440
    24  H    0.279614
    25  H    0.217903
    26  N    0.488001
    27  O   -0.458078
    28  O   -0.459483
 Sum of Mulliken charges =  -0.00000

 Dipole moment (field-independent basis, Debye):
    X=             -3.9702    Y=             -8.0681    Z=              0.0225  Tot=              8.9921
 Quadrupole moment (field-independent basis, Debye-Ang):
   XX=           -124.6303   YY=           -108.6997   ZZ=           -104.5681
   XY=              4.1586   XZ=             15.6389   YZ=             -2.3737

 Normal termination of Gaussian 16 at Fri May  7 03:18:37 2021.
