 Gaussian 16, Revision A.03,
 Gaussian 16:  EM64L-G16RevA.03 25-Dec-2016

 -------------
 #p 6-31g* mp2
 -------------

 ------------------------------------------------------
 Input file generated by CHIRIPA (05-May-2021 14:51:13)
 ------------------------------------------------------
 Symbolic Z-matrix:
 Charge =  0 Multiplicity = 1

                         Standard orientation:
 ---------------------------------------------------------------------
 Center     Atomic      Atomic             Coordinates (Angstroms)
 Number     Number       Type             X           Y           Z
 ---------------------------------------------------------------------
      1          6           0       -2.704288   -0.179008    0.256386
      2          6           0       -1.648715   -0.951315   -0.535633
      3          6           0       -0.239484   -0.777079    0.031379
      4          1           0       -2.440009    0.887311    0.264467
      5          1           0       -2.685109   -0.513726    1.302804
      6          1           0       -1.670825   -0.616225   -1.580545
      7          1           0       -1.915640   -2.015893   -0.541991
      8          1           0       -0.194648   -1.129324    1.067002
      9          1           0        0.051557    0.278297    0.022547
     10          1           0        0.499283   -1.337608   -0.549904
     11          6           0       -4.118184   -0.343262   -0.298273
     12          6           0       -5.173757    0.429045    0.493745
     13          6           0       -6.582988    0.254809   -0.073267
     14          1           0       -4.137363   -0.008545   -1.344692
     15          1           0       -4.382463   -1.409581   -0.306354
     16          1           0       -4.906832    1.493623    0.500104
     17          1           0       -5.151646    0.093954    1.538657
     18          1           0       -6.874029   -0.800567   -0.064435
     19          1           0       -6.627823    0.607054   -1.108889
     20          1           0       -7.321755    0.815338    0.508017
     21          6           0        3.286344    0.926156    0.375318
     22          6           0        3.129880    2.105247   -0.585539
     23          6           0        2.880567    3.428712    0.138393
     24          1           0        2.382128    0.842818    0.993698
     25          1           0        4.117984    1.130968    1.063666
     26          1           0        2.299668    1.897661   -1.272761
     27          1           0        4.034494    2.185670   -1.201835
     28          1           0        3.712103    3.662454    0.811085
     29          1           0        1.967420    3.372810    0.739756
     30          1           0        2.771733    4.258088   -0.567405
     31          6           0        3.536128   -0.403886   -0.333431
     32          6           0        3.692592   -1.582977    0.627426
     33          6           0        3.941905   -2.906443   -0.096505
     34          1           0        2.704487   -0.608698   -1.021777
     35          1           0        4.440343   -0.320548   -0.951811
     36          1           0        2.787978   -1.663400    1.243723
     37          1           0        4.522803   -1.375391    1.314648
     38          1           0        4.855052   -2.850539   -0.697869
     39          1           0        3.110369   -3.140184   -0.769197
     40          1           0        4.050739   -3.735818    0.609292
 ---------------------------------------------------------------------

 SCF Done:  E(RHF) =  -470.732446878     A.U. after   11 cycles
 E2 =    -0.1584061887D+01 EUMP2 =    -0.47231650876475D+03

 The electronic state is 1-A.
 Alpha  occ. eigenvalues --  -11.21682 -11.21638 -11.21552 -11.21494 -11.21464
 Alpha  occ. eigenvalues --  -11.21401 -11.21275 -11.21212 -11.21178 -11.21099
 Alpha  occ. eigenvalues --  -11.21051 -11.21028  -1.08500  -1.08336  -1.03602
 Alpha  occ. eigenvalues --   -1.03466  -0.96078  -0.95894  -0.87088  -0.86928
 Alpha  occ. eigenvalues --   -0.79676  -0.79523  -0.78305  -0.78155  -0.65163
 Alpha  occ. eigenvalues --   -0.64977  -0.61073  -0.60853  -0.59390  -0.59278
 Alpha  occ. eigenvalues --   -0.57680  -0.57508  -0.55452  -0.55116  -0.52747
 Alpha  occ. eigenvalues --   -0.52619  -0.52491  -0.52331  -0.50044  -0.49800
 Alpha  occ. eigenvalues --   -0.48027  -0.47822  -0.46736  -0.46510  -0.45915
 Alpha  occ. eigenvalues --   -0.45775  -0.45661  -0.45516  -0.43795  -0.43699
 Alpha virt. eigenvalues --    0.20482   0.22981   0.23281   0.24678   0.25868
 Alpha virt. eigenvalues --    0.26430   0.26987   0.27766   0.27873   0.29727
 Alpha virt. eigenvalues --    0.29912   0.30587   0.31766   0.32086   0.32482

 Mulliken charges:
               1
     1  C   -0.298767
     2  C   -0.300578
     3  C   -0.481161
     4  H    0.149623
     5  H    0.149653
     6  H    0.152084
     7  H    0.152293
     8  H    0.155401
     9  H    0.157872
    10  H    0.164731
    11  C   -0.298302
    12  C   -0.299687
    13  C   -0.475742
    14  H    0.149650
    15  H    0.149803
    16  H    0.152027
    17  H    0.151994
    18  H    0.155240
    19  H    0.155252
    20  H    0.160397
    21  C   -0.301062
    22  C   -0.300936
    23  C   -0.475601
    24  H    0.153804
    25  H    0.149090
    26  H    0.151992
    27  H    0.151929
    28  H    0.155369
    29  H    0.154467
    30  H    0.159941
    31  C   -0.300087
    32  C   -0.302314
    33  C   -0.475944
    34  H    0.152493
    35  H    0.148943
    36  H    0.155201
    37  H    0.151591
    38  H    0.155124
    39  H    0.154191
    40  H    0.160025
 Sum of Mulliken charges =  -0.00000

 Dipole moment (field-independent basis, Debye):
    X=             -0.0526    Y=             -0.0097    Z=              0.0106  Tot=              0.0545
 Quadrupole moment (field-independent basis, Debye-Ang):
   XX=            -85.1112   YY=            -85.2495   ZZ=            -84.6575
   XY=              0.4630   XZ=             -0.2582   YZ=             -0.9003

 Normal termination of Gaussian 16 at Thu May  6 05:34:00 2021.
