 Gaussian 16, Revision A.03,
 Gaussian 16:  EM64L-G16RevA.03 25-Dec-2016

 -------------
 #p 6-31g* mp2
 -------------

 ------------------------------------------------------
 Input file generated by CHIRIPA (05-May-2021 14:57:26)
 ------------------------------------------------------
 Symbolic Z-matrix:
 Charge =  0 Multiplicity = 1

                         Standard orientation:
 ---------------------------------------------------------------------
 Center     Atomic      Atomic             Coordinates (Angstroms)
 Number     Number       Type             X           Y           Z
 ---------------------------------------------------------------------
      1          6           0        3.236234    2.691606   -0.537787
      2          6           0        2.037890    1.970338   -0.554059
      3          6           0        2.030119    0.600071   -0.276827
      4          6           0        3.244395   -0.019809    0.013984
      5          6           0        4.454726    0.671432    0.037982
      6          6           0        4.438707    2.040998   -0.242340
      7          1           0        3.233031    3.755790   -0.754348
      8          1           0        1.102534    2.472987   -0.783179
      9          1           0        1.116864    0.017534   -0.282554
     10          1           0        5.371325    0.142751    0.269841
     11          1           0        5.370873    2.598613   -0.228983
     12          7           0        3.248760   -1.470078    0.309113
     13          8           0        4.331888   -1.992878    0.562395
     14          8           0        2.168972   -2.056537    0.281564
     15          6           0       -4.771306    1.725245    0.536007
     16          6           0       -3.770524    1.368607    1.445824
     17          6           0       -2.918369    0.293024    1.178427
     18          6           0       -3.095990   -0.407196   -0.013812
     19          6           0       -4.083721   -0.076262   -0.940182
     20          6           0       -4.924441    1.002946   -0.651997
     21          1           0       -5.428839    2.562192    0.751802
     22          1           0       -3.649281    1.927758    2.369240
     23          1           0       -2.135326   -0.004596    1.865220
     24          1           0       -4.180169   -0.652580   -1.852306
     25          1           0       -5.700794    1.277659   -1.360412
     26          7           0       -2.199905   -1.547786   -0.307897
     27          8           0       -2.376999   -2.148699   -1.365336
     28          8           0       -1.337426   -1.819271    0.524608
 ---------------------------------------------------------------------

 SCF Done:  E(RHF) =  -868.336162303     A.U. after   16 cycles
 E2 =    -0.2600557089D+01 EUMP2 =    -0.87093671939200D+03

 The electronic state is 1-A.
 Alpha  occ. eigenvalues --  -20.60802 -20.60754 -20.59888 -20.59786 -15.85807
 Alpha  occ. eigenvalues --  -15.84893 -11.31383 -11.30578 -11.27964 -11.27955
 Alpha  occ. eigenvalues --  -11.27729 -11.27226 -11.27130 -11.27050 -11.27018
 Alpha  occ. eigenvalues --  -11.27002 -11.26310 -11.26299  -1.59843  -1.58927
 Alpha  occ. eigenvalues --   -1.39388  -1.38459  -1.19572  -1.18800  -1.08925
 Alpha  occ. eigenvalues --   -1.08147  -1.04993  -1.04250  -0.95717  -0.94917
 Alpha  occ. eigenvalues --   -0.86379  -0.85630  -0.82536  -0.81736  -0.77566
 Alpha  occ. eigenvalues --   -0.76715  -0.71991  -0.71228  -0.71047  -0.70656
 Alpha  occ. eigenvalues --   -0.70272  -0.69903  -0.65205  -0.64981  -0.64441
 Alpha  occ. eigenvalues --   -0.64264  -0.62327  -0.61576  -0.55474  -0.54763
 Alpha  occ. eigenvalues --   -0.53329  -0.53073  -0.52572  -0.52346  -0.48779
 Alpha  occ. eigenvalues --   -0.48758  -0.47917  -0.47823  -0.44714  -0.43796
 Alpha  occ. eigenvalues --   -0.37569  -0.36819  -0.36615  -0.35872
 Alpha virt. eigenvalues --    0.04933   0.05808   0.11024   0.11778   0.16365
 Alpha virt. eigenvalues --    0.17224   0.21174   0.21860   0.27069   0.27556
 Alpha virt. eigenvalues --    0.28093   0.28780   0.30644   0.31404   0.32218

 Mulliken charges:
               1
     1  C   -0.171637
     2  C   -0.220133
     3  C   -0.174463
     4  C    0.157004
     5  C   -0.171262
     6  C   -0.219139
     7  H    0.222133
     8  H    0.219201
     9  H    0.284347
    10  H    0.274701
    11  H    0.221065
    12  N    0.485513
    13  O   -0.466655
    14  O   -0.444795
    15  C   -0.171812
    16  C   -0.219125
    17  C   -0.175410
    18  C    0.156184
    19  C   -0.171735
    20  C   -0.218724
    21  H    0.225694
    22  H    0.223712
    23  H    0.277525
    24  H    0.276740
    25  H    0.223956
    26  N    0.484520
    27  O   -0.457589
    28  O   -0.449818
 Sum of Mulliken charges =  -0.00000

 Dipole moment (field-independent basis, Debye):
    X=             -3.3900    Y=              8.8168    Z=              0.0294  Tot=              9.4461
 Quadrupole moment (field-independent basis, Debye-Ang):
   XX=            -80.7815   YY=           -109.5733   ZZ=           -102.0924
   XY=              5.7463   XZ=             -3.4514   YZ=              0.4328

 Normal termination of Gaussian 16 at Thu May  6 02:01:18 2021.
