 Gaussian 16, Revision A.03,
 Gaussian 16:  EM64L-G16RevA.03 25-Dec-2016

 -------------
 #p 6-31g* mp2
 -------------

 ------------------------------------------------------
 Input file generated by CHIRIPA (05-May-2021 14:55:21)
 ------------------------------------------------------
 Symbolic Z-matrix:
 Charge =  0 Multiplicity = 1

                         Standard orientation:
 ---------------------------------------------------------------------
 Center     Atomic      Atomic             Coordinates (Angstroms)
 Number     Number       Type             X           Y           Z
 ---------------------------------------------------------------------
      1          6           0       -4.830811    0.360485    1.364024
      2          6           0       -5.043659   -0.192967    0.097175
      3          6           0       -3.962368   -0.592011   -0.694104
      4          6           0       -2.675793   -0.422354   -0.184959
      5          6           0       -2.431289    0.125849    1.073207
      6          6           0       -3.527603    0.517849    1.847145
      7          1           0       -5.676619    0.667736    1.971973
      8          1           0       -6.054652   -0.316369   -0.280595
      9          1           0       -4.098527   -1.023312   -1.678411
     10          1           0       -1.411940    0.236319    1.422693
     11          1           0       -3.359302    0.947370    2.830625
     12          7           0       -1.523126   -0.841076   -1.013471
     13          8           0       -0.399396   -0.681018   -0.542040
     14          8           0       -1.765223   -1.321398   -2.118603
     15          6           0        3.925158   -0.040321    0.586119
     16          6           0        5.028064   -0.961384    0.063409
     17          6           0        5.531866   -1.941155    1.123611
     18          1           0        4.303041    0.518117    1.453470
     19          1           0        3.087568   -0.652022    0.948969
     20          1           0        5.862749   -0.348093   -0.299619
     21          1           0        4.647573   -1.517555   -0.802915
     22          1           0        4.715019   -2.577384    1.479383
     23          1           0        5.937100   -1.401278    1.985539
     24          1           0        6.319843   -2.589931    0.728589
     25          6           0        3.411203    0.944882   -0.462190
     26          6           0        2.308296    1.865945    0.060520
     27          6           0        1.804494    2.845715   -0.999681
     28          1           0        4.248793    1.556583   -0.825040
     29          1           0        3.033320    0.386443   -1.329541
     30          1           0        2.688788    2.422114    0.926844
     31          1           0        1.473611    1.252653    0.423549
     32          1           0        1.399261    2.305839   -1.861610
     33          1           0        2.621342    3.481945   -1.355454
     34          1           0        1.016518    3.494491   -0.604660
 ---------------------------------------------------------------------

 SCF Done:  E(RHF) =  -669.536351635     A.U. after   15 cycles
 E2 =    -0.2091359043D+01 EUMP2 =    -0.67162771067791D+03

 The electronic state is 1-A.
 Alpha  occ. eigenvalues --  -20.60997 -20.60990 -15.86028 -11.31317 -11.27879
 Alpha  occ. eigenvalues --  -11.27874 -11.27610 -11.26880 -11.26870 -11.20788
 Alpha  occ. eigenvalues --  -11.20576 -11.20452 -11.20413 -11.20304 -11.20222
 Alpha  occ. eigenvalues --   -1.60055  -1.39613  -1.19484  -1.08894  -1.07474
 Alpha  occ. eigenvalues --   -1.04876  -1.02656  -0.95741  -0.95125  -0.86278
 Alpha  occ. eigenvalues --   -0.86147  -0.82579  -0.78735  -0.77644  -0.77281
 Alpha  occ. eigenvalues --   -0.72261  -0.71366  -0.70594  -0.65147  -0.64880
 Alpha  occ. eigenvalues --   -0.64057  -0.62226  -0.60023  -0.58512  -0.56751
 Alpha  occ. eigenvalues --   -0.55382  -0.54392  -0.53208  -0.52969  -0.51864
 Alpha  occ. eigenvalues --   -0.51566  -0.49092  -0.49011  -0.48970  -0.47066
 Alpha  occ. eigenvalues --   -0.45743  -0.45056  -0.44819  -0.44663  -0.42900
 Alpha  occ. eigenvalues --   -0.37460  -0.36475
 Alpha virt. eigenvalues --    0.04876   0.11175   0.16363   0.20998   0.23676
 Alpha virt. eigenvalues --    0.24843   0.26316   0.27481   0.28027   0.28764
 Alpha virt. eigenvalues --    0.29018   0.30597   0.31641   0.32390   0.32644

 Mulliken charges:
               1
     1  C   -0.170419
     2  C   -0.218597
     3  C   -0.170730
     4  C    0.157950
     5  C   -0.170917
     6  C   -0.218899
     7  H    0.226125
     8  H    0.223909
     9  H    0.275828
    10  H    0.276893
    11  H    0.224184
    12  N    0.491775
    13  O   -0.464963
    14  O   -0.458881
    15  C   -0.299168
    16  C   -0.299608
    17  C   -0.475338
    18  H    0.143677
    19  H    0.155425
    20  H    0.149067
    21  H    0.155715
    22  H    0.155439
    23  H    0.152240
    24  H    0.158173
    25  C   -0.297564
    26  C   -0.304404
    27  C   -0.475915
    28  H    0.143794
    29  H    0.160873
    30  H    0.142984
    31  H    0.165461
    32  H    0.162326
    33  H    0.151307
    34  H    0.152258
 Sum of Mulliken charges =  -0.00000

 Dipole moment (field-independent basis, Debye):
    X=             -4.3346    Y=              1.3098    Z=              2.8163  Tot=              5.3325
 Quadrupole moment (field-independent basis, Debye-Ang):
   XX=            -71.9481   YY=            -97.2063   ZZ=            -93.8871
   XY=             -0.7666   XZ=             -5.1097   YZ=              0.5402

 Normal termination of Gaussian 16 at Thu May  6 20:42:25 2021.
