 Gaussian 16, Revision A.03,
 Gaussian 16:  EM64L-G16RevA.03 25-Dec-2016

 -------------
 #p 6-31g* mp2
 -------------

 ------------------------------------------------------
 Input file generated by CHIRIPA (05-May-2021 14:57:27)
 ------------------------------------------------------
 Symbolic Z-matrix:
 Charge =  0 Multiplicity = 1

                         Standard orientation:
 ---------------------------------------------------------------------
 Center     Atomic      Atomic             Coordinates (Angstroms)
 Number     Number       Type             X           Y           Z
 ---------------------------------------------------------------------
      1          6           0        2.686792    2.517261   -0.149356
      2          6           0        2.667458    2.023239    1.159113
      3          6           0        2.701178    0.646289    1.398737
      4          6           0        2.754247   -0.211928    0.301496
      5          6           0        2.774697    0.249571   -1.013757
      6          6           0        2.740256    1.630414   -1.229710
      7          1           0        2.660318    3.588420   -0.326308
      8          1           0        2.625956    2.709630    2.000059
      9          1           0        2.687258    0.236739    2.401479
     10          1           0        2.816262   -0.459383   -1.831727
     11          1           0        2.755381    2.011237   -2.246956
     12          7           0        2.790326   -1.671704    0.542645
     13          8           0        2.836916   -2.406919   -0.441186
     14          8           0        2.771332   -2.053020    1.710924
     15          6           0       -4.881135    0.244341    1.058252
     16          6           0       -4.042113    1.343702    0.848566
     17          6           0       -2.857890    1.204080    0.118723
     18          6           0       -2.542105   -0.055054   -0.389365
     19          6           0       -3.357374   -1.169413   -0.197448
     20          6           0       -4.536695   -1.006502    0.535497
     21          1           0       -5.799164    0.361849    1.626416
     22          1           0       -4.307075    2.316316    1.253366
     23          1           0       -2.190107    2.038369   -0.058608
     24          1           0       -3.066551   -2.126403   -0.613394
     25          1           0       -5.186379   -1.862040    0.696770
     26          7           0       -1.291016   -0.215192   -1.163659
     27          8           0       -1.035347   -1.335094   -1.600798
     28          8           0       -0.589773    0.782225   -1.318751
 ---------------------------------------------------------------------

 SCF Done:  E(RHF) =  -868.337585929     A.U. after   16 cycles
 E2 =    -0.2601029621D+01 EUMP2 =    -0.87093861554960D+03

 The electronic state is 1-A.
 Alpha  occ. eigenvalues --  -20.60936 -20.60901 -20.59671 -20.59610 -15.85943
 Alpha  occ. eigenvalues --  -15.84689 -11.31267 -11.29883 -11.27871 -11.27794
 Alpha  occ. eigenvalues --  -11.27573 -11.26867 -11.26809 -11.26573 -11.26369
 Alpha  occ. eigenvalues --  -11.26275 -11.25603 -11.25386  -1.59994  -1.58719
 Alpha  occ. eigenvalues --   -1.39545  -1.38276  -1.19439  -1.18067  -1.08846
 Alpha  occ. eigenvalues --   -1.07523  -1.04836  -1.03460  -0.95689  -0.94380
 Alpha  occ. eigenvalues --   -0.86236  -0.84900  -0.82522  -0.81223  -0.77575
 Alpha  occ. eigenvalues --   -0.76270  -0.72181  -0.71318  -0.70927  -0.70550
 Alpha  occ. eigenvalues --   -0.70026  -0.69262  -0.65095  -0.64843  -0.63758
 Alpha  occ. eigenvalues --   -0.63530  -0.62185  -0.60843  -0.55346  -0.54061
 Alpha  occ. eigenvalues --   -0.53171  -0.52931  -0.51818  -0.51607  -0.48942
 Alpha  occ. eigenvalues --   -0.48901  -0.47688  -0.47661  -0.44935  -0.43712
 Alpha  occ. eigenvalues --   -0.37420  -0.36436  -0.36078  -0.34927
 Alpha virt. eigenvalues --    0.04947   0.06290   0.11220   0.12620   0.16457
 Alpha virt. eigenvalues --    0.17780   0.21351   0.22508   0.27255   0.28246
 Alpha virt. eigenvalues --    0.28431   0.29399   0.30897   0.31976   0.32473

 Mulliken charges:
               1
     1  C   -0.170934
     2  C   -0.220420
     3  C   -0.174371
     4  C    0.154200
     5  C   -0.151393
     6  C   -0.204174
     7  H    0.218937
     8  H    0.215454
     9  H    0.269468
    10  H    0.277790
    11  H    0.221110
    12  N    0.488102
    13  O   -0.456459
    14  O   -0.468754
    15  C   -0.170496
    16  C   -0.218605
    17  C   -0.171002
    18  C    0.158394
    19  C   -0.169629
    20  C   -0.218409
    21  H    0.225880
    22  H    0.222158
    23  H    0.272458
    24  H    0.278729
    25  H    0.224904
    26  N    0.488418
    27  O   -0.455070
    28  O   -0.466284
 Sum of Mulliken charges =  -0.00000

 Dipole moment (field-independent basis, Debye):
    X=             -4.7561    Y=              5.5298    Z=              1.5155  Tot=              7.4496
 Quadrupole moment (field-independent basis, Debye-Ang):
   XX=            -84.7296   YY=           -103.2909   ZZ=           -103.5236
   XY=             14.2526   XZ=             -8.7868   YZ=              3.0083

 Normal termination of Gaussian 16 at Fri May  7 11:16:21 2021.
