 Gaussian 16, Revision A.03,
 Gaussian 16:  EM64L-G16RevA.03 25-Dec-2016

 -------------
 #p 6-31g* mp2
 -------------

 ------------------------------------------------------
 Input file generated by CHIRIPA (05-May-2021 14:55:22)
 ------------------------------------------------------
 Symbolic Z-matrix:
 Charge =  0 Multiplicity = 1

                         Standard orientation:
 ---------------------------------------------------------------------
 Center     Atomic      Atomic             Coordinates (Angstroms)
 Number     Number       Type             X           Y           Z
 ---------------------------------------------------------------------
      1          6           0        3.390739   -2.081013   -0.887492
      2          6           0        4.456527   -1.233013   -0.568883
      3          6           0        4.219196    0.082120   -0.158214
      4          6           0        2.897651    0.518235   -0.076900
      5          6           0        1.814542   -0.302532   -0.387554
      6          6           0        2.075467   -1.613890   -0.795972
      7          1           0        3.584268   -3.101174   -1.205636
      8          1           0        5.479012   -1.593078   -0.639045
      9          1           0        5.025553    0.759893    0.094431
     10          1           0        0.806103    0.084945   -0.307993
     11          1           0        1.245798   -2.270228   -1.042781
     12          7           0        2.633911    1.908509    0.356665
     13          8           0        1.460490    2.268627    0.420182
     14          8           0        3.605606    2.611763    0.624769
     15          6           0       -4.491309   -0.136619    0.219599
     16          6           0       -4.874343    0.800883   -0.925985
     17          6           0       -6.331158    1.259279   -0.852784
     18          1           0       -5.154028   -1.012713    0.205162
     19          1           0       -4.668487    0.373595    1.176513
     20          1           0       -4.695191    0.289553   -1.880480
     21          1           0       -4.210512    1.674756   -0.908936
     22          1           0       -6.520535    1.792741    0.084315
     23          1           0       -7.007968    0.399667   -0.892749
     24          1           0       -6.583534    1.928582   -1.681156
     25          6           0       -3.037955   -0.603481    0.160195
     26          6           0       -2.654921   -1.540983    1.305778
     27          6           0       -1.198107   -1.999378    1.232579
     28          1           0       -2.860778   -1.113694   -0.796719
     29          1           0       -2.375237    0.272614    0.174631
     30          1           0       -3.318753   -2.414855    1.288730
     31          1           0       -2.834074   -1.029652    2.260274
     32          1           0       -0.521296   -1.139766    1.272543
     33          1           0       -1.008729   -2.532841    0.295480
     34          1           0       -0.945730   -2.668681    2.060950
 ---------------------------------------------------------------------

 SCF Done:  E(RHF) =  -669.534984461     A.U. after   15 cycles
 E2 =    -0.2092198994D+01 EUMP2 =    -0.67162718345444D+03

 The electronic state is 1-A.
 Alpha  occ. eigenvalues --  -20.60754 -20.60747 -15.85804 -11.31130 -11.27699
 Alpha  occ. eigenvalues --  -11.27657 -11.27430 -11.26716 -11.26668 -11.21963
 Alpha  occ. eigenvalues --  -11.21721 -11.21670 -11.21619 -11.21492 -11.21053
 Alpha  occ. eigenvalues --   -1.59828  -1.39383  -1.19302  -1.08705  -1.08650
 Alpha  occ. eigenvalues --   -1.04703  -1.03772  -0.96256  -0.95545  -0.87282
 Alpha  occ. eigenvalues --   -0.86101  -0.82380  -0.79860  -0.78451  -0.77416
 Alpha  occ. eigenvalues --   -0.72025  -0.71150  -0.70424  -0.65290  -0.64954
 Alpha  occ. eigenvalues --   -0.64699  -0.62100  -0.61156  -0.59615  -0.57840
 Alpha  occ. eigenvalues --   -0.55572  -0.55207  -0.53133  -0.52925  -0.52782
 Alpha  occ. eigenvalues --   -0.52599  -0.50177  -0.48782  -0.48778  -0.48154
 Alpha  occ. eigenvalues --   -0.46854  -0.45990  -0.45879  -0.44795  -0.44011
 Alpha  occ. eigenvalues --   -0.37286  -0.36263
 Alpha virt. eigenvalues --    0.05071   0.11293   0.16550   0.20102   0.22858
 Alpha virt. eigenvalues --    0.23933   0.24944   0.26105   0.27343   0.28207
 Alpha virt. eigenvalues --    0.29271   0.30230   0.31502   0.31663   0.32360

 Mulliken charges:
               1
     1  C   -0.171475
     2  C   -0.218438
     3  C   -0.171150
     4  C    0.157980
     5  C   -0.173879
     6  C   -0.218098
     7  H    0.225418
     8  H    0.223134
     9  H    0.275249
    10  H    0.278270
    11  H    0.226535
    12  N    0.488157
    13  O   -0.461664
    14  O   -0.460345
    15  C   -0.298280
    16  C   -0.300786
    17  C   -0.475983
    18  H    0.149145
    19  H    0.152373
    20  H    0.150375
    21  H    0.156321
    22  H    0.156510
    23  H    0.154247
    24  H    0.161166
    25  C   -0.302799
    26  C   -0.299134
    27  C   -0.482080
    28  H    0.145135
    29  H    0.155580
    30  H    0.152485
    31  H    0.157131
    32  H    0.159424
    33  H    0.144987
    34  H    0.164490
 Sum of Mulliken charges =  -0.00000

 Dipole moment (field-independent basis, Debye):
    X=              0.8203    Y=             -4.8467    Z=             -1.4508  Tot=              5.1253
 Quadrupole moment (field-independent basis, Debye-Ang):
   XX=            -85.1371   YY=           -100.0071   ZZ=            -94.9040
   XY=            -12.6102   XZ=             -4.1697   YZ=              0.1245

 Normal termination of Gaussian 16 at Thu May  6 09:22:05 2021.
