 Gaussian 16, Revision A.03,
 Gaussian 16:  EM64L-G16RevA.03 25-Dec-2016

 -------------
 #p 6-31g* mp2
 -------------

 ------------------------------------------------------
 Input file generated by CHIRIPA (05-May-2021 14:53:15)
 ------------------------------------------------------
 Symbolic Z-matrix:
 Charge =  0 Multiplicity = 1

                         Standard orientation:
 ---------------------------------------------------------------------
 Center     Atomic      Atomic             Coordinates (Angstroms)
 Number     Number       Type             X           Y           Z
 ---------------------------------------------------------------------
      1          6           0        3.299256   -0.724315    0.387210
      2          6           0        2.599341   -1.827520   -0.407173
      3          6           0        1.765051   -2.754502    0.477394
      4          1           0        3.943097   -1.182803    1.150232
      5          1           0        2.544653   -0.135982    0.927427
      6          1           0        3.354928   -2.412736   -0.946826
      7          1           0        1.957237   -1.366355   -1.168518
      8          1           0        0.990293   -2.188998    1.005178
      9          1           0        2.395924   -3.241325    1.228129
     10          1           0        1.273537   -3.535668   -0.110869
     11          6           0        4.137184    0.210518   -0.483245
     12          6           0        4.837099    1.313722    0.311137
     13          6           0        5.671389    2.240705   -0.573429
     14          1           0        4.891787   -0.377816   -1.023462
     15          1           0        3.493343    0.669005   -1.246267
     16          1           0        5.479203    0.852557    1.072483
     17          1           0        4.081512    1.898939    0.850791
     18          1           0        5.040516    2.727527   -1.324164
     19          1           0        6.446147    1.675200   -1.101213
     20          1           0        6.162903    3.021871    0.014834
     21          6           0       -3.375358    2.673429    0.211214
     22          6           0       -2.551352    2.049747    1.153847
     23          6           0       -2.283785    0.680263    1.067420
     24          6           0       -2.859373   -0.038352    0.020721
     25          6           0       -3.684470    0.554332   -0.933864
     26          6           0       -3.938294    1.925051   -0.827800
     27          1           0       -3.577872    3.737758    0.285980
     28          1           0       -2.112807    2.628449    1.961824
     29          1           0       -1.649502    0.172099    1.783571
     30          1           0       -4.107286   -0.048874   -1.728085
     31          1           0       -4.578608    2.406756   -1.561288
     32          7           0       -2.583386   -1.488817   -0.081169
     33          8           0       -3.102593   -2.099692   -1.012777
     34          8           0       -1.853086   -1.987352    0.772506
 ---------------------------------------------------------------------

 SCF Done:  E(RHF) =  -669.535820417     A.U. after   15 cycles
 E2 =    -0.2091063247D+01 EUMP2 =    -0.67162688366439D+03

 The electronic state is 1-A.
 Alpha  occ. eigenvalues --  -20.60907 -20.60897 -15.85936 -11.31285 -11.27855
 Alpha  occ. eigenvalues --  -11.27846 -11.27590 -11.26865 -11.26854 -11.21479
 Alpha  occ. eigenvalues --  -11.21126 -11.21004 -11.20979 -11.20878 -11.19869
 Alpha  occ. eigenvalues --   -1.59965  -1.39521  -1.19456  -1.08854  -1.08055
 Alpha  occ. eigenvalues --   -1.04857  -1.03050  -0.95697  -0.95465  -0.86482
 Alpha  occ. eigenvalues --   -0.86255  -0.82527  -0.79143  -0.77847  -0.77573
 Alpha  occ. eigenvalues --   -0.72162  -0.71282  -0.70564  -0.65113  -0.64859
 Alpha  occ. eigenvalues --   -0.64696  -0.62205  -0.60448  -0.58899  -0.57076
 Alpha  occ. eigenvalues --   -0.55358  -0.54756  -0.53187  -0.52949  -0.52124
 Alpha  occ. eigenvalues --   -0.51899  -0.49442  -0.48921  -0.48897  -0.47440
 Alpha  occ. eigenvalues --   -0.46219  -0.45392  -0.45337  -0.44811  -0.43306
 Alpha  occ. eigenvalues --   -0.37435  -0.36460
 Alpha virt. eigenvalues --    0.04929   0.11190   0.16399   0.21209   0.23154
 Alpha virt. eigenvalues --    0.24695   0.26638   0.27295   0.27694   0.28079
 Alpha virt. eigenvalues --    0.28869   0.30652   0.31684   0.32088   0.32502

 Mulliken charges:
               1
     1  C   -0.296475
     2  C   -0.300157
     3  C   -0.478108
     4  H    0.149035
     5  H    0.144296
     6  H    0.149326
     7  H    0.149937
     8  H    0.168367
     9  H    0.148136
    10  H    0.166744
    11  C   -0.297665
    12  C   -0.298736
    13  C   -0.475345
    14  H    0.149885
    15  H    0.148150
    16  H    0.152071
    17  H    0.148670
    18  H    0.154040
    19  H    0.155795
    20  H    0.158866
    21  C   -0.170712
    22  C   -0.218522
    23  C   -0.171248
    24  C    0.158336
    25  C   -0.170926
    26  C   -0.218507
    27  H    0.225991
    28  H    0.223845
    29  H    0.275378
    30  H    0.275879
    31  H    0.223824
    32  N    0.489609
    33  O   -0.459351
    34  O   -0.460430
 Sum of Mulliken charges =  -0.00000

 Dipole moment (field-independent basis, Debye):
    X=             -1.1848    Y=              5.0370    Z=              0.3556  Tot=              5.1867
 Quadrupole moment (field-independent basis, Debye-Ang):
   XX=            -88.4021   YY=            -95.8157   ZZ=            -91.9861
   XY=            -15.6642   XZ=              2.1402   YZ=              0.6686

 Normal termination of Gaussian 16 at Wed May  5 17:09:03 2021.
