 Gaussian 16, Revision A.03,
 Gaussian 16:  EM64L-G16RevA.03 25-Dec-2016

 -------------
 #p 6-31g* mp2
 -------------

 ------------------------------------------------------
 Input file generated by CHIRIPA (05-May-2021 14:53:15)
 ------------------------------------------------------
 Symbolic Z-matrix:
 Charge =  0 Multiplicity = 1

                         Standard orientation:
 ---------------------------------------------------------------------
 Center     Atomic      Atomic             Coordinates (Angstroms)
 Number     Number       Type             X           Y           Z
 ---------------------------------------------------------------------
      1          6           0       -3.113351    1.198818    0.083132
      2          6           0       -1.859995    1.665517   -0.658001
      3          6           0       -1.253358    2.932373   -0.053963
      4          1           0       -3.859353    2.005242    0.072757
      5          1           0       -2.861815    1.019253    1.137589
      6          1           0       -2.113506    1.842821   -1.711050
      7          1           0       -1.116963    0.857820   -0.646027
      8          1           0       -0.972710    2.764739    0.990899
      9          1           0       -1.974915    3.755337   -0.080176
     10          1           0       -0.358459    3.248313   -0.599120
     11          6           0       -3.731340   -0.066591   -0.508947
     12          6           0       -4.984695   -0.533290    0.232186
     13          6           0       -5.591332   -1.800145   -0.371852
     14          1           0       -3.982875    0.112975   -1.563405
     15          1           0       -2.985338   -0.873014   -0.498573
     16          1           0       -5.727728    0.274408    0.220212
     17          1           0       -4.731184   -0.710594    1.285235
     18          1           0       -4.869775   -2.623109   -0.345640
     19          1           0       -5.871980   -1.632511   -1.416714
     20          1           0       -6.486232   -2.116085    0.173305
     21          6           0        0.394207   -1.227374    0.910259
     22          6           0        1.235806   -2.091901    0.202568
     23          6           0        2.500916   -1.667615   -0.214597
     24          6           0        2.894081   -0.366376    0.094414
     25          6           0        2.078416    0.518522    0.797933
     26          6           0        0.817453    0.072785    1.205163
     27          1           0       -0.586951   -1.565301    1.230465
     28          1           0        0.909746   -3.102165   -0.027863
     29          1           0        3.172607   -2.316124   -0.763855
     30          1           0        2.431248    1.519893    1.012833
     31          1           0        0.165968    0.746366    1.754620
     32          7           0        4.231201    0.094151   -0.341962
     33          8           0        4.554111    1.245363   -0.057222
     34          8           0        4.931009   -0.704821   -0.960468
 ---------------------------------------------------------------------

 SCF Done:  E(RHF) =  -669.534055371     A.U. after   15 cycles
 E2 =    -0.2094207019D+01 EUMP2 =    -0.67162826239075D+03

 The electronic state is 1-A.
 Alpha  occ. eigenvalues --  -20.60804 -20.60799 -15.85857 -11.31252 -11.27805
 Alpha  occ. eigenvalues --  -11.27787 -11.27553 -11.26847 -11.26805 -11.22353
 Alpha  occ. eigenvalues --  -11.22241 -11.22183 -11.22115 -11.21827 -11.21750
 Alpha  occ. eigenvalues --   -1.59878  -1.39431  -1.19429  -1.09223  -1.08814
 Alpha  occ. eigenvalues --   -1.04848  -1.04238  -0.96731  -0.95648  -0.87740
 Alpha  occ. eigenvalues --   -0.86234  -0.82475  -0.80303  -0.79018  -0.77522
 Alpha  occ. eigenvalues --   -0.72076  -0.71201  -0.70536  -0.65994  -0.65073
 Alpha  occ. eigenvalues --   -0.64787  -0.62326  -0.61496  -0.60077  -0.58320
 Alpha  occ. eigenvalues --   -0.56126  -0.55276  -0.53400  -0.53176  -0.53130
 Alpha  occ. eigenvalues --   -0.52867  -0.50686  -0.48842  -0.48828  -0.48600
 Alpha  occ. eigenvalues --   -0.47354  -0.46545  -0.46510  -0.44830  -0.44517
 Alpha  occ. eigenvalues --   -0.37350  -0.36375
 Alpha virt. eigenvalues --    0.04972   0.11156   0.16336   0.18819   0.22493
 Alpha virt. eigenvalues --    0.23767   0.25432   0.25587   0.26878   0.28870
 Alpha virt. eigenvalues --    0.29120   0.30373   0.31057   0.31488   0.32141

 Mulliken charges:
               1
     1  C   -0.298258
     2  C   -0.310239
     3  C   -0.476726
     4  H    0.153757
     5  H    0.139763
     6  H    0.156026
     7  H    0.161516
     8  H    0.143421
     9  H    0.159459
    10  H    0.165985
    11  C   -0.298704
    12  C   -0.299959
    13  C   -0.475468
    14  H    0.154059
    15  H    0.143396
    16  H    0.155085
    17  H    0.149000
    18  H    0.152397
    19  H    0.157667
    20  H    0.162495
    21  C   -0.173626
    22  C   -0.218239
    23  C   -0.171111
    24  C    0.158894
    25  C   -0.172240
    26  C   -0.218378
    27  H    0.227558
    28  H    0.223823
    29  H    0.275870
    30  H    0.276373
    31  H    0.228635
    32  N    0.488028
    33  O   -0.460032
    34  O   -0.460228
 Sum of Mulliken charges =  -0.00000

 Dipole moment (field-independent basis, Debye):
    X=             -4.7539    Y=             -1.5908    Z=              1.4184  Tot=              5.2098
 Quadrupole moment (field-independent basis, Debye-Ang):
   XX=           -122.0497   YY=            -90.0720   ZZ=            -94.0366
   XY=             -4.7859   XZ=              4.1162   YZ=              0.5872

 Normal termination of Gaussian 16 at Wed May  5 20:17:36 2021.
