 Gaussian 16, Revision A.03,
 Gaussian 16:  EM64L-G16RevA.03 25-Dec-2016

 -------------
 #p 6-31g* mp2
 -------------

 ------------------------------------------------------
 Input file generated by CHIRIPA (05-May-2021 14:51:07)
 ------------------------------------------------------
 Symbolic Z-matrix:
 Charge =  0 Multiplicity = 1

                         Standard orientation:
 ---------------------------------------------------------------------
 Center     Atomic      Atomic             Coordinates (Angstroms)
 Number     Number       Type             X           Y           Z
 ---------------------------------------------------------------------
      1          6           0        3.639731    0.131992   -0.312233
      2          6           0        3.316190    1.580697   -0.679058
      3          6           0        1.821983    1.813877   -0.904379
      4          1           0        3.280086   -0.530915   -1.111079
      5          1           0        3.083984   -0.142023    0.595212
      6          1           0        3.873452    1.852334   -1.584756
      7          1           0        3.676817    2.240248    0.120664
      8          1           0        1.253497    1.569900   -0.001107
      9          1           0        1.451249    1.179783   -1.716217
     10          1           0        1.613184    2.856027   -1.165500
     11          6           0        5.129577   -0.116860   -0.083851
     12          6           0        5.453118   -1.565564    0.282974
     13          6           0        6.947325   -1.798744    0.508294
     14          1           0        5.685324    0.157155   -0.991296
     15          1           0        5.489222    0.546047    0.714995
     16          1           0        5.092491   -2.225115   -0.516748
     17          1           0        4.895856   -1.837202    1.188672
     18          1           0        7.318059   -1.164650    1.320133
     19          1           0        7.515811   -1.554768   -0.394977
     20          1           0        7.156124   -2.840895    0.769416
     21          6           0       -4.084172    0.620839    0.511491
     22          6           0       -2.560585    0.685179    0.399561
     23          6           0       -1.974244    1.948118    1.031211
     24          1           0       -4.518551    1.508323    0.031251
     25          1           0       -4.369294    0.668021    1.571620
     26          1           0       -2.278357    0.636494   -0.659964
     27          1           0       -2.129791   -0.202659    0.879956
     28          1           0       -2.226998    1.999710    2.095192
     29          1           0       -2.376408    2.843631    0.546522
     30          1           0       -0.883889    1.973604    0.939905
     31          6           0       -4.685136   -0.635971   -0.115407
     32          6           0       -6.208723   -0.700311   -0.003477
     33          6           0       -6.795064   -1.963251   -0.635127
     34          1           0       -4.400014   -0.683154   -1.175536
     35          1           0       -4.250758   -1.523456    0.364833
     36          1           0       -6.639516    0.187526   -0.483871
     37          1           0       -6.490951   -0.651627    1.056047
     38          1           0       -6.392900   -2.858763   -0.150439
     39          1           0       -6.542310   -2.014842   -1.699108
     40          1           0       -7.885419   -1.988737   -0.543821
 ---------------------------------------------------------------------

 SCF Done:  E(RHF) =  -470.733251055     A.U. after   11 cycles
 E2 =    -0.1582248186D+01 EUMP2 =    -0.47231549924123D+03

 The electronic state is 1-A.
 Alpha  occ. eigenvalues --  -11.21613 -11.21606 -11.21579 -11.21544 -11.21413
 Alpha  occ. eigenvalues --  -11.21370 -11.21353 -11.21309 -11.21085 -11.21075
 Alpha  occ. eigenvalues --  -11.21054 -11.20983  -1.08439  -1.08391  -1.03546
 Alpha  occ. eigenvalues --   -1.03482  -0.96013  -0.95918  -0.87044  -0.86922
 Alpha  occ. eigenvalues --   -0.79615  -0.79538  -0.78251  -0.78204  -0.65072
 Alpha  occ. eigenvalues --   -0.65022  -0.60962  -0.60883  -0.59356  -0.59330
 Alpha  occ. eigenvalues --   -0.57696  -0.57473  -0.55287  -0.55222  -0.52802
 Alpha  occ. eigenvalues --   -0.52626  -0.52448  -0.52225  -0.49918  -0.49874
 Alpha  occ. eigenvalues --   -0.47969  -0.47809  -0.46626  -0.46582  -0.45791
 Alpha  occ. eigenvalues --   -0.45749  -0.45713  -0.45671  -0.43808  -0.43708
 Alpha virt. eigenvalues --    0.22109   0.22983   0.23454   0.24771   0.26353
 Alpha virt. eigenvalues --    0.26625   0.26928   0.27608   0.27619   0.28912
 Alpha virt. eigenvalues --    0.30195   0.31378   0.31627   0.31938   0.32057

 Mulliken charges:
               1
     1  C   -0.298437
     2  C   -0.299501
     3  C   -0.480455
     4  H    0.149759
     5  H    0.149550
     6  H    0.151987
     7  H    0.152043
     8  H    0.159404
     9  H    0.155503
    10  H    0.160719
    11  C   -0.298313
    12  C   -0.299666
    13  C   -0.475714
    14  H    0.149558
    15  H    0.149685
    16  H    0.151969
    17  H    0.151930
    18  H    0.155195
    19  H    0.155193
    20  H    0.160268
    21  C   -0.298263
    22  C   -0.299139
    23  C   -0.481984
    24  H    0.149602
    25  H    0.149330
    26  H    0.152619
    27  H    0.151336
    28  H    0.154359
    29  H    0.155118
    30  H    0.166616
    31  C   -0.298219
    32  C   -0.299621
    33  C   -0.475680
    34  H    0.149491
    35  H    0.149545
    36  H    0.151911
    37  H    0.151860
    38  H    0.155127
    39  H    0.155144
    40  H    0.160170
 Sum of Mulliken charges =  -0.00000

 Dipole moment (field-independent basis, Debye):
    X=              0.0259    Y=              0.0043    Z=             -0.0134  Tot=              0.0295
 Quadrupole moment (field-independent basis, Debye-Ang):
   XX=            -86.3001   YY=            -85.3582   ZZ=            -83.1931
   XY=             -0.2130   XZ=             -0.4442   YZ=             -0.5342

 Normal termination of Gaussian 16 at Thu May  6 05:15:31 2021.
