 Gaussian 16, Revision A.03,
 Gaussian 16:  EM64L-G16RevA.03 25-Dec-2016

 -------------
 #p 6-31g* mp2
 -------------

 ------------------------------------------------------
 Input file generated by CHIRIPA (05-May-2021 14:57:26)
 ------------------------------------------------------
 Symbolic Z-matrix:
 Charge =  0 Multiplicity = 1

                         Standard orientation:
 ---------------------------------------------------------------------
 Center     Atomic      Atomic             Coordinates (Angstroms)
 Number     Number       Type             X           Y           Z
 ---------------------------------------------------------------------
      1          6           0        2.850737    2.603836    0.128869
      2          6           0        1.739146    2.009648   -0.477619
      3          6           0        1.683636    0.624132   -0.655975
      4          6           0        2.762231   -0.140418   -0.213948
      5          6           0        3.883623    0.422033    0.393850
      6          6           0        3.917546    1.809533    0.561905
      7          1           0        2.885474    3.680909    0.263420
      8          1           0        0.909195    2.624033   -0.814899
      9          1           0        0.835334    0.138055   -1.122376
     10          1           0        4.695653   -0.216568    0.719754
     11          1           0        4.782106    2.268253    1.033239
     12          7           0        2.714891   -1.608252   -0.397313
     13          8           0        3.678057   -2.259742    0.000820
     14          8           0        1.715518   -2.079456   -0.935696
     15          6           0       -2.036707   -2.482589    0.581933
     16          6           0       -3.256212   -2.222415   -0.051818
     17          6           0       -3.672605   -0.907056   -0.277643
     18          6           0       -2.840928    0.128696    0.145231
     19          6           0       -1.620366   -0.098254    0.779274
     20          6           0       -1.224109   -1.421549    0.994728
     21          1           0       -1.721065   -3.507473    0.753331
     22          1           0       -3.889327   -3.044454   -0.373473
     23          1           0       -4.611816   -0.677167   -0.765957
     24          1           0       -1.010749    0.742039    1.088615
     25          1           0       -0.276514   -1.620620    1.487149
     26          7           0       -3.271086    1.525408   -0.088351
     27          8           0       -2.520223    2.420309    0.293741
     28          8           0       -4.350962    1.698803   -0.649101
 ---------------------------------------------------------------------

 SCF Done:  E(RHF) =  -868.339921857     A.U. after   16 cycles
 E2 =    -0.2601540536D+01 EUMP2 =    -0.87094146239349D+03

 The electronic state is 1-A.
 Alpha  occ. eigenvalues --  -20.61365 -20.61360 -20.61046 -20.60997 -15.86386
 Alpha  occ. eigenvalues --  -15.86061 -11.31539 -11.31146 -11.28078 -11.27993
 Alpha  occ. eigenvalues --  -11.27694 -11.27639 -11.27634 -11.27207 -11.27023
 Alpha  occ. eigenvalues --  -11.26890 -11.26573 -11.26534  -1.60446  -1.60100
 Alpha  occ. eigenvalues --   -1.39999  -1.39663  -1.19681  -1.19262  -1.09097
 Alpha  occ. eigenvalues --   -1.08673  -1.05038  -1.04610  -0.95973  -0.95569
 Alpha  occ. eigenvalues --   -0.86414  -0.86011  -0.82792  -0.82424  -0.77917
 Alpha  occ. eigenvalues --   -0.77502  -0.72606  -0.72283  -0.71788  -0.71424
 Alpha  occ. eigenvalues --   -0.70748  -0.70290  -0.65312  -0.64996  -0.64859
 Alpha  occ. eigenvalues --   -0.64574  -0.62397  -0.61925  -0.55488  -0.55038
 Alpha  occ. eigenvalues --   -0.53426  -0.53180  -0.52802  -0.52669  -0.49378
 Alpha  occ. eigenvalues --   -0.49348  -0.49055  -0.49003  -0.45442  -0.45132
 Alpha  occ. eigenvalues --   -0.37647  -0.37154  -0.36765  -0.36032
 Alpha virt. eigenvalues --    0.04474   0.05045   0.10976   0.11397   0.16103
 Alpha virt. eigenvalues --    0.16583   0.21313   0.21741   0.27055   0.27491
 Alpha virt. eigenvalues --    0.28197   0.28635   0.30505   0.31555   0.32194

 Mulliken charges:
               1
     1  C   -0.170453
     2  C   -0.223923
     3  C   -0.180679
     4  C    0.153509
     5  C   -0.172012
     6  C   -0.218665
     7  H    0.230269
     8  H    0.239426
     9  H    0.279790
    10  H    0.275277
    11  H    0.224852
    12  N    0.485993
    13  O   -0.459414
    14  O   -0.462720
    15  C   -0.166024
    16  C   -0.218527
    17  C   -0.171868
    18  C    0.157130
    19  C   -0.185780
    20  C   -0.207510
    21  H    0.232427
    22  H    0.224428
    23  H    0.274452
    24  H    0.272479
    25  H    0.226456
    26  N    0.488504
    27  O   -0.469191
    28  O   -0.458226
 Sum of Mulliken charges =  -0.00000

 Dipole moment (field-independent basis, Debye):
    X=              1.7493    Y=              0.1391    Z=              1.4427  Tot=              2.2718
 Quadrupole moment (field-independent basis, Debye-Ang):
   XX=           -105.2682   YY=           -107.1502   ZZ=           -104.3452
   XY=             30.8113   XZ=              3.9629   YZ=             -1.4434

 Normal termination of Gaussian 16 at Fri May  7 12:44:48 2021.
