 Gaussian 16, Revision A.03,
 Gaussian 16:  EM64L-G16RevA.03 25-Dec-2016

 -------------
 #p 6-31g* mp2
 -------------

 ------------------------------------------------------
 Input file generated by CHIRIPA (05-May-2021 14:51:12)
 ------------------------------------------------------
 Symbolic Z-matrix:
 Charge =  0 Multiplicity = 1

                         Standard orientation:
 ---------------------------------------------------------------------
 Center     Atomic      Atomic             Coordinates (Angstroms)
 Number     Number       Type             X           Y           Z
 ---------------------------------------------------------------------
      1          6           0        3.651949    0.511168    0.371732
      2          6           0        3.971161    1.102122   -1.001899
      3          6           0        5.028220    2.205101   -0.939773
      4          1           0        3.307654    1.313850    1.038145
      5          1           0        4.574699    0.111454    0.814627
      6          1           0        3.047829    1.499362   -1.442663
      7          1           0        4.314554    0.297907   -1.665175
      8          1           0        5.964305    1.818590   -0.523894
      9          1           0        4.690382    3.026871   -0.300117
     10          1           0        5.241153    2.613479   -1.932621
     11          6           0        2.596918   -0.592711    0.326010
     12          6           0        2.277705   -1.183665    1.699641
     13          6           0        1.220647   -2.286644    1.637515
     14          1           0        1.674168   -0.192997   -0.116885
     15          1           0        2.941213   -1.395394   -0.340403
     16          1           0        1.934313   -0.379450    2.362917
     17          1           0        3.201038   -1.580906    2.140404
     18          1           0        1.558485   -3.108414    0.997859
     19          1           0        0.284562   -1.900133    1.221636
     20          1           0        1.007714   -2.695022    2.630363
     21          6           0       -2.742330   -0.293625   -0.919491
     22          6           0       -2.454913   -1.774678   -0.670771
     23          6           0       -1.689899   -2.429721   -1.821191
     24          1           0       -3.316834   -0.189391   -1.850096
     25          1           0       -1.792402    0.235539   -1.077657
     26          1           0       -3.405013   -2.300642   -0.511749
     27          1           0       -1.881191   -1.875414    0.259450
     28          1           0       -0.727842   -1.931068   -1.977370
     29          1           0       -2.260322   -2.358713   -2.752951
     30          1           0       -1.495075   -3.488224   -1.622503
     31          6           0       -3.506537    0.375169    0.221750
     32          6           0       -3.793954    1.856221   -0.026971
     33          6           0       -4.558967    2.511264    1.123449
     34          1           0       -4.456466   -0.153995    0.379915
     35          1           0       -2.932032    0.270934    1.152354
     36          1           0       -4.367676    1.956957   -0.957192
     37          1           0       -2.843854    2.382185   -0.185993
     38          1           0       -3.988545    2.440256    2.055209
     39          1           0       -5.521025    2.012612    1.279629
     40          1           0       -4.753792    3.569767    0.924761
 ---------------------------------------------------------------------

 SCF Done:  E(RHF) =  -470.733364112     A.U. after   11 cycles
 E2 =    -0.1582927476D+01 EUMP2 =    -0.47231629158843D+03

 The electronic state is 1-A.
 Alpha  occ. eigenvalues --  -11.21645 -11.21633 -11.21624 -11.21581 -11.21454
 Alpha  occ. eigenvalues --  -11.21425 -11.21393 -11.21366 -11.21094 -11.21091
 Alpha  occ. eigenvalues --  -11.21089 -11.21037  -1.08476  -1.08441  -1.03578
 Alpha  occ. eigenvalues --   -1.03521  -0.96024  -0.95972  -0.87035  -0.86994
 Alpha  occ. eigenvalues --   -0.79658  -0.79570  -0.78291  -0.78253  -0.65182
 Alpha  occ. eigenvalues --   -0.65015  -0.61105  -0.60815  -0.59381  -0.59348
 Alpha  occ. eigenvalues --   -0.57658  -0.57556  -0.55364  -0.55214  -0.52707
 Alpha  occ. eigenvalues --   -0.52673  -0.52441  -0.52401  -0.50048  -0.49858
 Alpha  occ. eigenvalues --   -0.48044  -0.47833  -0.46789  -0.46496  -0.45906
 Alpha  occ. eigenvalues --   -0.45787  -0.45720  -0.45611  -0.43823  -0.43790
 Alpha virt. eigenvalues --    0.20178   0.23210   0.23714   0.25022   0.25907
 Alpha virt. eigenvalues --    0.26116   0.26941   0.27924   0.28304   0.28973
 Alpha virt. eigenvalues --    0.30594   0.31193   0.31542   0.31939   0.31988

 Mulliken charges:
               1
     1  C   -0.298337
     2  C   -0.299697
     3  C   -0.475736
     4  H    0.149624
     5  H    0.149824
     6  H    0.151766
     7  H    0.152142
     8  H    0.155274
     9  H    0.155187
    10  H    0.160414
    11  C   -0.298794
    12  C   -0.299367
    13  C   -0.482848
    14  H    0.148805
    15  H    0.150170
    16  H    0.151661
    17  H    0.152262
    18  H    0.155917
    19  H    0.161713
    20  H    0.160388
    21  C   -0.298509
    22  C   -0.306306
    23  C   -0.476010
    24  H    0.150003
    25  H    0.148720
    26  H    0.152347
    27  H    0.157731
    28  H    0.156134
    29  H    0.154907
    30  H    0.160679
    31  C   -0.298246
    32  C   -0.299596
    33  C   -0.475716
    34  H    0.149854
    35  H    0.149208
    36  H    0.152097
    37  H    0.151596
    38  H    0.155137
    39  H    0.155314
    40  H    0.160290
 Sum of Mulliken charges =  -0.00000

 Dipole moment (field-independent basis, Debye):
    X=              0.0098    Y=             -0.0163    Z=              0.0007  Tot=              0.0190
 Quadrupole moment (field-independent basis, Debye-Ang):
   XX=            -84.2199   YY=            -85.2375   ZZ=            -85.1583
   XY=             -0.5761   XZ=              0.8007   YZ=             -0.1568

 Normal termination of Gaussian 16 at Wed May  5 15:19:02 2021.
