 Gaussian 16, Revision A.03,
 Gaussian 16:  EM64L-G16RevA.03 25-Dec-2016

 -------------
 #p 6-31g* mp2
 -------------

 ------------------------------------------------------
 Input file generated by CHIRIPA (05-May-2021 14:53:11)
 ------------------------------------------------------
 Symbolic Z-matrix:
 Charge =  0 Multiplicity = 1

                         Standard orientation:
 ---------------------------------------------------------------------
 Center     Atomic      Atomic             Coordinates (Angstroms)
 Number     Number       Type             X           Y           Z
 ---------------------------------------------------------------------
      1          6           0       -3.189250    0.836708    0.006532
      2          6           0       -2.350980    1.525163   -1.071113
      3          6           0       -1.616495    2.760511   -0.549346
      4          1           0       -3.916629    1.554197    0.410356
      5          1           0       -2.535814    0.550213    0.842197
      6          1           0       -3.005570    1.809037   -1.905105
      7          1           0       -1.625640    0.805896   -1.472553
      8          1           0       -0.940649    2.490100    0.268401
      9          1           0       -2.328419    3.498940   -0.166609
     10          1           0       -1.023426    3.237091   -1.336112
     11          6           0       -3.929536   -0.399960   -0.499788
     12          6           0       -4.767806   -1.088414    0.577856
     13          6           0       -5.502290   -2.323763    0.056089
     14          1           0       -4.582972   -0.113465   -1.335454
     15          1           0       -3.202157   -1.117449   -0.903612
     16          1           0       -5.493146   -0.369148    0.979296
     17          1           0       -4.113216   -1.372289    1.411848
     18          1           0       -4.790367   -3.062192   -0.326648
     19          1           0       -6.178137   -2.053352   -0.761657
     20          1           0       -6.095360   -2.800343    0.842855
     21          6           0        1.718403    1.989411    0.948735
     22          6           0        1.217564    0.765702    1.405045
     23          6           0        1.798325   -0.437317    0.992725
     24          6           0        2.883482   -0.379427    0.119586
     25          6           0        3.405258    0.823930   -0.352614
     26          6           0        2.808729    2.014574    0.072906
     27          1           0        1.261129    2.919138    1.274161
     28          1           0        0.370910    0.743125    2.085274
     29          1           0        1.430690   -1.398661    1.330486
     30          1           0        4.250377    0.814451   -1.030185
     31          1           0        3.199793    2.963456   -0.283096
     32          7           0        3.506654   -1.646460   -0.323906
     33          8           0        4.461722   -1.568454   -1.093580
     34          8           0        3.028228   -2.693574    0.106557
 ---------------------------------------------------------------------

 SCF Done:  E(RHF) =  -669.534479407     A.U. after   15 cycles
 E2 =    -0.2092725022D+01 EUMP2 =    -0.67162720442954D+03

 The electronic state is 1-A.
 Alpha  occ. eigenvalues --  -20.60799 -20.60794 -15.85855 -11.31225 -11.27821
 Alpha  occ. eigenvalues --  -11.27813 -11.27540 -11.26823 -11.26797 -11.22114
 Alpha  occ. eigenvalues --  -11.21950 -11.21942 -11.21752 -11.21737 -11.21298
 Alpha  occ. eigenvalues --   -1.59875  -1.39429  -1.19416  -1.08902  -1.08797
 Alpha  occ. eigenvalues --   -1.04822  -1.03975  -0.96456  -0.95635  -0.87472
 Alpha  occ. eigenvalues --   -0.86221  -0.82471  -0.80053  -0.78698  -0.77512
 Alpha  occ. eigenvalues --   -0.72074  -0.71200  -0.70546  -0.65545  -0.65070
 Alpha  occ. eigenvalues --   -0.64815  -0.62176  -0.61371  -0.59811  -0.58052
 Alpha  occ. eigenvalues --   -0.55879  -0.55253  -0.53228  -0.53086  -0.52913
 Alpha  occ. eigenvalues --   -0.52803  -0.50364  -0.48832  -0.48827  -0.48364
 Alpha  occ. eigenvalues --   -0.47074  -0.46243  -0.46155  -0.44833  -0.44239
 Alpha  occ. eigenvalues --   -0.37310  -0.36419
 Alpha virt. eigenvalues --    0.05010   0.11091   0.16445   0.20214   0.22643
 Alpha virt. eigenvalues --    0.24037   0.25339   0.26715   0.26778   0.28236
 Alpha virt. eigenvalues --    0.28753   0.30328   0.31252   0.31344   0.31759

 Mulliken charges:
               1
     1  C   -0.297507
     2  C   -0.299552
     3  C   -0.477729
     4  H    0.150081
     5  H    0.141965
     6  H    0.154363
     7  H    0.156380
     8  H    0.148876
     9  H    0.154450
    10  H    0.160457
    11  C   -0.299267
    12  C   -0.299535
    13  C   -0.476193
    14  H    0.151319
    15  H    0.152307
    16  H    0.151866
    17  H    0.149951
    18  H    0.157214
    19  H    0.155963
    20  H    0.161087
    21  C   -0.167811
    22  C   -0.219163
    23  C   -0.171655
    24  C    0.158039
    25  C   -0.170638
    26  C   -0.220355
    27  H    0.227910
    28  H    0.224540
    29  H    0.275615
    30  H    0.275876
    31  H    0.223862
    32  N    0.488144
    33  O   -0.460310
    34  O   -0.460551
 Sum of Mulliken charges =  -0.00000

 Dipole moment (field-independent basis, Debye):
    X=             -2.2239    Y=              4.4291    Z=              1.4794  Tot=              5.1722
 Quadrupole moment (field-independent basis, Debye-Ang):
   XX=           -105.0826   YY=            -97.8478   ZZ=            -93.4251
   XY=             15.0632   XZ=              2.4484   YZ=             -2.0674

 Normal termination of Gaussian 16 at Wed May  5 16:56:29 2021.
