 Gaussian 16, Revision A.03,
 Gaussian 16:  EM64L-G16RevA.03 25-Dec-2016

 -------------
 #p 6-31g* mp2
 -------------

 ------------------------------------------------------
 Input file generated by CHIRIPA (05-May-2021 14:57:25)
 ------------------------------------------------------
 Symbolic Z-matrix:
 Charge =  0 Multiplicity = 1

                         Standard orientation:
 ---------------------------------------------------------------------
 Center     Atomic      Atomic             Coordinates (Angstroms)
 Number     Number       Type             X           Y           Z
 ---------------------------------------------------------------------
      1          6           0        1.032401   -0.904157    1.284680
      2          6           0        1.791798   -1.847275    0.584419
      3          6           0        3.000049   -1.481417   -0.016268
      4          6           0        3.420795   -0.157829    0.103640
      5          6           0        2.686619    0.804867    0.794647
      6          6           0        1.481444    0.416576    1.387378
      7          1           0        0.094997   -1.197077    1.748218
      8          1           0        1.445530   -2.873686    0.503036
      9          1           0        3.607739   -2.191214   -0.564281
     10          1           0        3.057764    1.820532    0.858634
     11          1           0        0.893761    1.151145    1.930592
     12          7           0        4.698289    0.241363   -0.528070
     13          8           0        5.047043    1.413788   -0.407960
     14          8           0        5.326644   -0.625734   -1.131352
     15          6           0       -4.255549   -2.072047   -0.264134
     16          6           0       -5.062673   -0.938721   -0.120452
     17          6           0       -4.494360    0.338193   -0.087944
     18          6           0       -3.109193    0.445557   -0.202302
     19          6           0       -2.278355   -0.664482   -0.346560
     20          6           0       -2.868412   -1.931558   -0.376532
     21          1           0       -4.705475   -3.060163   -0.288403
     22          1           0       -6.140232   -1.044811   -0.032943
     23          1           0       -5.095665    1.232449    0.022316
     24          1           0       -1.207238   -0.526947   -0.431479
     25          1           0       -2.239122   -2.809945   -0.488219
     26          7           0       -2.496036    1.792163   -0.169230
     27          8           0       -1.273130    1.859920   -0.271935
     28          8           0       -3.249959    2.754375   -0.041230
 ---------------------------------------------------------------------

 SCF Done:  E(RHF) =  -868.337592283     A.U. after   16 cycles
 E2 =    -0.2601954172D+01 EUMP2 =    -0.87093954645534D+03

 The electronic state is 1-A.
 Alpha  occ. eigenvalues --  -20.61538 -20.61507 -20.60572 -20.60550 -15.86565
 Alpha  occ. eigenvalues --  -15.85613 -11.31907 -11.31026 -11.28465 -11.28419
 Alpha  occ. eigenvalues --  -11.28220 -11.27627 -11.27531 -11.27457 -11.27439
 Alpha  occ. eigenvalues --  -11.27349 -11.26795 -11.26477  -1.60600  -1.59635
 Alpha  occ. eigenvalues --   -1.40152  -1.39187  -1.20091  -1.19195  -1.09486
 Alpha  occ. eigenvalues --   -1.08622  -1.05492  -1.04570  -0.96324  -0.95439
 Alpha  occ. eigenvalues --   -0.86885  -0.85989  -0.83158  -0.82238  -0.78213
 Alpha  occ. eigenvalues --   -0.77258  -0.72787  -0.71933  -0.71832  -0.71231
 Alpha  occ. eigenvalues --   -0.70954  -0.70318  -0.65738  -0.65490  -0.64848
 Alpha  occ. eigenvalues --   -0.64574  -0.62833  -0.61896  -0.55994  -0.55179
 Alpha  occ. eigenvalues --   -0.53804  -0.53642  -0.52819  -0.52658  -0.49545
 Alpha  occ. eigenvalues --   -0.49534  -0.48597  -0.48584  -0.45560  -0.44581
 Alpha  occ. eigenvalues --   -0.38072  -0.37341  -0.36979  -0.36115
 Alpha virt. eigenvalues --    0.04257   0.05214   0.10515   0.11470   0.15718
 Alpha virt. eigenvalues --    0.16667   0.20428   0.21828   0.26204   0.27773
 Alpha virt. eigenvalues --    0.27797   0.28680   0.30466   0.31156   0.32092

 Mulliken charges:
               1
     1  C   -0.189074
     2  C   -0.221923
     3  C   -0.171827
     4  C    0.159538
     5  C   -0.170086
     6  C   -0.200981
     7  H    0.224257
     8  H    0.216887
     9  H    0.274123
    10  H    0.279369
    11  H    0.233923
    12  N    0.487960
    13  O   -0.457799
    14  O   -0.462091
    15  C   -0.169702
    16  C   -0.218608
    17  C   -0.169750
    18  C    0.156103
    19  C   -0.183285
    20  C   -0.223045
    21  H    0.227603
    22  H    0.226029
    23  H    0.277500
    24  H    0.286489
    25  H    0.221043
    26  N    0.487660
    27  O   -0.463239
    28  O   -0.457077
 Sum of Mulliken charges =  -0.00000

 Dipole moment (field-independent basis, Debye):
    X=             -6.7483    Y=             -5.8169    Z=              2.1339  Tot=              9.1613
 Quadrupole moment (field-independent basis, Debye-Ang):
   XX=           -117.8511   YY=           -104.1037   ZZ=           -105.1965
   XY=              7.5329   XZ=              7.4254   YZ=              2.7036

 Normal termination of Gaussian 16 at Wed May  5 19:29:56 2021.
