 Gaussian 16, Revision A.03,
 Gaussian 16:  EM64L-G16RevA.03 25-Dec-2016

 -------------
 #p 6-31g* mp2
 -------------

 ------------------------------------------------------
 Input file generated by CHIRIPA (05-May-2021 14:53:13)
 ------------------------------------------------------
 Symbolic Z-matrix:
 Charge =  0 Multiplicity = 1

                         Standard orientation:
 ---------------------------------------------------------------------
 Center     Atomic      Atomic             Coordinates (Angstroms)
 Number     Number       Type             X           Y           Z
 ---------------------------------------------------------------------
      1          6           0       -5.384103   -0.347350   -0.327169
      2          6           0       -6.850589   -0.430917    0.097593
      3          6           0       -7.717016   -1.182359   -0.913562
      4          1           0       -5.320124    0.147176   -1.306094
      5          1           0       -4.990826   -1.364164   -0.464349
      6          1           0       -7.240592    0.585723    0.235272
      7          1           0       -6.911068   -0.925131    1.075709
      8          1           0       -7.355031   -2.207246   -1.044610
      9          1           0       -7.686427   -0.687808   -1.889822
     10          1           0       -8.761491   -1.230220   -0.590077
     11          6           0       -4.505247    0.400974    0.673506
     12          6           0       -3.038762    0.484540    0.248745
     13          6           0       -2.172335    1.235982    1.259899
     14          1           0       -4.898525    1.417787    0.810686
     15          1           0       -4.569226   -0.093553    1.652432
     16          1           0       -2.978283    0.978754   -0.729371
     17          1           0       -2.648759   -0.532100    0.111065
     18          1           0       -2.202924    0.741431    2.236159
     19          1           0       -2.534320    2.260870    1.390948
     20          1           0       -1.127860    1.283844    0.936415
     21          6           0        2.137310    1.778675   -0.521536
     22          6           0        1.732856    0.464344   -0.265658
     23          6           0        2.680298   -0.540876   -0.050170
     24          6           0        4.029863   -0.194927   -0.097947
     25          6           0        4.464273    1.105369   -0.350553
     26          6           0        3.499327    2.094435   -0.563094
     27          1           0        1.394515    2.553279   -0.687787
     28          1           0        0.675784    0.216221   -0.232793
     29          1           0        2.394926   -1.566507    0.149980
     30          1           0        5.525270    1.322159   -0.377104
     31          1           0        3.816340    3.114309   -0.761597
     32          7           0        5.042144   -1.250558    0.128620
     33          8           0        6.224987   -0.919985    0.081285
     34          8           0        4.633558   -2.388547    0.349248
 ---------------------------------------------------------------------

 SCF Done:  E(RHF) =  -669.535472162     A.U. after   15 cycles
 E2 =    -0.2090941828D+01 EUMP2 =    -0.67162641399082D+03

 The electronic state is 1-A.
 Alpha  occ. eigenvalues --  -20.60747 -20.60742 -15.85801 -11.31168 -11.27739
 Alpha  occ. eigenvalues --  -11.27732 -11.27480 -11.26752 -11.26725 -11.22529
 Alpha  occ. eigenvalues --  -11.22120 -11.22077 -11.22041 -11.21916 -11.21432
 Alpha  occ. eigenvalues --   -1.59823  -1.39376  -1.19340  -1.09089  -1.08736
 Alpha  occ. eigenvalues --   -1.04745  -1.04217  -0.96664  -0.95570  -0.87681
 Alpha  occ. eigenvalues --   -0.86143  -0.82401  -0.80289  -0.78864  -0.77451
 Alpha  occ. eigenvalues --   -0.72020  -0.71146  -0.70449  -0.65712  -0.64995
 Alpha  occ. eigenvalues --   -0.64792  -0.62140  -0.61600  -0.60048  -0.58266
 Alpha  occ. eigenvalues --   -0.55925  -0.55243  -0.53459  -0.53150  -0.53052
 Alpha  occ. eigenvalues --   -0.52692  -0.50583  -0.48782  -0.48774  -0.48594
 Alpha  occ. eigenvalues --   -0.47313  -0.46412  -0.46311  -0.44781  -0.44461
 Alpha  occ. eigenvalues --   -0.37318  -0.36342
 Alpha virt. eigenvalues --    0.05087   0.11224   0.16579   0.19644   0.22494
 Alpha virt. eigenvalues --    0.23769   0.25910   0.26127   0.26870   0.27867
 Alpha virt. eigenvalues --    0.28633   0.30307   0.30782   0.31413   0.31675

 Mulliken charges:
               1
     1  C   -0.298906
     2  C   -0.300218
     3  C   -0.476088
     4  H    0.149855
     5  H    0.150488
     6  H    0.152415
     7  H    0.153033
     8  H    0.156011
     9  H    0.155444
    10  H    0.161703
    11  C   -0.298580
    12  C   -0.301680
    13  C   -0.479453
    14  H    0.151003
    15  H    0.152020
    16  H    0.151040
    17  H    0.150945
    18  H    0.161160
    19  H    0.158645
    20  H    0.150619
    21  C   -0.171976
    22  C   -0.222530
    23  C   -0.171467
    24  C    0.158689
    25  C   -0.171035
    26  C   -0.218541
    27  H    0.225938
    28  H    0.229603
    29  H    0.275762
    30  H    0.275580
    31  H    0.223399
    32  N    0.488030
    33  O   -0.460465
    34  O   -0.460440
 Sum of Mulliken charges =  -0.00000

 Dipole moment (field-independent basis, Debye):
    X=             -3.7645    Y=              3.7161    Z=             -0.7663  Tot=              5.3449
 Quadrupole moment (field-independent basis, Debye-Ang):
   XX=           -120.7315   YY=            -93.7534   ZZ=            -95.4894
   XY=             18.1182   XZ=             -3.9350   YZ=             -1.4743

 Normal termination of Gaussian 16 at Thu May  6 12:04:32 2021.
